<event>
 7    1  0.6145388E-006  0.1586012E+03  0.7561462E-02  0.1190285E+00
          2   -1    0    0  501    0  0.00000000000E+00  0.00000000000E+00  0.51920106089E+03  0.51920106089E+03  0.00000000000E+00 0. -1.
         -2   -1    0    0    0  501 -0.00000000000E+00 -0.00000000000E+00 -0.58181729736E+02  0.58181729736E+02  0.00000000000E+00 0.  1.
         23    2    1    2    0    0  0.34885027685E+02 -0.12977260525E+03  0.19806296589E+03  0.25671382412E+03  0.92817858230E+02 0.  0.
          5    1    1    2  502    0  0.44849759007E+02  0.30825302827E+02  0.10059153550E+03  0.11444574956E+03  0.41800000000E+01 0. -1.
         -5    1    1    2    0  502 -0.79734786692E+02  0.98947302423E+02  0.16236482977E+03  0.20622321695E+03  0.41800000000E+01 0. -1.
        -11    1    3    3    0    0  0.34397572064E+02 -0.10094552548E+03  0.20119630746E+03  0.22771285913E+03  0.00000000000E+00 0. -1.
         11    1    3    3    0    0  0.48745562066E+00 -0.28827079767E+02 -0.31333415669E+01  0.29000964988E+02  0.00000000000E+00 0.  1.
</event>
<event>
 7    1  0.6145388E-006  0.1229860E+03  0.7561462E-02  0.1238251E+00
         -1   -1    0    0    0  501 -0.00000000000E+00  0.00000000000E+00  0.38491431223E+03  0.38491431223E+03  0.00000000000E+00 0.  1.
          1   -1    0    0  501    0  0.00000000000E+00 -0.00000000000E+00 -0.53921574336E+02  0.53921574336E+02  0.00000000000E+00 0. -1.
         23    2    1    2    0    0 -0.70508796442E+02  0.55593036576E+02  0.10550034452E+03  0.16578613922E+03  0.91063961990E+02 0.  0.
          5    1    1    2  502    0  0.45663371096E+02 -0.75410396461E+02  0.22422595722E+03  0.24097017170E+03  0.41800000000E+01 0. -1.
         -5    1    1    2    0  502  0.24845425346E+02  0.19817359886E+02  0.12664361564E+01  0.32079575652E+02  0.41800000000E+01 0. -1.
        -11    1    3    3    0    0 -0.53252349920E+02 -0.13094020059E+02  0.30996032536E+02  0.62992223061E+02  0.00000000000E+00 0. -1.
         11    1    3    3    0    0 -0.17256446522E+02  0.68687056634E+02  0.74504311980E+02  0.10279391616E+03  0.00000000000E+00 0.  1.
</event>
<event>
 7    1  0.6145388E-006  0.1238472E+03  0.7561462E-02  0.1236882E+00
          2   -1    0    0  501    0  0.00000000000E+00  0.00000000000E+00  0.57396205713E+03  0.57396205713E+03  0.00000000000E+00 0.  1.
         -2   -1    0    0    0  501 -0.00000000000E+00 -0.00000000000E+00 -0.34068692394E+02  0.34068692394E+02  0.00000000000E+00 0. -1.
         23    2    1    2    0    0  0.49862705675E+02  0.72426388412E+02  0.26234118405E+03  0.29114615894E+03  0.90616322255E+02 0.  0.
          5    1    1    2  502    0 -0.56843225372E+02  0.14319194759E+02  0.67607985557E+02  0.89579594330E+02  0.41800000000E+01 0. -1.
         -5    1    1    2    0  502  0.69805196970E+01 -0.86745583170E+02  0.20994419512E+03  0.22730499625E+03  0.41800000000E+01 0. -1.
        -11    1    3    3    0    0  0.20887348818E+02  0.69624064624E+02  0.24849887010E+03  0.25891210894E+03  0.00000000000E+00 0. -1.
         11    1    3    3    0    0  0.28975356858E+02  0.28023237873E+01  0.13842313951E+02  0.32234049996E+02  0.00000000000E+00 0.  1.
</event>
<event>
 7    1  0.6145388E-006  0.1302132E+03  0.7561462E-02  0.1227140E+00
          1   -1    0    0  501    0  0.00000000000E+00  0.00000000000E+00  0.67277550711E+03  0.67277550711E+03  0.00000000000E+00 0. -1.
         -1   -1    0    0    0  501 -0.00000000000E+00 -0.00000000000E+00 -0.40452637132E+02  0.40452637132E+02  0.00000000000E+00 0.  1.
         23    2    1    2    0    0  0.60590143221E+02  0.47484790803E+02  0.50358629003E+03  0.51791518427E+03  0.93332822593E+02 0.  0.
          5    1    1    2  502    0 -0.69759576241E+02  0.18885659432E+02  0.36055517961E+02  0.80873601286E+02  0.41800000000E+01 0. -1.
         -5    1    1    2    0  502  0.91694330205E+01 -0.66370450235E+02  0.92681061986E+02  0.11443935869E+03  0.41800000000E+01 0. -1.
        -11    1    3    3    0    0 -0.13651740490E+02  0.44559835789E+02  0.20334314340E+03  0.20861539481E+03  0.00000000000E+00 0.  1.
         11    1    3    3    0    0  0.74241883711E+02  0.29249550143E+01  0.30024314663E+03  0.30929978946E+03  0.00000000000E+00 0. -1.
</event>
<event>
 7    1  0.6145388E-006  0.1079982E+03  0.7561462E-02  0.1264322E+00
         -2   -1    0    0    0  501 -0.00000000000E+00  0.00000000000E+00  0.43468684392E+02  0.43468684392E+02  0.00000000000E+00 0.  1.
          2   -1    0    0  501    0  0.00000000000E+00 -0.00000000000E+00 -0.28822630536E+03  0.28822630536E+03  0.00000000000E+00 0. -1.
         23    2    1    2    0    0 -0.18328453520E+02 -0.19290817791E+01 -0.13695975473E+03  0.16554488465E+03  0.91145383070E+02 0.  0.
          5    1    1    2  502    0  0.21861969323E+02 -0.59848569751E+02 -0.46864000801E+02  0.79205454200E+02  0.41800000000E+01 0. -1.
         -5    1    1    2    0  502 -0.35335158031E+01  0.61777651530E+02 -0.60933865438E+02  0.86944650897E+02  0.41800000000E+01 0. -1.
        -11    1    3    3    0    0 -0.46234433223E+02  0.23945728240E+02 -0.58319388328E+02  0.78180379709E+02  0.00000000000E+00 0.  1.
         11    1    3    3    0    0  0.27905979704E+02 -0.25874810019E+02 -0.78640366401E+02  0.87364504946E+02  0.00000000000E+00 0. -1.
</event>
<event>
 7    1  0.6145388E-006  0.1788482E+03  0.7561462E-02  0.1168922E+00
         -1   -1    0    0    0  501 -0.00000000000E+00  0.00000000000E+00  0.25288785403E+03  0.25288785403E+03  0.00000000000E+00 0.  1.
          1   -1    0    0  501    0  0.00000000000E+00 -0.00000000000E+00 -0.19625227788E+03  0.19625227788E+03  0.00000000000E+00 0. -1.
         23    2    1    2    0    0  0.15423774490E+03 -0.15557825637E+02 -0.90591780989E+02  0.20142521920E+03  0.91290307585E+02 0.  0.
          5    1    1    2  502    0  0.21055693470E+02  0.16606039807E+01  0.66101768385E+01  0.22522581355E+02  0.41800000000E+01 0.  1.
         -5    1    1    2    0  502 -0.17529343837E+03  0.13897221657E+02  0.14061718030E+03  0.22519233135E+03  0.41800000000E+01 0.  1.
        -11    1    3    3    0    0  0.86669233876E+02 -0.28975708374E+02 -0.95730338583E+02  0.13234593119E+03  0.00000000000E+00 0. -1.
         11    1    3    3    0    0  0.67568511021E+02  0.13417882736E+02  0.51385575943E+01  0.69079288017E+02  0.00000000000E+00 0.  1.
</event>
<event>
 7    1  0.6145388E-006  0.1254615E+03  0.7561462E-02  0.1234350E+00
          1   -1    0    0  501    0  0.00000000000E+00  0.00000000000E+00  0.15327711518E+04  0.15327711518E+04  0.00000000000E+00 0. -1.
         -1   -1    0    0    0  501 -0.00000000000E+00 -0.00000000000E+00 -0.14513759987E+02  0.14513759987E+02  0.00000000000E+00 0.  1.
         23    2    1    2    0    0  0.10241139531E+03  0.27313630137E+01  0.68602452317E+03  0.69948962494E+03  0.90335678303E+02 0.  0.
          5    1    1    2  502    0 -0.64930397588E+02 -0.26917673804E+02  0.75674058872E+03  0.76000941356E+03  0.41800000000E+01 0. -1.
         -5    1    1    2    0  502 -0.37480997725E+02  0.24186310790E+02  0.75492279938E+02  0.87785873296E+02  0.41800000000E+01 0. -1.
        -11    1    3    3    0    0  0.10799274640E+02  0.36504309042E+02  0.15870711525E+03  0.16320887642E+03  0.00000000000E+00 0.  1.
         11    1    3    3    0    0  0.91612120673E+02 -0.33772946028E+02  0.52731740791E+03  0.53628074851E+03  0.00000000000E+00 0. -1.
</event>
<event>
 7    1  0.6145388E-006  0.1634953E+03  0.7561462E-02  0.1184806E+00
          1   -1    0    0  501    0  0.00000000000E+00  0.00000000000E+00  0.26994929465E+03  0.26994929465E+03  0.00000000000E+00 0. -1.
         -1   -1    0    0    0  501 -0.00000000000E+00 -0.00000000000E+00 -0.12049568416E+03  0.12049568416E+03  0.00000000000E+00 0.  1.
         23    2    1    2    0    0  0.10434151994E+03  0.66418541264E+02  0.14261933268E+03  0.21439513453E+03  0.10161901520E+03 0.  0.
          5    1    1    2  502    0 -0.92095557796E+02 -0.10032441217E+03  0.19444172313E+02  0.13763040245E+03  0.41800000000E+01 0.  1.
         -5    1    1    2    0  502 -0.12245962144E+02  0.33905870905E+02 -0.12609894495E+02  0.38419441821E+02  0.41800000000E+01 0.  1.
        -11    1    3    3    0    0 -0.12401274333E+02 -0.91250039916E+01  0.26852793316E+00  0.15399006792E+02  0.00000000000E+00 0.  1.
         11    1    3    3    0    0  0.11674279427E+03  0.75543545256E+02  0.14235080475E+03  0.19899612774E+03  0.00000000000E+00 0. -1.
</event>
<event>
 7    1  0.6145388E-006  0.9035860E+02  0.7561462E-02  0.1301986E+00
          1   -1    0    0  501    0  0.00000000000E+00  0.00000000000E+00  0.24484987647E+02  0.24484987647E+02  0.00000000000E+00 0.  1.
         -1   -1    0    0    0  501 -0.00000000000E+00 -0.00000000000E+00 -0.51450470753E+03  0.51450470753E+03  0.00000000000E+00 0. -1.
         23    2    1    2    0    0  0.19702536970E+02  0.24322741949E+02 -0.23919006421E+03  0.25695666535E+03  0.88515847797E+02 0.  0.
          5    1    1    2  502    0  0.15822599284E+02  0.23600011016E+02 -0.51463438551E+01  0.29176573190E+02  0.41800000000E+01 0. -1.
         -5    1    1    2    0  502 -0.35525136253E+02 -0.47922752965E+02 -0.24568331181E+03  0.25285645663E+03  0.41800000000E+01 0. -1.
        -11    1    3    3    0    0 -0.21928614682E+02  0.41677176149E+02 -0.14634523427E+03  0.15373606847E+03  0.00000000000E+00 0.  1.
         11    1    3    3    0    0  0.41631151652E+02 -0.17354434200E+02 -0.92844829937E+02  0.10322059688E+03  0.00000000000E+00 0. -1.
</event>
<event>
 7    1  0.6145388E-006  0.1149803E+03  0.7561462E-02  0.1251615E+00
         -1   -1    0    0    0  501 -0.00000000000E+00  0.00000000000E+00  0.32954734243E+02  0.32954734243E+02  0.00000000000E+00 0.  1.
          1   -1    0    0  501    0  0.00000000000E+00 -0.00000000000E+00 -0.69264859925E+03  0.69264859925E+03  0.00000000000E+00 0. -1.
         23    2    1    2    0    0  0.77714760032E+02 -0.51360698112E+02 -0.41849251471E+03  0.43836981341E+03  0.91403518542E+02 0.  0.
          5    1    1    2  502    0  0.25178769659E+01  0.67582215821E+01  0.13832356573E+02  0.16149914914E+02  0.41800000000E+01 0.  1.
         -5    1    1    2    0  502 -0.80232636998E+02  0.44602476529E+02 -0.25503370687E+03  0.27108360517E+03  0.41800000000E+01 0.  1.
        -11    1    3    3    0    0  0.16984971099E+02 -0.65258920397E+02 -0.24124913142E+03  0.25049622621E+03  0.00000000000E+00 0. -1.
         11    1    3    3    0    0  0.60729788933E+02  0.13898222285E+02 -0.17724338329E+03  0.18787358719E+03  0.00000000000E+00 0.  1.
</event>
<event>
 7    1  0.6145388E-006  0.1413470E+03  0.7561462E-02  0.1211528E+00
         -2   -1    0    0    0  501 -0.00000000000E+00  0.00000000000E+00  0.15182573685E+02  0.15182573685E+02  0.00000000000E+00 0.  1.
          2   -1    0    0  501    0  0.00000000000E+00 -0.00000000000E+00 -0.14737714424E+04  0.14737714424E+04  0.00000000000E+00 0. -1.
         23    2    1    2    0    0 -0.91352302564E+02 -0.44487273358E+02 -0.60456351803E+03  0.61985640928E+03  0.91654569516E+02 0.  0.
          5    1    1    2  502    0  0.77759742955E+02  0.81560216337E+02 -0.48473697787E+03  0.49768067737E+03  0.41800000000E+01 0. -1.
         -5    1    1    2    0  502  0.13592559609E+02 -0.37072942979E+02 -0.36928837286E+03  0.37141692948E+03  0.41800000000E+01 0. -1.
        -11    1    3    3    0    0 -0.24636106705E+02  0.24152603287E+02 -0.88429322315E+02  0.94921183327E+02  0.00000000000E+00 0.  1.
         11    1    3    3    0    0 -0.66716195858E+02 -0.68639876645E+02 -0.51613419571E+03  0.52493522595E+03  0.00000000000E+00 0. -1.
</event>
<event>
 7    1  0.6145388E-006  0.1552799E+03  0.7561462E-02  0.1194131E+00
          2   -1    0    0  501    0  0.00000000000E+00  0.00000000000E+00  0.22186394253E+03  0.22186394253E+03  0.00000000000E+00 0.  1.
         -2   -1    0    0    0  501 -0.00000000000E+00 -0.00000000000E+00 -0.12774561100E+03  0.12774561100E+03  0.00000000000E+00 0. -1.
         23    2    1    2    0    0 -0.96990686901E+01  0.12784201772E+03  0.56779193601E+02  0.16663505976E+03  0.90031732675E+02 0.  0.
          5    1    1    2  502    0  0.47272135638E+02 -0.59746290122E+01  0.27082989021E+02  0.54966459718E+02  0.41800000000E+01 0.  1.
         -5    1    1    2    0  502 -0.37573066948E+02 -0.12186738871E+03  0.10256148912E+02  0.12800803405E+03  0.41800000000E+01 0.  1.
        -11    1    3    3    0    0 -0.24885873030E+02  0.50330627234E+02 -0.16884195068E+02  0.58630663968E+02  0.00000000000E+00 0. -1.
         11    1    3    3    0    0  0.15186804340E+02  0.77511390485E+02  0.73663388669E+02  0.10800439580E+03  0.00000000000E+00 0.  1.
</event>
<event>
 7    1  0.6145388E-006  0.3385615E+03  0.7561462E-02  0.1067410E+00
         -2   -1    0    0    0  501 -0.00000000000E+00  0.00000000000E+00  0.12683968608E+03  0.12683968608E+03  0.00000000000E+00 0.  1.
          2   -1    0    0  501    0  0.00000000000E+00 -0.00000000000E+00 -0.98001040191E+03  0.98001040191E+03  0.00000000000E+00 0. -1.
         23    2    1    2    0    0 -0.24973012246E+03 -0.21816068689E+03 -0.49496704673E+03  0.60295008028E+03  0.92721101111E+02 0.  0.
          5    1    1    2  502    0  0.18513500945E+03  0.13557766151E+03 -0.31657405722E+03  0.39101519168E+03  0.41800000000E+01 0.  1.
         -5    1    1    2    0  502  0.64595113006E+02  0.82583025378E+02 -0.41629611888E+02  0.11288481603E+03  0.41800000000E+01 0.  1.
        -11    1    3    3    0    0 -0.16058859142E+03 -0.82978955240E+02 -0.23167053186E+03  0.29384594270E+03  0.00000000000E+00 0.  1.
         11    1    3    3    0    0 -0.89141531041E+02 -0.13518173165E+03 -0.26329651487E+03  0.30910413758E+03  0.00000000000E+00 0. -1.
</event>
<event>
 7    1  0.6145388E-006  0.1322657E+03  0.7561462E-02  0.1224132E+00
          1   -1    0    0  501    0  0.00000000000E+00  0.00000000000E+00  0.21976947313E+03  0.21976947313E+03  0.00000000000E+00 0. -1.
         -1   -1    0    0    0  501 -0.00000000000E+00 -0.00000000000E+00 -0.91313616581E+02  0.91313616581E+02  0.00000000000E+00 0.  1.
         23    2    1    2    0    0  0.35425829912E+01  0.83915126362E+02  0.10000853529E+03  0.15774922252E+03  0.88480572704E+02 0.  0.
          5    1    1    2  502    0  0.60650344960E+02 -0.41110054216E+02  0.12818366260E+02  0.74500226946E+02  0.41800000000E+01 0.  1.
         -5    1    1    2    0  502 -0.64192927951E+02 -0.42805072146E+02  0.15628954995E+02  0.78833640247E+02  0.41800000000E+01 0.  1.
        -11    1    3    3    0    0  0.32180724901E+02  0.86189859552E+01  0.58021119546E+02  0.66905427937E+02  0.00000000000E+00 0. -1.
         11    1    3    3    0    0 -0.28638141910E+02  0.75296140407E+02  0.41987415747E+02  0.90843794578E+02  0.00000000000E+00 0.  1.
</event>
<event>
 7    1  0.6145388E-006  0.1566297E+03  0.7561462E-02  0.1192555E+00
          2   -1    0    0  501    0  0.00000000000E+00  0.00000000000E+00  0.69474463423E+03  0.69474463423E+03  0.00000000000E+00 0.  1.
         -2   -1    0    0    0  501 -0.00000000000E+00 -0.00000000000E+00 -0.39264668968E+02  0.39264668968E+02  0.00000000000E+00 0. -1.
         23    2    1    2    0    0 -0.49675560424E+02 -0.11361016944E+03  0.32465735151E+03  0.35922241266E+03  0.90903322092E+02 0.  0.
          5    1    1    2  502    0 -0.31867950089E+02  0.80319075108E+02  0.13993349444E+03  0.16451618564E+03  0.41800000000E+01 0. -1.
         -5    1    1    2    0  502  0.81543510514E+02  0.33291094328E+02  0.19088911931E+03  0.21027070490E+03  0.41800000000E+01 0. -1.
        -11    1    3    3    0    0 -0.16088875144E+02  0.37329948702E+01  0.53162768699E+01  0.17350791159E+02  0.00000000000E+00 0. -1.
         11    1    3    3    0    0 -0.33586685281E+02 -0.11734316431E+03  0.31934107464E+03  0.34187162150E+03  0.00000000000E+00 0.  1.
</event>
<event>
 7    1  0.6145388E-006  0.2168631E+03  0.7561462E-02  0.1136244E+00
          3   -1    0    0  501    0  0.00000000000E+00  0.00000000000E+00  0.26203299766E+03  0.26203299766E+03  0.00000000000E+00 0. -1.
         -3   -1    0    0    0  501 -0.00000000000E+00 -0.00000000000E+00 -0.22752032690E+03  0.22752032690E+03  0.00000000000E+00 0.  1.
         23    2    1    2    0    0  0.18698999279E+03 -0.74295676780E+02  0.10051047564E+03  0.24360749167E+03  0.93579641452E+02 0.  0.
          5    1    1    2  502    0 -0.53041852328E+02  0.82501661279E+02 -0.45162910770E+01  0.98274266710E+02  0.41800000000E+01 0.  1.
         -5    1    1    2    0  502 -0.13394814046E+03 -0.82059844994E+01 -0.61481513810E+02  0.14767156617E+03  0.41800000000E+01 0.  1.
        -11    1    3    3    0    0  0.13603881849E+03 -0.51277536979E+02  0.11555212852E+03  0.18571009758E+03  0.00000000000E+00 0. -1.
         11    1    3    3    0    0  0.50951174295E+02 -0.23018139801E+02 -0.15041652879E+02  0.57897394097E+02  0.00000000000E+00 0.  1.
</event>
<event>
 7    1  0.6145388E-006  0.8745901E+02  0.7561462E-02  0.1309124E+00
          2   -1    0    0  501    0  0.00000000000E+00  0.00000000000E+00  0.11469940159E+03  0.11469940159E+03  0.00000000000E+00 0. -1.
         -2   -1    0    0    0  501 -0.00000000000E+00 -0.00000000000E+00 -0.13026188331E+03  0.13026188331E+03  0.00000000000E+00 0.  1.
         23    2    1    2    0    0 -0.57068732316E+00 -0.51941370663E+01  0.47511440981E+02  0.10477143736E+03  0.93233107420E+02 0.  0.
          5    1    1    2  502    0 -0.32088474262E+02 -0.22349645191E+02  0.21881423000E+02  0.45004954095E+02  0.41800000000E+01 0. -1.
         -5    1    1    2    0  502  0.32659161585E+02  0.27543782258E+02 -0.84955345695E+02  0.95184893437E+02  0.41800000000E+01 0. -1.
        -11    1    3    3    0    0 -0.46346019780E+02  0.16702039625E+01  0.30253716564E+02  0.55371748181E+02  0.00000000000E+00 0. -1.
         11    1    3    3    0    0  0.45775332456E+02 -0.68643410288E+01  0.17257724417E+02  0.49399689182E+02  0.00000000000E+00 0.  1.
</event>
<event>
 7    1  0.6145388E-006  0.1412078E+03  0.7561462E-02  0.1211713E+00
         -1   -1    0    0    0  501 -0.00000000000E+00  0.00000000000E+00  0.25325072900E+03  0.25325072900E+03  0.00000000000E+00 0.  1.
          1   -1    0    0  501    0  0.00000000000E+00 -0.00000000000E+00 -0.93831625841E+02  0.93831625841E+02  0.00000000000E+00 0. -1.
         23    2    1    2    0    0 -0.31133345324E+02 -0.10421108881E+03  0.60512718827E+02  0.15405193679E+03  0.90779809799E+02 0.  0.
          5    1    1    2  502    0 -0.41997213247E+02  0.72792377397E+02  0.36122423625E+02  0.91568542722E+02  0.41800000000E+01 0. -1.
         -5    1    1    2    0  502  0.73130558571E+02  0.31418711408E+02  0.62783960704E+02  0.10146187533E+03  0.41800000000E+01 0. -1.
        -11    1    3    3    0    0  0.10642354051E+02 -0.44107727120E+02  0.66617784316E+02  0.80601988056E+02  0.00000000000E+00 0.  1.
         11    1    3    3    0    0 -0.41775699375E+02 -0.60103361685E+02 -0.61050654884E+01  0.73449948732E+02  0.00000000000E+00 0. -1.
</event>
<event>
 7    1  0.6145388E-006  0.1680858E+03  0.7561462E-02  0.1179859E+00
         -2   -1    0    0    0  501 -0.00000000000E+00  0.00000000000E+00  0.11068863101E+04  0.11068863101E+04  0.00000000000E+00 0.  1.
          2   -1    0    0  501    0  0.00000000000E+00 -0.00000000000E+00 -0.39187698323E+02  0.39187698323E+02  0.00000000000E+00 0. -1.
         23    2    1    2    0    0  0.16391587587E+03  0.26480376926E+01  0.33805078332E+03  0.38784897873E+03  0.96296789833E+02 0.  0.
          5    1    1    2  502    0 -0.75657733956E+02 -0.24859423339E+02  0.56010862506E+03  0.56575721640E+03  0.41800000000E+01 0. -1.
         -5    1    1    2    0  502 -0.88258141913E+02  0.22211385646E+02  0.16953920335E+03  0.19246781325E+03  0.41800000000E+01 0. -1.
        -11    1    3    3    0    0  0.10882251409E+03  0.11836280300E+02  0.30236075602E+03  0.32156564475E+03  0.00000000000E+00 0.  1.
         11    1    3    3    0    0  0.55093361779E+02 -0.91882426071E+01  0.35690027302E+02  0.66283333977E+02  0.00000000000E+00 0. -1.
</event>
<event>
 7    1  0.6145388E-006  0.2090253E+03  0.7561462E-02  0.1142340E+00
          1   -1    0    0  501    0  0.00000000000E+00  0.00000000000E+00  0.16165921889E+03  0.16165921889E+03  0.00000000000E+00 0. -1.
         -1   -1    0    0    0  501 -0.00000000000E+00 -0.00000000000E+00 -0.32598613459E+03  0.32598613459E+03  0.00000000000E+00 0.  1.
         23    2    1    2    0    0 -0.37988452823E+02  0.19827849160E+03 -0.74547415519E+02  0.23374206512E+03  0.91217065655E+02 0.  0.
          5    1    1    2  502    0  0.26719372260E+02 -0.13111120265E+03 -0.11952701609E+03  0.17946657708E+03  0.41800000000E+01 0. -1.
         -5    1    1    2    0  502  0.11269080563E+02 -0.67167288959E+02  0.29747515910E+02  0.74436711277E+02  0.41800000000E+01 0. -1.
        -11    1    3    3    0    0 -0.18492696841E+02  0.19535839795E+03 -0.50458785274E+02  0.20261533135E+03  0.00000000000E+00 0. -1.
         11    1    3    3    0    0 -0.19495755982E+02  0.29200936514E+01 -0.24088630245E+02  0.31126733772E+02  0.00000000000E+00 0.  1.
</event>
<event>
 7    1  0.6145388E-006  0.1817585E+03  0.7561462E-02  0.1166112E+00
         -1   -1    0    0    0  501 -0.00000000000E+00  0.00000000000E+00  0.58343775997E+02  0.58343775997E+02  0.00000000000E+00 0.  1.
          1   -1    0    0  501    0  0.00000000000E+00 -0.00000000000E+00 -0.64035469031E+03  0.64035469031E+03  0.00000000000E+00 0. -1.
         23    2    1    2    0    0 -0.75259938878E+02  0.14358453507E+03 -0.29619446280E+03  0.34710103747E+03  0.80420105105E+02 0.  0.
          5    1    1    2  502    0 -0.76489376861E+01 -0.74409097976E+02 -0.20011689725E+03  0.21368075504E+03  0.41800000000E+01 0.  1.
         -5    1    1    2    0  502  0.82908876564E+02 -0.69175437099E+02 -0.85699554261E+02  0.13791667380E+03  0.41800000000E+01 0.  1.
        -11    1    3    3    0    0 -0.88066356494E+02  0.14272146435E+03 -0.28067909248E+03  0.32696460433E+03  0.00000000000E+00 0. -1.
         11    1    3    3    0    0  0.12806417616E+02  0.86307072841E+00 -0.15515370326E+02  0.20136433140E+02  0.00000000000E+00 0.  1.
</event>
<event>
 7    1  0.6145388E-006  0.1004906E+03  0.7561462E-02  0.1279268E+00
         -2   -1    0    0    0  501 -0.00000000000E+00  0.00000000000E+00  0.52070108789E+02  0.52070108789E+02  0.00000000000E+00 0.  1.
          2   -1    0    0  501    0  0.00000000000E+00 -0.00000000000E+00 -0.31410832183E+03  0.31410832183E+03  0.00000000000E+00 0. -1.
         23    2    1    2    0    0  0.25773417132E+02  0.55939030630E+02 -0.15529117548E+03  0.19057350029E+03  0.91703138723E+02 0.  0.
          5    1    1    2  502    0 -0.69321306923E+02 -0.20708907752E+01 -0.61280835995E+02  0.92642028488E+02  0.41800000000E+01 0. -1.
         -5    1    1    2    0  502  0.43547889791E+02 -0.53868139855E+02 -0.45466201556E+02  0.82962901834E+02  0.41800000000E+01 0. -1.
        -11    1    3    3    0    0  0.10408932147E+02  0.14017306904E+02  0.94752089943E+01  0.19864801705E+02  0.00000000000E+00 0.  1.
         11    1    3    3    0    0  0.15364484985E+02  0.41921723726E+02 -0.16476638448E+03  0.17070869859E+03  0.00000000000E+00 0. -1.
</event>
<event>
 7    1  0.6145388E-006  0.7972541E+02  0.7561462E-02  0.1329832E+00
          1   -1    0    0  501    0  0.00000000000E+00  0.00000000000E+00  0.39135980911E+02  0.39135980911E+02  0.00000000000E+00 0. -1.
         -1   -1    0    0    0  501 -0.00000000000E+00 -0.00000000000E+00 -0.52109512560E+03  0.52109512560E+03  0.00000000000E+00 0.  1.
         23    2    1    2    0    0 -0.27476936644E+02  0.25290389242E+02 -0.52474302968E+02  0.11134457348E+03  0.90826624602E+02 0.  0.
          5    1    1    2  502    0  0.53936045438E+02 -0.50911534527E+02 -0.37924504292E+03  0.38645226914E+03  0.41800000000E+01 0.  1.
         -5    1    1    2    0  502 -0.26459108795E+02  0.25621145285E+02 -0.50239798809E+02  0.62434263897E+02  0.41800000000E+01 0.  1.
        -11    1    3    3    0    0 -0.92630572857E+01  0.28172132554E+02 -0.75925429078E+02  0.81511619194E+02  0.00000000000E+00 0.  1.
         11    1    3    3    0    0 -0.18213879358E+02 -0.28817433121E+01  0.23451126109E+02  0.29832954289E+02  0.00000000000E+00 0. -1.
</event>
<event>
 7    1  0.6145388E-006  0.1267788E+03  0.7561462E-02  0.1232315E+00
         -1   -1    0    0    0  501 -0.00000000000E+00  0.00000000000E+00  0.86051737666E+02  0.86051737666E+02  0.00000000000E+00 0.  1.
          1   -1    0    0  501    0  0.00000000000E+00 -0.00000000000E+00 -0.22286404024E+03  0.22286404024E+03  0.00000000000E+00 0. -1.
         23    2    1    2    0    0 -0.83325031349E+02  0.17275728345E+02 -0.76036892643E+02  0.14587339611E+03  0.90862131886E+02 0.  0.
          5    1    1    2  502    0  0.53906869894E+02  0.45403386284E+02  0.32442243519E+00  0.70604502389E+02  0.41800000000E+01 0. -1.
         -5    1    1    2    0  502  0.29418161455E+02 -0.62679114628E+02 -0.61099832368E+02  0.92437879408E+02  0.41800000000E+01 0. -1.
        -11    1    3    3    0    0 -0.59490606200E+02  0.46765348055E+02 -0.76979674971E+02  0.10794443183E+03  0.00000000000E+00 0. -1.
         11    1    3    3    0    0 -0.23834425150E+02 -0.29489619710E+02  0.94278232772E+00  0.37928964280E+02  0.00000000000E+00 0.  1.
</event>
<event>
 7    1  0.6145388E-006  0.8937997E+02  0.7561462E-02  0.1304360E+00
          1   -1    0    0  501    0  0.00000000000E+00  0.00000000000E+00  0.13752976578E+03  0.13752976578E+03  0.00000000000E+00 0. -1.
         -1   -1    0    0    0  501 -0.00000000000E+00 -0.00000000000E+00 -0.11507344102E+03  0.11507344102E+03  0.00000000000E+00 0.  1.
         23    2    1    2    0    0 -0.25957820560E+02 -0.26778396172E+01  0.68432617201E+02  0.11680376842E+03  0.90989658457E+02 0.  0.
          5    1    1    2  502    0 -0.40344889774E+02 -0.12967085015E+02  0.14117512904E+02  0.44862367250E+02  0.41800000000E+01 0. -1.
         -5    1    1    2    0  502  0.66302710334E+02  0.15644924632E+02 -0.60093805350E+02  0.90937071131E+02  0.41800000000E+01 0. -1.
        -11    1    3    3    0    0 -0.21002101928E+02 -0.31950956913E+02 -0.40760392142E+01  0.38452126453E+02  0.00000000000E+00 0.  1.
         11    1    3    3    0    0 -0.49557186323E+01  0.29273117296E+02  0.72508656415E+02  0.78351641964E+02  0.00000000000E+00 0. -1.
</event>
<event>
 7    1  0.6145388E-006  0.1298545E+03  0.7561462E-02  0.1227672E+00
         -1   -1    0    0    0  501 -0.00000000000E+00  0.00000000000E+00  0.30463704974E+03  0.30463704974E+03  0.00000000000E+00 0.  1.
          1   -1    0    0  501    0  0.00000000000E+00 -0.00000000000E+00 -0.67113628718E+02  0.67113628718E+02  0.00000000000E+00 0. -1.
         23    2    1    2    0    0  0.59223766757E+02 -0.65242603188E+02  0.67164124308E+02  0.14276681125E+03  0.90040496336E+02 0.  0.
          5    1    1    2  502    0 -0.60461374066E+02 -0.19775674920E+02  0.99751979532E+02  0.11838321204E+03  0.41800000000E+01 0. -1.
         -5    1    1    2    0  502  0.12376073089E+01  0.85018278108E+02  0.70607317187E+02  0.11060065517E+03  0.41800000000E+01 0. -1.
        -11    1    3    3    0    0  0.39494015153E+02  0.31764600017E+01 -0.66828710387E+01  0.40181188339E+02  0.00000000000E+00 0. -1.
         11    1    3    3    0    0  0.19729751604E+02 -0.68419063189E+02  0.73846995346E+02  0.10258562291E+03  0.00000000000E+00 0.  1.
</event>
<event>
 7    1  0.6145388E-006  0.1138729E+03  0.7561462E-02  0.1253561E+00
          3   -1    0    0  501    0  0.00000000000E+00  0.00000000000E+00  0.27674804518E+03  0.27674804518E+03  0.00000000000E+00 0.  1.
         -3   -1    0    0    0  501 -0.00000000000E+00 -0.00000000000E+00 -0.74692350643E+02  0.74692350643E+02  0.00000000000E+00 0. -1.
         23    2    1    2    0    0 -0.62019799707E+02 -0.32406184303E+02  0.16692804789E+03  0.20386721734E+03  0.93809662594E+02 0.  0.
          5    1    1    2  502    0  0.32835112899E+02  0.74410216125E+02 -0.62100593131E+01  0.81676570322E+02  0.41800000000E+01 0. -1.
         -5    1    1    2    0  502  0.29184686808E+02 -0.42004031823E+02  0.41337705960E+02  0.65896608164E+02  0.41800000000E+01 0. -1.
        -11    1    3    3    0    0  0.11562130764E+02 -0.15759551585E+02 -0.12063874276E+01  0.19583199549E+02  0.00000000000E+00 0. -1.
         11    1    3    3    0    0 -0.73581930471E+02 -0.16646632718E+02  0.16813443532E+03  0.18428401779E+03  0.00000000000E+00 0.  1.
</event>
<event>
 7    1  0.6145388E-006  0.1223437E+03  0.7561462E-02  0.1239280E+00
          1   -1    0    0  501    0  0.00000000000E+00  0.00000000000E+00  0.21245493499E+02  0.21245493499E+02  0.00000000000E+00 0. -1.
         -1   -1    0    0    0  501 -0.00000000000E+00 -0.00000000000E+00 -0.97009697030E+03  0.97009697030E+03  0.00000000000E+00 0.  1.
         23    2    1    2    0    0  0.42679896643E+02  0.58441093654E+02 -0.23500385309E+03  0.26301360117E+03  0.93340282991E+02 0.  0.
          5    1    1    2  502    0 -0.84972918611E+02 -0.45213109166E+02 -0.40566996374E+03  0.41695349144E+03  0.41800000000E+01 0.  1.
         -5    1    1    2    0  502  0.42293021968E+02 -0.13227984489E+02 -0.30817765996E+03  0.31137537119E+03  0.41800000000E+01 0.  1.
        -11    1    3    3    0    0  0.55029327260E+02  0.68528199903E+02 -0.23012742013E+03  0.24633913724E+03  0.00000000000E+00 0.  1.
         11    1    3    3    0    0 -0.12349430617E+02 -0.10087106248E+02 -0.48764329636E+01  0.16674463934E+02  0.00000000000E+00 0. -1.
</event>
<event>
 7    1  0.6145388E-006  0.1316752E+03  0.7561462E-02  0.1224991E+00
          1   -1    0    0  501    0  0.00000000000E+00  0.00000000000E+00  0.83162677520E+03  0.83162677520E+03  0.00000000000E+00 0. -1.
         -1   -1    0    0    0  501 -0.00000000000E+00 -0.00000000000E+00 -0.29714943752E+02  0.29714943752E+02  0.00000000000E+00 0.  1.
         23    2    1    2    0    0 -0.35580799956E+02 -0.10122079261E+03  0.46417884098E+03  0.48554506063E+03  0.93703614139E+02 0.  0.
          5    1    1    2  502    0 -0.22062311420E+02  0.30135776020E+02  0.15259044900E+02  0.40561329278E+02  0.41800000000E+01 0.  1.
         -5    1    1    2    0  502  0.57643111376E+02  0.71085016590E+02  0.32247394556E+03  0.33523532905E+03  0.41800000000E+01 0.  1.
        -11    1    3    3    0    0  0.17278831319E+02 -0.71403433922E+02  0.17037937970E+03  0.18554282905E+03  0.00000000000E+00 0.  1.
         11    1    3    3    0    0 -0.52859631275E+02 -0.29817358688E+02  0.29379946128E+03  0.30000223157E+03  0.00000000000E+00 0. -1.
</event>
<event>
 7    1  0.6145388E-006  0.1942828E+03  0.7561462E-02  0.1154654E+00
         -2   -1    0    0    0  501 -0.00000000000E+00  0.00000000000E+00  0.22799904954E+03  0.22799904954E+03  0.00000000000E+00 0.  1.
          2   -1    0    0  501    0  0.00000000000E+00 -0.00000000000E+00 -0.17259112772E+03  0.17259112772E+03  0.00000000000E+00 0. -1.
         23    2    1    2    0    0  0.63285788318E+02  0.15308594047E+03  0.31896831203E+02  0.19168882161E+03  0.91031864284E+02 0.  0.
          5    1    1    2  502    0 -0.81597111043E+02 -0.44379006309E+02  0.31815866981E+02  0.98271595710E+02  0.41800000000E+01 0.  1.
         -5    1    1    2    0  502  0.18311322726E+02 -0.10870693416E+03 -0.83047763575E+01  0.11062975994E+03  0.41800000000E+01 0.  1.
        -11    1    3    3    0    0 -0.18919989227E+02  0.13384013960E+02 -0.84178654129E+01  0.24656810016E+02  0.00000000000E+00 0.  1.
         11    1    3    3    0    0  0.82205777545E+02  0.13970192651E+03  0.40314696616E+02  0.16703201159E+03  0.00000000000E+00 0. -1.
</event>
<event>
 7    1  0.6145388E-006  0.7844050E+02  0.7561462E-02  0.1333536E+00
          1   -1    0    0  501    0  0.00000000000E+00  0.00000000000E+00  0.61139243372E+03  0.61139243372E+03  0.00000000000E+00 0. -1.
         -1   -1    0    0    0  501 -0.00000000000E+00 -0.00000000000E+00 -0.23204188522E+02  0.23204188522E+02  0.00000000000E+00 0.  1.
         23    2    1    2    0    0 -0.16841451207E+02 -0.43289896090E+02  0.27191567338E+03  0.29132775750E+03  0.93680730569E+02 0.  0.
          5    1    1    2  502    0 -0.20288120991E+01  0.26983578899E+02  0.31679495876E+03  0.31797601781E+03  0.41800000000E+01 0. -1.
         -5    1    1    2    0  502  0.18870263306E+02  0.16306317190E+02 -0.52238694057E+00  0.25292846927E+02  0.41800000000E+01 0. -1.
        -11    1    3    3    0    0 -0.14041899899E+02 -0.73016640278E+02  0.20441954910E+03  0.21752231326E+03  0.00000000000E+00 0. -1.
         11    1    3    3    0    0 -0.27995513075E+01  0.29726744189E+02  0.67496124278E+02  0.73805444245E+02  0.00000000000E+00 0.  1.
</event>
<event>
 7    1  0.6145388E-006  0.1293680E+03  0.7561462E-02  0.1228397E+00
         -2   -1    0    0    0  501 -0.00000000000E+00  0.00000000000E+00  0.15125322800E+03  0.15125322800E+03  0.00000000000E+00 0.  1.
          2   -1    0    0  501    0  0.00000000000E+00 -0.00000000000E+00 -0.27403457982E+03  0.27403457982E+03  0.00000000000E+00 0. -1.
         23    2    1    2    0    0 -0.43130993643E+02  0.68589491530E+02 -0.19229066212E+03  0.22767935816E+03  0.91090012793E+02 0.  0.
          5    1    1    2  502    0 -0.56776641131E+02 -0.21324302589E+02 -0.97075791254E+01  0.61563157420E+02  0.41800000000E+01 0. -1.
         -5    1    1    2    0  502  0.99907634774E+02 -0.47265188941E+02  0.79216889422E+02  0.13604529224E+03  0.41800000000E+01 0.  1.
        -11    1    3    3    0    0  0.53567074760E+01  0.94677431013E+01  0.78601481197E+01  0.13420670731E+02  0.00000000000E+00 0.  1.
         11    1    3    3    0    0 -0.48487701119E+02  0.59121748428E+02 -0.20015081024E+03  0.21425868743E+03  0.00000000000E+00 0. -1.
</event>
<event>
 7    1  0.6145388E-006  0.1405599E+03  0.7561462E-02  0.1212578E+00
          2   -1    0    0  501    0  0.00000000000E+00  0.00000000000E+00  0.34036008883E+03  0.34036008883E+03  0.00000000000E+00 0. -1.
         -2   -1    0    0    0  501 -0.00000000000E+00 -0.00000000000E+00 -0.66005543525E+02  0.66005543525E+02  0.00000000000E+00 0.  1.
         23    2    1    2    0    0 -0.36510500992E+02  0.77901515564E+02  0.17345336110E+03  0.22407453836E+03  0.11279036950E+03 0.  0.
          5    1    1    2  502    0  0.78187758563E+02 -0.54169586466E+02  0.36687591107E+02  0.10203490299E+03  0.41800000000E+01 0. -1.
         -5    1    1    2    0  502 -0.41677257571E+02 -0.23731929098E+02  0.64213593097E+02  0.80256191012E+02  0.41800000000E+01 0. -1.
        -11    1    3    3    0    0  0.32659812271E+02 -0.12072870622E+01  0.66707423218E+02  0.74283249741E+02  0.00000000000E+00 0. -1.
         11    1    3    3    0    0 -0.69170313263E+02  0.79108802626E+02  0.10674593789E+03  0.14979128862E+03  0.00000000000E+00 0.  1.
</event>
<event>
 7    1  0.6145388E-006  0.8794476E+02  0.7561462E-02  0.1307906E+00
          1   -1    0    0  501    0  0.00000000000E+00  0.00000000000E+00  0.13806553356E+03  0.13806553356E+03  0.00000000000E+00 0. -1.
         -1   -1    0    0    0  501 -0.00000000000E+00 -0.00000000000E+00 -0.10786337894E+03  0.10786337894E+03  0.00000000000E+00 0.  1.
         23    2    1    2    0    0  0.38473069460E+02 -0.10902814136E+02  0.52926518171E+02  0.11265063874E+03  0.91048897047E+02 0.  0.
          5    1    1    2  502    0 -0.25020477093E+02 -0.27143010527E+02  0.42510522798E+02  0.56456923782E+02  0.41800000000E+01 0. -1.
         -5    1    1    2    0  502 -0.13452592368E+02  0.38045824664E+02 -0.65234886346E+02  0.76821349978E+02  0.41800000000E+01 0. -1.
        -11    1    3    3    0    0 -0.26123946652E+02  0.13138953432E+02  0.77934753385E+01  0.30262698885E+02  0.00000000000E+00 0. -1.
         11    1    3    3    0    0  0.64597016112E+02 -0.24041767568E+02  0.45133042833E+02  0.82387939856E+02  0.00000000000E+00 0.  1.
</event>
<event>
 7    1  0.6145388E-006  0.2151891E+03  0.7561462E-02  0.1137521E+00
         -1   -1    0    0    0  501 -0.00000000000E+00  0.00000000000E+00  0.11621300109E+03  0.11621300109E+03  0.00000000000E+00 0.  1.
          1   -1    0    0  501    0  0.00000000000E+00 -0.00000000000E+00 -0.46339979820E+03  0.46339979820E+03  0.00000000000E+00 0. -1.
         23    2    1    2    0    0 -0.84498711798E+02 -0.18602772899E+03 -0.19299330556E+03  0.29470990016E+03  0.88663188587E+02 0.  0.
          5    1    1    2  502    0  0.42747668438E+02  0.45888745747E+02  0.11474669224E+02  0.63892727105E+02  0.41800000000E+01 0. -1.
         -5    1    1    2    0  502  0.41751043360E+02  0.14013898324E+03 -0.16566816077E+03  0.22101017203E+03  0.41800000000E+01 0. -1.
        -11    1    3    3    0    0  0.12199613880E+02 -0.65934479918E+02 -0.74654243300E+02  0.10034661062E+03  0.00000000000E+00 0.  1.
         11    1    3    3    0    0 -0.96698325678E+02 -0.12009324907E+03 -0.11833906226E+03  0.19436328953E+03  0.00000000000E+00 0. -1.
</event>
<event>
 7    1  0.6145388E-006  0.1167105E+03  0.7561462E-02  0.1248624E+00
          2   -1    0    0  501    0  0.00000000000E+00  0.00000000000E+00  0.66119777752E+02  0.66119777752E+02  0.00000000000E+00 0. -1.
         -2   -1    0    0    0  501 -0.00000000000E+00 -0.00000000000E+00 -0.64162003279E+03  0.64162003279E+03  0.00000000000E+00 0.  1.
         23    2    1    2    0    0 -0.45532919873E+02 -0.12570703807E+02  0.20309348778E+01  0.10289658443E+03  0.91390989734E+02 0.  0.
          5    1    1    2  502    0  0.62925322605E+02 -0.40272038630E+02 -0.10446244702E+03  0.12849633675E+03  0.41800000000E+01 0. -1.
         -5    1    1    2    0  502 -0.17392402731E+02  0.52842742437E+02 -0.47306874289E+03  0.47634688936E+03  0.41800000000E+01 0.  1.
        -11    1    3    3    0    0  0.28127517336E+02 -0.28415985960E+00 -0.11296689319E+01  0.28151627487E+02  0.00000000000E+00 0.  1.
         11    1    3    3    0    0 -0.73660437209E+02 -0.12286543947E+02  0.31606038097E+01  0.74744956943E+02  0.00000000000E+00 0. -1.
</event>
<event>
 7    1  0.6145388E-006  0.9564516E+02  0.7561462E-02  0.1289730E+00
          2   -1    0    0  501    0  0.00000000000E+00  0.00000000000E+00  0.24809207814E+03  0.24809207814E+03  0.00000000000E+00 0. -1.
         -2   -1    0    0    0  501 -0.00000000000E+00 -0.00000000000E+00 -0.56968343817E+02  0.56968343817E+02  0.00000000000E+00 0.  1.
         23    2    1    2    0    0  0.16368834358E+02 -0.48754245348E+02  0.92098522644E+02  0.13743243510E+03  0.88094387823E+02 0.  0.
          5    1    1    2  502    0 -0.23273195630E+02 -0.27361995781E+02 -0.70256676013E+01  0.36839555551E+02  0.41800000000E+01 0.  1.
         -5    1    1    2    0  502  0.69043612721E+01  0.76116241129E+02  0.10605087928E+03  0.13078843131E+03  0.41800000000E+01 0.  1.
        -11    1    3    3    0    0 -0.11922549756E+02 -0.48858720812E+02  0.96482251146E+02  0.10880324709E+03  0.00000000000E+00 0. -1.
         11    1    3    3    0    0  0.28291384113E+02  0.10447546324E+00 -0.43837285016E+01  0.28629188003E+02  0.00000000000E+00 0.  1.
</event>
<event>
 7    1  0.6145388E-006  0.1314406E+03  0.7561462E-02  0.1225334E+00
          1   -1    0    0  501    0  0.00000000000E+00  0.00000000000E+00  0.30497506356E+02  0.30497506356E+02  0.00000000000E+00 0. -1.
         -1   -1    0    0    0  501 -0.00000000000E+00 -0.00000000000E+00 -0.77148559498E+03  0.77148559498E+03  0.00000000000E+00 0.  1.
         23    2    1    2    0    0  0.99793396983E+02  0.62946291224E+01 -0.37852153462E+03  0.40571121126E+03  0.10641752834E+03 0.  0.
          5    1    1    2  502    0 -0.71563406939E+01  0.19271912095E+02  0.28817367765E+00  0.20980353953E+02  0.41800000000E+01 0.  1.
         -5    1    1    2    0  502 -0.92637056289E+02 -0.25566541217E+02 -0.36275472768E+03  0.37529153612E+03  0.41800000000E+01 0.  1.
        -11    1    3    3    0    0  0.21492114249E+02  0.51143498655E+02 -0.15718549665E+03  0.16668787834E+03  0.00000000000E+00 0.  1.
         11    1    3    3    0    0  0.78301282734E+02 -0.44848869533E+02 -0.22133603797E+03  0.23902333292E+03  0.00000000000E+00 0. -1.
</event>
<event>
 7    1  0.6145388E-006  0.1066189E+03  0.7561462E-02  0.1266962E+00
          1   -1    0    0  501    0  0.00000000000E+00  0.00000000000E+00  0.69088993967E+02  0.69088993967E+02  0.00000000000E+00 0. -1.
         -1   -1    0    0    0  501 -0.00000000000E+00 -0.00000000000E+00 -0.29433867013E+03  0.29433867013E+03  0.00000000000E+00 0.  1.
         23    2    1    2    0    0  0.80687054561E+02 -0.16527326695E+01 -0.49303552803E+02  0.13295502587E+03  0.93450876322E+02 0.  0.
          5    1    1    2  502    0  0.14896823206E+02 -0.52678549422E+01 -0.11645705277E+03  0.11759839785E+03  0.41800000000E+01 0.  1.
         -5    1    1    2    0  502 -0.95583877767E+02  0.69205876117E+01 -0.59489070595E+02  0.11287424038E+03  0.41800000000E+01 0.  1.
        -11    1    3    3    0    0  0.17264958545E+02 -0.27508926708E+02  0.17829501761E+02  0.37050114375E+02  0.00000000000E+00 0. -1.
         11    1    3    3    0    0  0.63422096017E+02  0.25856194038E+02 -0.67133054564E+02  0.95904911492E+02  0.00000000000E+00 0.  1.
</event>
<event>
 7    1  0.6145388E-006  0.1349970E+03  0.7561462E-02  0.1220224E+00
         -2   -1    0    0    0  501 -0.00000000000E+00  0.00000000000E+00  0.35745310728E+03  0.35745310728E+03  0.00000000000E+00 0.  1.
          2   -1    0    0  501    0  0.00000000000E+00 -0.00000000000E+00 -0.69060976123E+02  0.69060976123E+02  0.00000000000E+00 0. -1.
         23    2    1    2    0    0 -0.86467587549E+02 -0.28239304546E+02  0.44895143759E+02  0.13804547638E+03  0.93631605760E+02 0.  0.
          5    1    1    2  502    0  0.23558864858E+02  0.63144477276E+02  0.18061868556E+03  0.19282849141E+03  0.41800000000E+01 0. -1.
         -5    1    1    2    0  502  0.62908722691E+02 -0.34905172731E+02  0.62878301836E+02  0.95640115620E+02  0.41800000000E+01 0. -1.
        -11    1    3    3    0    0 -0.98397061379E+02 -0.46310050873E+02  0.35048369059E+02  0.11425843808E+03  0.00000000000E+00 0.  1.
         11    1    3    3    0    0  0.11929473830E+02  0.18070746328E+02  0.98467747003E+01  0.23787038292E+02  0.00000000000E+00 0. -1.
</event>
<event>
 7    1  0.6145388E-006  0.1222652E+03  0.7561462E-02  0.1239406E+00
         -2   -1    0    0    0  501 -0.00000000000E+00  0.00000000000E+00  0.18075506593E+02  0.18075506593E+02  0.00000000000E+00 0.  1.
          2   -1    0    0  501    0  0.00000000000E+00 -0.00000000000E+00 -0.10765735665E+04  0.10765735665E+04  0.00000000000E+00 0. -1.
         23    2    1    2    0    0 -0.51528848202E+02  0.65770511512E+02 -0.58453958999E+03  0.59739163849E+03  0.90604939651E+02 0.  0.
          5    1    1    2  502    0 -0.13077157019E+01  0.21052194727E+02 -0.12823680519E+02  0.25036457522E+02  0.41800000000E+01 0. -1.
         -5    1    1    2    0  502  0.52836563904E+02 -0.86822706239E+02 -0.46113478940E+03  0.47222097708E+03  0.41800000000E+01 0. -1.
        -11    1    3    3    0    0 -0.38726017749E+02 -0.13497028996E+02 -0.15050464315E+03  0.15599205701E+03  0.00000000000E+00 0.  1.
         11    1    3    3    0    0 -0.12802830454E+02  0.79267540508E+02 -0.43403494684E+03  0.44139958148E+03  0.00000000000E+00 0. -1.
</event>
<event>
 7    1  0.6145388E-006  0.1354537E+03  0.7561462E-02  0.1219581E+00
          1   -1    0    0  501    0  0.00000000000E+00  0.00000000000E+00  0.28446990000E+03  0.28446990000E+03  0.00000000000E+00 0. -1.
         -1   -1    0    0    0  501 -0.00000000000E+00 -0.00000000000E+00 -0.98181570621E+02  0.98181570621E+02  0.00000000000E+00 0.  1.
         23    2    1    2    0    0  0.11161274450E+03 -0.87887118643E+01  0.16835171871E+03  0.22235999732E+03  0.92558203449E+02 0.  0.
          5    1    1    2  502    0  0.92615720460E+01 -0.28330193699E+01 -0.28366280924E+02  0.30264186904E+02  0.41800000000E+01 0. -1.
         -5    1    1    2    0  502 -0.12087431654E+03  0.11621731234E+02  0.46302891591E+02  0.13002728639E+03  0.41800000000E+01 0.  1.
        -11    1    3    3    0    0  0.11037665648E+03 -0.32538640359E+02  0.10933709496E+03  0.15873364403E+03  0.00000000000E+00 0. -1.
         11    1    3    3    0    0  0.12360880188E+01  0.23749928495E+02  0.59014623753E+02  0.63626353297E+02  0.00000000000E+00 0.  1.
</event>
<event>
 7    1  0.6145388E-006  0.1010399E+03  0.7561462E-02  0.1278124E+00
          2   -1    0    0  501    0  0.00000000000E+00  0.00000000000E+00  0.17601756199E+02  0.17601756199E+02  0.00000000000E+00 0. -1.
         -2   -1    0    0    0  501 -0.00000000000E+00 -0.00000000000E+00 -0.68511182776E+03  0.68511182776E+03  0.00000000000E+00 0.  1.
         23    2    1    2    0    0  0.10217979833E+00 -0.11243099591E+02 -0.26921116072E+03  0.28508228405E+03  0.93117355485E+02 0.  0.
          5    1    1    2  502    0 -0.24573586155E+01  0.59581953234E+02 -0.10930908066E+03  0.12458729982E+03  0.41800000000E+01 0. -1.
         -5    1    1    2    0  502  0.23551788172E+01 -0.48338853643E+02 -0.28898983019E+03  0.29304400009E+03  0.41800000000E+01 0. -1.
        -11    1    3    3    0    0  0.16402856430E+02  0.38248642650E+02 -0.12500315660E+03  0.13174900958E+03  0.00000000000E+00 0. -1.
         11    1    3    3    0    0 -0.16300676631E+02 -0.49491742241E+02 -0.14420800412E+03  0.15333327447E+03  0.00000000000E+00 0.  1.
</event>
<event>
 7    1  0.6145388E-006  0.9159448E+02  0.7561462E-02  0.1299036E+00
          2   -1    0    0  501    0  0.00000000000E+00  0.00000000000E+00  0.16403544578E+03  0.16403544578E+03  0.00000000000E+00 0. -1.
         -2   -1    0    0    0  501 -0.00000000000E+00 -0.00000000000E+00 -0.82517752301E+02  0.82517752301E+02  0.00000000000E+00 0.  1.
         23    2    1    2    0    0 -0.90910683933E+00 -0.20563018060E+02  0.76147764114E+02  0.11967634308E+03  0.90001560690E+02 0.  0.
          5    1    1    2  502    0  0.47423726363E+02  0.16674709107E+02  0.43384362692E+02  0.66533683741E+02  0.41800000000E+01 0.  1.
         -5    1    1    2    0  502 -0.46514619524E+02  0.38883089534E+01 -0.38014433329E+02  0.60343171257E+02  0.41800000000E+01 0.  1.
        -11    1    3    3    0    0  0.35613467469E+02  0.11352826984E+02  0.55608810837E+02  0.67004071431E+02  0.00000000000E+00 0. -1.
         11    1    3    3    0    0 -0.36522574309E+02 -0.31915845044E+02  0.20538953277E+02  0.52672271650E+02  0.00000000000E+00 0.  1.
</event>
<event>
 7    1  0.6145388E-006  0.7935235E+02  0.7561462E-02  0.1330899E+00
         -1   -1    0    0    0  501 -0.00000000000E+00  0.00000000000E+00  0.18868296003E+03  0.18868296003E+03  0.00000000000E+00 0.  1.
          1   -1    0    0  501    0  0.00000000000E+00 -0.00000000000E+00 -0.72935516312E+02  0.72935516312E+02  0.00000000000E+00 0. -1.
         23    2    1    2    0    0 -0.44858952122E+01  0.23807814645E+02 -0.25780808024E+01  0.94373958645E+02  0.91174899373E+02 0.  0.
          5    1    1    2  502    0 -0.47323631763E+02 -0.18010283726E+02  0.99387792792E+02  0.11162124439E+03  0.41800000000E+01 0. -1.
         -5    1    1    2    0  502  0.51809526975E+02 -0.57975309181E+01  0.18937731725E+02  0.55623273304E+02  0.41800000000E+01 0.  1.
        -11    1    3    3    0    0  0.22567338013E+02  0.15195203369E+02  0.36839248444E+02  0.45796388246E+02  0.00000000000E+00 0.  1.
         11    1    3    3    0    0 -0.27053233225E+02  0.86126112751E+01 -0.39417329247E+02  0.48577570399E+02  0.00000000000E+00 0. -1.
</event>
<event>
 7    1  0.6145388E-006  0.2472890E+03  0.7561462E-02  0.1115030E+00
          2   -1    0    0  501    0  0.00000000000E+00  0.00000000000E+00  0.86312054690E+03  0.86312054690E+03  0.00000000000E+00 0. -1.
         -2   -1    0    0    0  501 -0.00000000000E+00 -0.00000000000E+00 -0.83106988636E+02  0.83106988636E+02  0.00000000000E+00 0.  1.
         23    2    1    2    0    0  0.23606239448E+03  0.62587778011E+02  0.38769610110E+03  0.46747585794E+03  0.92643007882E+02 0.  0.
          5    1    1    2  502    0 -0.16599420998E+03 -0.63414355248E+02  0.35996605353E+03  0.40145795582E+03  0.41800000000E+01 0.  1.
         -5    1    1    2    0  502 -0.70068184495E+02  0.82657723722E+00  0.32351403640E+02  0.77293721775E+02  0.41800000000E+01 0.  1.
        -11    1    3    3    0    0  0.97332585239E+02  0.43458525057E+02  0.24673245365E+03  0.26877347197E+03  0.00000000000E+00 0.  1.
         11    1    3    3    0    0  0.13872980924E+03  0.19129252954E+02  0.14096364745E+03  0.19870238597E+03  0.00000000000E+00 0. -1.
</event>
<event>
 7    1  0.6145388E-006  0.1257625E+03  0.7561462E-02  0.1233882E+00
         -1   -1    0    0    0  501 -0.00000000000E+00  0.00000000000E+00  0.20815954555E+03  0.20815954555E+03  0.00000000000E+00 0.  1.
          1   -1    0    0  501    0  0.00000000000E+00 -0.00000000000E+00 -0.13322568669E+03  0.13322568669E+03  0.00000000000E+00 0. -1.
         23    2    1    2    0    0  0.11848774053E+03 -0.10182819894E+02 -0.91341660555E+01  0.14940137252E+03  0.89968342458E+02 0.  0.
          5    1    1    2  502    0 -0.40231713394E+02 -0.20701149586E+02  0.96666830065E+02  0.10681328003E+03  0.41800000000E+01 0.  1.
         -5    1    1    2    0  502 -0.78256027133E+02  0.30883969480E+02 -0.12598805140E+02  0.85170579688E+02  0.41800000000E+01 0.  1.
        -11    1    3    3    0    0  0.92591038255E+02 -0.18955194313E+02 -0.44692825852E+02  0.10454591546E+03  0.00000000000E+00 0. -1.
         11    1    3    3    0    0  0.25896702272E+02  0.87723744189E+01  0.35558659796E+02  0.44855457059E+02  0.00000000000E+00 0.  1.
</event>
<event>
 7    1  0.7960504E-006  0.4528558E+03  0.7561462E-02  0.1026874E+00
         -2   -1    0    0    0  501 -0.00000000000E+00  0.00000000000E+00  0.11549300652E+03  0.11549300652E+03  0.00000000000E+00 0. -1.
          2   -1    0    0  501    0  0.00000000000E+00 -0.00000000000E+00 -0.18258659943E+04  0.18258659943E+04  0.00000000000E+00 0.  1.
         23    2    1    2    0    0 -0.44436752580E+03 -0.18867318232E+02 -0.77028732795E+03  0.89387305818E+03  0.88588954472E+02 0.  0.
          5    1    1    2  502    0  0.19077107381E+03 -0.50939154130E+02 -0.36233402968E+03  0.41266429636E+03  0.41800000000E+01 0. -1.
         -5    1    1    2    0  502  0.25359645199E+03  0.69806472362E+02 -0.57775163011E+03  0.63482164625E+03  0.41800000000E+01 0. -1.
        -11    1    3    3    0    0 -0.30340533506E+02 -0.59727295489E+01 -0.19978246227E+02  0.36815102798E+02  0.00000000000E+00 0. -1.
         11    1    3    3    0    0 -0.41402699229E+03 -0.12894588683E+02 -0.75030908173E+03  0.85705795538E+03  0.00000000000E+00 0.  1.
</event>
<event>
 7    1  0.6145388E-006  0.1147226E+03  0.7561462E-02  0.1252066E+00
         -2   -1    0    0    0  501 -0.00000000000E+00  0.00000000000E+00  0.35778760131E+02  0.35778760131E+02  0.00000000000E+00 0. -1.
          2   -1    0    0  501    0  0.00000000000E+00 -0.00000000000E+00 -0.53107980532E+03  0.53107980532E+03  0.00000000000E+00 0.  1.
         23    2    1    2    0    0  0.71361105276E+02 -0.42316759176E+02 -0.19546441823E+03  0.23154579267E+03  0.92325510327E+02 0.  0.
          5    1    1    2  502    0 -0.84330566389E+02 -0.16463717814E+02 -0.13826179566E+03  0.16283886198E+03  0.41800000000E+01 0.  1.
         -5    1    1    2    0  502  0.12969461113E+02  0.58780476991E+02 -0.16157483130E+03  0.17247391080E+03  0.41800000000E+01 0.  1.
        -11    1    3    3    0    0  0.51044162152E+02 -0.32548030393E+02 -0.19964177007E+03  0.20861859248E+03  0.00000000000E+00 0.  1.
         11    1    3    3    0    0  0.20316943124E+02 -0.97687287839E+01  0.41773518454E+01  0.22927200187E+02  0.00000000000E+00 0. -1.
</event>
<event>
 7    1  0.6145388E-006  0.2084828E+03  0.7561462E-02  0.1142773E+00
          2   -1    0    0  501    0  0.00000000000E+00  0.00000000000E+00  0.60829461676E+03  0.60829461676E+03  0.00000000000E+00 0. -1.
         -2   -1    0    0    0  501 -0.00000000000E+00 -0.00000000000E+00 -0.10114074644E+03  0.10114074644E+03  0.00000000000E+00 0.  1.
         23    2    1    2    0    0  0.19620372876E+03  0.28421440411E+02  0.20417042196E+03  0.29862975625E+03  0.90501318528E+02 0.  0.
          5    1    1    2  502    0 -0.15296766540E+03 -0.73366141345E+01  0.32380885933E+03  0.35822141525E+03  0.41800000000E+01 0. -1.
         -5    1    1    2    0  502 -0.43236063360E+02 -0.21084826277E+02 -0.20825410971E+02  0.52584191694E+02  0.41800000000E+01 0.  1.
        -11    1    3    3    0    0  0.19128545205E+02  0.33227407269E+02  0.20582288462E+02  0.43515427539E+02  0.00000000000E+00 0. -1.
         11    1    3    3    0    0  0.17707518356E+03 -0.48059668579E+01  0.18358813350E+03  0.25511432871E+03  0.00000000000E+00 0.  1.
</event>
<event>
 7    1  0.6145388E-006  0.1089889E+03  0.7561462E-02  0.1262454E+00
         -3   -1    0    0    0  501 -0.00000000000E+00  0.00000000000E+00  0.65000999798E+02  0.65000999798E+02  0.00000000000E+00 0.  1.
          3   -1    0    0  501    0  0.00000000000E+00 -0.00000000000E+00 -0.30007303011E+03  0.30007303011E+03  0.00000000000E+00 0. -1.
         23    2    1    2    0    0  0.25983818522E+02 -0.58929300005E+02 -0.19523403110E+03  0.22339271938E+03  0.87408002788E+02 0.  0.
          5    1    1    2  502    0  0.47381784075E+02  0.16543529776E+02 -0.22190128336E+02  0.55032681519E+02  0.41800000000E+01 0. -1.
         -5    1    1    2    0  502 -0.73365602597E+02  0.42385770229E+02 -0.17647870884E+02  0.86648629009E+02  0.41800000000E+01 0.  1.
        -11    1    3    3    0    0  0.23076992850E+01 -0.59063209040E+02 -0.53595367801E+02  0.79788793623E+02  0.00000000000E+00 0.  1.
         11    1    3    3    0    0  0.23676119237E+02  0.13390903474E+00 -0.14163866330E+03  0.14360392576E+03  0.00000000000E+00 0. -1.
</event>
<event>
 7    1  0.6145388E-006  0.1657021E+03  0.7561462E-02  0.1182405E+00
         -2   -1    0    0    0  501 -0.00000000000E+00  0.00000000000E+00  0.67410840701E+02  0.67410840701E+02  0.00000000000E+00 0.  1.
          2   -1    0    0  501    0  0.00000000000E+00 -0.00000000000E+00 -0.49110074313E+03  0.49110074313E+03  0.00000000000E+00 0. -1.
         23    2    1    2    0    0  0.53821108358E+02  0.13184746602E+03 -0.24088806139E+03  0.29518253221E+03  0.93942552675E+02 0.  0.
          5    1    1    2  502    0  0.19287307353E+02 -0.11763453888E+02  0.96833283645E+01  0.24932274676E+02  0.41800000000E+01 0.  1.
         -5    1    1    2    0  502 -0.73108415711E+02 -0.12008401213E+03 -0.19248516940E+03  0.23839677694E+03  0.41800000000E+01 0.  1.
        -11    1    3    3    0    0 -0.23338619599E+02  0.50643527152E+02 -0.56136227088E+02  0.79124800151E+02  0.00000000000E+00 0. -1.
         11    1    3    3    0    0  0.77159727957E+02  0.81203938864E+02 -0.18475183430E+03  0.21605773206E+03  0.00000000000E+00 0.  1.
</event>
<event>
 7    1  0.6145388E-006  0.9320401E+02  0.7561462E-02  0.1295273E+00
         -3   -1    0    0    0  501 -0.00000000000E+00  0.00000000000E+00  0.25302154029E+03  0.25302154029E+03  0.00000000000E+00 0.  1.
          3   -1    0    0  501    0  0.00000000000E+00 -0.00000000000E+00 -0.57513153998E+02  0.57513153998E+02  0.00000000000E+00 0. -1.
         23    2    1    2    0    0 -0.43855794518E+02  0.29878092907E+02  0.92455829008E+02  0.13999286227E+03  0.90740784769E+02 0.  0.
          5    1    1    2  502    0  0.31020665962E+02  0.39160225343E+02  0.83729654349E+02  0.97590636760E+02  0.41800000000E+01 0.  1.
         -5    1    1    2    0  502  0.12835128556E+02 -0.69038318251E+02  0.19322902937E+02  0.72951195260E+02  0.41800000000E+01 0.  1.
        -11    1    3    3    0    0 -0.42524555508E+02  0.71003866880E+01  0.10531786175E+03  0.11380072635E+03  0.00000000000E+00 0.  1.
         11    1    3    3    0    0 -0.13312390099E+01  0.22777706219E+02 -0.12862032747E+02  0.26192135925E+02  0.00000000000E+00 0. -1.
</event>
<event>
 6    1  0.6145388E-006  0.1412517E+03  0.7561462E-02  0.1211655E+00
         -2   -1    0    0    0  501 -0.00000000000E+00  0.00000000000E+00  0.65065294642E+02  0.65065294642E+02  0.00000000000E+00 0.  1.
          2   -1    0    0  501    0  0.00000000000E+00 -0.00000000000E+00 -0.34750215205E+03  0.34750215205E+03  0.00000000000E+00 0. -1.
          5    1    1    2  502    0  0.35050562786E+02  0.14655899908E+02  0.95478384068E+00  0.38232464816E+02  0.41800000000E+01 0.  1.
         -5    1    1    2    0  502 -0.82821515945E+02 -0.10809052859E+02 -0.88707090758E+02  0.12191250747E+03  0.41800000000E+01 0.  1.
        -11    1    1    2    0    0 -0.45250389628E+02  0.37584675306E+02 -0.69566747092E+02  0.91102897211E+02  0.00000000000E+00 0.  1.
         11    1    1    2    0    0  0.93021342787E+02 -0.41431522355E+02 -0.12511780340E+03  0.16131957719E+03  0.00000000000E+00 0. -1.
</event>
<event>
 7    1  0.6145388E-006  0.1883736E+03  0.7561462E-02  0.1159936E+00
          2   -1    0    0  501    0  0.00000000000E+00  0.00000000000E+00  0.93391494295E+03  0.93391494295E+03  0.00000000000E+00 0. -1.
         -2   -1    0    0    0  501 -0.00000000000E+00 -0.00000000000E+00 -0.49866812567E+02  0.49866812567E+02  0.00000000000E+00 0.  1.
         23    2    1    2    0    0  0.18043695968E+03 -0.72437740458E+01  0.52711762358E+03  0.56465454315E+03  0.91497515403E+02 0.  0.
          5    1    1    2  502    0 -0.20079395062E+02  0.25255764950E+02  0.63204986498E+01  0.33142976215E+02  0.41800000000E+01 0.  1.
         -5    1    1    2    0  502 -0.16035756461E+03 -0.18011990904E+02  0.35061000815E+03  0.38598423615E+03  0.41800000000E+01 0.  1.
        -11    1    3    3    0    0  0.82379151352E+02 -0.17442954319E+02  0.36767632868E+03  0.37719552476E+03  0.00000000000E+00 0.  1.
         11    1    3    3    0    0  0.98057808324E+02  0.10199180274E+02  0.15944129491E+03  0.18745901838E+03  0.00000000000E+00 0. -1.
</event>
<event>
 7    1  0.6145388E-006  0.8504718E+02  0.7561462E-02  0.1315309E+00
         -2   -1    0    0    0  501 -0.00000000000E+00  0.00000000000E+00  0.39245490718E+02  0.39245490718E+02  0.00000000000E+00 0.  1.
          2   -1    0    0  501    0  0.00000000000E+00 -0.00000000000E+00 -0.43154086919E+03  0.43154086919E+03  0.00000000000E+00 0. -1.
         23    2    1    2    0    0 -0.61853748974E+02 -0.65874932325E+01 -0.24072704680E+03  0.26465337166E+03  0.90678634422E+02 0.  0.
          5    1    1    2  502    0  0.69195746854E+02  0.18148395379E+02 -0.16900584184E+03  0.18356977588E+03  0.41800000000E+01 0.  1.
         -5    1    1    2    0  502 -0.73419978803E+01 -0.11560902147E+02  0.17437510175E+02  0.22563212370E+02  0.41800000000E+01 0.  1.
        -11    1    3    3    0    0 -0.49808979665E+02 -0.29745028237E+02 -0.22864468692E+03  0.23589000407E+03  0.00000000000E+00 0. -1.
         11    1    3    3    0    0 -0.12044769309E+02  0.23157535005E+02 -0.12082359879E+02  0.28763367596E+02  0.00000000000E+00 0.  1.
</event>
<event>
 7    1  0.6145388E-006  0.1350951E+03  0.7561462E-02  0.1220086E+00
         -1   -1    0    0    0  501 -0.00000000000E+00  0.00000000000E+00  0.59039661702E+03  0.59039661702E+03  0.00000000000E+00 0.  1.
          1   -1    0    0  501    0  0.00000000000E+00 -0.00000000000E+00 -0.34025954143E+02  0.34025954143E+02  0.00000000000E+00 0. -1.
         23    2    1    2    0    0  0.55794562225E+02 -0.61595505449E+02  0.17483609798E+03  0.21439452369E+03  0.92142884513E+02 0.  0.
          5    1    1    2  502    0  0.38499765546E+02  0.17998477792E+02  0.15498195433E+03  0.16075775477E+03  0.41800000000E+01 0. -1.
         -5    1    1    2    0  502 -0.94294327771E+02  0.43597027657E+02  0.22655261057E+03  0.24927029271E+03  0.41800000000E+01 0. -1.
        -11    1    3    3    0    0 -0.52631703084E+01 -0.62233554806E+02  0.78140154961E+02  0.10003299517E+03  0.00000000000E+00 0.  1.
         11    1    3    3    0    0  0.61057732534E+02  0.63804935707E+00  0.96695943020E+02  0.11436152852E+03  0.00000000000E+00 0. -1.
</event>
<event>
 7    1  0.6145388E-006  0.1208295E+03  0.7561462E-02  0.1241735E+00
         -1   -1    0    0    0  501 -0.00000000000E+00  0.00000000000E+00  0.16245647713E+03  0.16245647713E+03  0.00000000000E+00 0.  1.
          1   -1    0    0  501    0  0.00000000000E+00 -0.00000000000E+00 -0.10461020291E+03  0.10461020291E+03  0.00000000000E+00 0. -1.
         23    2    1    2    0    0  0.21030925881E+01 -0.61036397281E+02 -0.14881873865E+02  0.11001227584E+03  0.90284914989E+02 0.  0.
          5    1    1    2  502    0  0.54190223379E+02 -0.13866572357E+01  0.36138672426E+02  0.65283835464E+02  0.41800000000E+01 0.  1.
         -5    1    1    2    0  502 -0.56293315967E+02  0.62423054517E+02  0.36589475657E+02  0.91770568739E+02  0.41800000000E+01 0.  1.
        -11    1    3    3    0    0 -0.40474446039E+02 -0.31945917649E+02  0.10369398424E+02  0.52595122020E+02  0.00000000000E+00 0.  1.
         11    1    3    3    0    0  0.42577538627E+02 -0.29090479632E+02 -0.25251272289E+02  0.57417153822E+02  0.00000000000E+00 0. -1.
</event>
<event>
 7    1  0.6145388E-006  0.1313801E+03  0.7561462E-02  0.1225422E+00
          2   -1    0    0  501    0  0.00000000000E+00  0.00000000000E+00  0.35344230318E+02  0.35344230318E+02  0.00000000000E+00 0. -1.
         -2   -1    0    0    0  501 -0.00000000000E+00 -0.00000000000E+00 -0.51165774891E+03  0.51165774891E+03  0.00000000000E+00 0.  1.
         23    2    1    2    0    0  0.21836412576E+02  0.73653055501E+02 -0.17682721020E+03  0.21347454136E+03  0.91661966182E+02 0.  0.
          5    1    1    2  502    0 -0.20566552548E+02  0.33501607887E+02 -0.82995257078E+02  0.91929461611E+02  0.41800000000E+01 0.  1.
         -5    1    1    2    0  502 -0.12698600285E+01 -0.10715466339E+03 -0.21649105131E+03  0.24159797625E+03  0.41800000000E+01 0.  1.
        -11    1    3    3    0    0 -0.21664687006E+02 -0.83008420796E+01 -0.59705406286E+02  0.64054649965E+02  0.00000000000E+00 0.  1.
         11    1    3    3    0    0  0.43501099583E+02  0.81953897581E+02 -0.11712180391E+03  0.14941989140E+03  0.00000000000E+00 0. -1.
</event>
<event>
 7    1  0.6145388E-006  0.1362863E+03  0.7561462E-02  0.1218415E+00
         -2   -1    0    0    0  501 -0.00000000000E+00  0.00000000000E+00  0.62960161756E+02  0.62960161756E+02  0.00000000000E+00 0.  1.
          2   -1    0    0  501    0  0.00000000000E+00 -0.00000000000E+00 -0.32739550320E+03  0.32739550320E+03  0.00000000000E+00 0. -1.
         23    2    1    2    0    0 -0.48768567286E+02  0.78780506765E+02 -0.14079276746E+03  0.19156428692E+03  0.91046862947E+02 0.  0.
          5    1    1    2  502    0 -0.33406629937E+02 -0.74138348980E+01 -0.68552517534E+02  0.76732574125E+02  0.41800000000E+01 0.  1.
         -5    1    1    2    0  502  0.82175197223E+02 -0.71366671867E+02 -0.55090056445E+02  0.12205880391E+03  0.41800000000E+01 0.  1.
        -11    1    3    3    0    0 -0.75504342346E+02  0.55197281263E+02 -0.11061280382E+03  0.14485454063E+03  0.00000000000E+00 0.  1.
         11    1    3    3    0    0  0.26735775061E+02  0.23583225502E+02 -0.30179963645E+02  0.46709746294E+02  0.00000000000E+00 0. -1.
</event>
<event>
 7    1  0.6145388E-006  0.2882498E+03  0.7561462E-02  0.1091267E+00
          2   -1    0    0  501    0  0.00000000000E+00  0.00000000000E+00  0.61191499974E+03  0.61191499974E+03  0.00000000000E+00 0. -1.
         -2   -1    0    0    0  501 -0.00000000000E+00 -0.00000000000E+00 -0.14335158258E+03  0.14335158258E+03  0.00000000000E+00 0.  1.
         23    2    1    2    0    0  0.18364006090E+03 -0.20084873706E+03  0.28418732381E+03  0.40354514800E+03  0.89567652152E+02 0.  0.
          5    1    1    2  502    0 -0.94329111916E+02  0.23124944724E+02  0.36509323158E+02  0.10384193517E+03  0.41800000000E+01 0.  1.
         -5    1    1    2    0  502 -0.89310948984E+02  0.17772379233E+03  0.14786677019E+03  0.24787949914E+03  0.41800000000E+01 0.  1.
        -11    1    3    3    0    0  0.55567237224E+02 -0.11025339379E+03  0.16723108081E+03  0.20786958191E+03  0.00000000000E+00 0. -1.
         11    1    3    3    0    0  0.12807282368E+03 -0.90595343267E+02  0.11695624300E+03  0.19567556609E+03  0.00000000000E+00 0.  1.
</event>
<event>
 7    1  0.6145388E-006  0.1011948E+03  0.7561462E-02  0.1277803E+00
          1   -1    0    0  501    0  0.00000000000E+00  0.00000000000E+00  0.17581239514E+02  0.17581239514E+02  0.00000000000E+00 0. -1.
         -1   -1    0    0    0  501 -0.00000000000E+00 -0.00000000000E+00 -0.17211103361E+04  0.17211103361E+04  0.00000000000E+00 0.  1.
         23    2    1    2    0    0 -0.59831095996E+02 -0.14193112853E+02 -0.19393799885E+03  0.22267848198E+03  0.90512730811E+02 0.  0.
          5    1    1    2  502    0 -0.24225308765E+02  0.59955124066E+01 -0.79622153831E+02  0.83546223938E+02  0.41800000000E+01 0.  1.
         -5    1    1    2    0  502  0.84056404760E+02  0.81976004460E+01 -0.14299689439E+04  0.14324668697E+04  0.41800000000E+01 0.  1.
        -11    1    3    3    0    0 -0.67824628482E+02  0.86050297946E+01 -0.18446779871E+03  0.19672975252E+03  0.00000000000E+00 0.  1.
         11    1    3    3    0    0  0.79935324860E+01 -0.22798142647E+02 -0.94702001369E+01  0.25948729456E+02  0.00000000000E+00 0. -1.
</event>
<event>
 7    1  0.6145388E-006  0.1031838E+03  0.7561462E-02  0.1273740E+00
          4   -1    0    0  501    0  0.00000000000E+00  0.00000000000E+00  0.22263634309E+02  0.22263634309E+02  0.00000000000E+00 0. -1.
         -4   -1    0    0    0  501 -0.00000000000E+00 -0.00000000000E+00 -0.65722652444E+03  0.65722652444E+03  0.00000000000E+00 0.  1.
         23    2    1    2    0    0 -0.13218736878E+02 -0.11254607163E+02 -0.12456590660E+03  0.15370103988E+03  0.88351250056E+02 0.  0.
          5    1    1    2  502    0 -0.18272652588E+02  0.58434864937E+02 -0.17142731437E+03  0.18208053105E+03  0.41800000000E+01 0.  1.
         -5    1    1    2    0  502  0.31491389466E+02 -0.47180257774E+02 -0.33896966915E+03  0.34370858782E+03  0.41800000000E+01 0.  1.
        -11    1    3    3    0    0  0.36339042247E+02 -0.12833397784E+02 -0.39142517351E+02  0.54930490210E+02  0.00000000000E+00 0. -1.
         11    1    3    3    0    0 -0.49557779125E+02  0.15787906209E+01 -0.85423389253E+02  0.98770549675E+02  0.00000000000E+00 0.  1.
</event>
<event>
 7    1  0.6145388E-006  0.9592778E+02  0.7561462E-02  0.1289100E+00
          1   -1    0    0  501    0  0.00000000000E+00  0.00000000000E+00  0.12243674444E+03  0.12243674444E+03  0.00000000000E+00 0. -1.
         -1   -1    0    0    0  501 -0.00000000000E+00 -0.00000000000E+00 -0.15004084461E+03  0.15004084461E+03  0.00000000000E+00 0.  1.
         23    2    1    2    0    0 -0.47582072618E+02  0.63942099711E+02 -0.19897443208E+01  0.12195614697E+03  0.92285952074E+02 0.  0.
          5    1    1    2  502    0  0.13247296490E+02 -0.67734501044E+02 -0.67117340475E+02  0.96362146554E+02  0.41800000000E+01 0. -1.
         -5    1    1    2    0  502  0.34334776128E+02  0.37924013332E+01  0.41502984624E+02  0.54159295531E+02  0.41800000000E+01 0. -1.
        -11    1    3    3    0    0  0.33512857018E+01  0.21087312103E+02  0.38514651725E+02  0.44037305152E+02  0.00000000000E+00 0. -1.
         11    1    3    3    0    0 -0.50933358320E+02  0.42854787608E+02 -0.40504396045E+02  0.77918841814E+02  0.00000000000E+00 0.  1.
</event>
<event>
 7    1  0.6145388E-006  0.8591375E+02  0.7561462E-02  0.1313060E+00
          1   -1    0    0  501    0  0.00000000000E+00  0.00000000000E+00  0.49536482040E+03  0.49536482040E+03  0.00000000000E+00 0. -1.
         -1   -1    0    0    0  501 -0.00000000000E+00 -0.00000000000E+00 -0.28478749872E+02  0.28478749872E+02  0.00000000000E+00 0.  1.
         23    2    1    2    0    0 -0.13865677788E+02  0.45937084364E+02  0.17553971267E+03  0.20316778669E+03  0.90335408799E+02 0.  0.
          5    1    1    2  502    0  0.60666952868E+02 -0.41468974545E+01  0.82539019209E+02  0.10260525338E+03  0.41800000000E+01 0.  1.
         -5    1    1    2    0  502 -0.46801275080E+02 -0.41790186909E+02  0.20880733865E+03  0.21807053021E+03  0.41800000000E+01 0.  1.
        -11    1    3    3    0    0 -0.51298092792E+01  0.15508683772E+02 -0.70952061895E+01  0.17809440374E+02  0.00000000000E+00 0.  1.
         11    1    3    3    0    0 -0.87358685085E+01  0.30428400592E+02  0.18263491886E+03  0.18535834631E+03  0.00000000000E+00 0. -1.
</event>
<event>
 7    1  0.6145388E-006  0.1444438E+03  0.7561462E-02  0.1207471E+00
         -1   -1    0    0    0  501 -0.00000000000E+00  0.00000000000E+00  0.56265048936E+03  0.56265048936E+03  0.00000000000E+00 0.  1.
          1   -1    0    0  501    0  0.00000000000E+00 -0.00000000000E+00 -0.38306633471E+02  0.38306633471E+02  0.00000000000E+00 0. -1.
         23    2    1    2    0    0  0.55898123469E+02  0.78182370856E+02  0.20537783566E+03  0.24511528703E+03  0.93082572138E+02 0.  0.
          5    1    1    2  502    0 -0.90561540535E+02 -0.82044334082E+02  0.25724605183E+03  0.28482568171E+03  0.41800000000E+01 0. -1.
         -5    1    1    2    0  502  0.34663417066E+02  0.38619632255E+01  0.61719968395E+02  0.71016154087E+02  0.41800000000E+01 0. -1.
        -11    1    3    3    0    0  0.12765655266E+02  0.86606302323E+02  0.15699458479E+03  0.17975236636E+03  0.00000000000E+00 0.  1.
         11    1    3    3    0    0  0.43132468203E+02 -0.84239314668E+01  0.48383250871E+02  0.65362920678E+02  0.00000000000E+00 0. -1.
</event>
<event>
 7    1  0.6145388E-006  0.1031050E+03  0.7561462E-02  0.1273899E+00
         -1   -1    0    0    0  501 -0.00000000000E+00  0.00000000000E+00  0.33569068230E+02  0.33569068230E+02  0.00000000000E+00 0.  1.
          1   -1    0    0  501    0  0.00000000000E+00 -0.00000000000E+00 -0.46861357567E+03  0.46861357567E+03  0.00000000000E+00 0. -1.
         23    2    1    2    0    0 -0.34172200373E+01 -0.60422154848E+02 -0.23392921360E+03  0.25772936885E+03  0.89660673665E+02 0.  0.
          5    1    1    2  502    0  0.32950072917E+02 -0.20468848515E+02 -0.11960327843E+03  0.12580579349E+03  0.41800000000E+01 0.  1.
         -5    1    1    2    0  502 -0.29532852880E+02  0.80891003363E+02 -0.81512015405E+02  0.11864748156E+03  0.41800000000E+01 0.  1.
        -11    1    3    3    0    0  0.70572895378E+01 -0.67801232405E+02 -0.23517591235E+03  0.24485612551E+03  0.00000000000E+00 0. -1.
         11    1    3    3    0    0 -0.10474509575E+02  0.73790775568E+01  0.12466987419E+01  0.12873243344E+02  0.00000000000E+00 0.  1.
</event>
<event>
 7    1  0.6145388E-006  0.2341338E+03  0.7561462E-02  0.1123764E+00
         -3   -1    0    0    0  501 -0.00000000000E+00  0.00000000000E+00  0.12376207762E+04  0.12376207762E+04  0.00000000000E+00 0.  1.
          3   -1    0    0  501    0  0.00000000000E+00 -0.00000000000E+00 -0.11279687072E+03  0.11279687072E+03  0.00000000000E+00 0. -1.
         23    2    1    2    0    0 -0.93827859751E+02  0.18291380754E+03  0.17062340761E+03  0.28142879144E+03  0.88479880057E+02 0.  0.
          5    1    1    2  502    0  0.92049448279E+02 -0.20592613507E+03  0.16515096391E+03  0.27959074969E+03  0.41800000000E+01 0. -1.
         -5    1    1    2    0  502  0.17784114720E+01  0.23012327538E+02  0.78904953397E+03  0.78939810579E+03  0.41800000000E+01 0.  1.
        -11    1    3    3    0    0 -0.10729982095E+03  0.16069928308E+03  0.12889818708E+03  0.23227624457E+03  0.00000000000E+00 0.  1.
         11    1    3    3    0    0  0.13471961203E+02  0.22214524456E+02  0.41725220537E+02  0.49152546875E+02  0.00000000000E+00 0. -1.
</event>
<event>
 7    1  0.6145388E-006  0.1070869E+03  0.7561462E-02  0.1266062E+00
          1   -1    0    0  501    0  0.00000000000E+00  0.00000000000E+00  0.12465301158E+03  0.12465301158E+03  0.00000000000E+00 0. -1.
         -1   -1    0    0    0  501 -0.00000000000E+00 -0.00000000000E+00 -0.10579415956E+03  0.10579415956E+03  0.00000000000E+00 0.  1.
         23    2    1    2    0    0  0.12026272777E+02 -0.11271331479E+02  0.48986943751E+02  0.10071181605E+03  0.86437694806E+02 0.  0.
          5    1    1    2  502    0  0.43788250022E+02 -0.32864814384E+02 -0.13291804016E+02  0.56494701685E+02  0.41800000000E+01 0.  1.
         -5    1    1    2    0  502 -0.55814522799E+02  0.44136145864E+02 -0.16836287716E+02  0.73240653404E+02  0.41800000000E+01 0.  1.
        -11    1    3    3    0    0  0.25401033692E+02  0.33053898491E+02  0.22473682407E+02  0.47358622436E+02  0.00000000000E+00 0.  1.
         11    1    3    3    0    0 -0.13374760915E+02 -0.44325229970E+02  0.26513261344E+02  0.53353193611E+02  0.00000000000E+00 0. -1.
</event>
<event>
 7    1  0.6145388E-006  0.1261194E+03  0.7561462E-02  0.1233330E+00
         -2   -1    0    0    0  501 -0.00000000000E+00  0.00000000000E+00  0.95617025958E+02  0.95617025958E+02  0.00000000000E+00 0.  1.
          2   -1    0    0  501    0  0.00000000000E+00 -0.00000000000E+00 -0.22771044956E+03  0.22771044956E+03  0.00000000000E+00 0. -1.
         23    2    1    2    0    0  0.25518784925E+02  0.20076279454E+01 -0.12920356469E+03  0.15908743927E+03  0.89218906352E+02 0.  0.
          5    1    1    2  502    0  0.34811871448E+02  0.63845285356E+02 -0.13908250596E+02  0.74155233737E+02  0.41800000000E+01 0. -1.
         -5    1    1    2    0  502 -0.60330656374E+02 -0.65852913301E+02  0.11018391681E+02  0.90084802514E+02  0.41800000000E+01 0.  1.
        -11    1    3    3    0    0 -0.10731643767E+02 -0.35942081989E+02 -0.35271634594E+02  0.51488733162E+02  0.00000000000E+00 0.  1.
         11    1    3    3    0    0  0.36250428692E+02  0.37949709935E+02 -0.93931930098E+02  0.10759870611E+03  0.00000000000E+00 0. -1.
</event>
<event>
 7    1  0.6145388E-006  0.1164052E+03  0.7561462E-02  0.1249148E+00
         -2   -1    0    0    0  501 -0.00000000000E+00  0.00000000000E+00  0.13342319059E+03  0.13342319059E+03  0.00000000000E+00 0.  1.
          2   -1    0    0  501    0  0.00000000000E+00 -0.00000000000E+00 -0.15495125113E+03  0.15495125113E+03  0.00000000000E+00 0. -1.
         23    2    1    2    0    0  0.65238287459E+02  0.16232367794E+02 -0.72155193899E+02  0.13760815483E+03  0.95969309439E+02 0.  0.
          5    1    1    2  502    0 -0.43832337026E+02 -0.58366832648E+02 -0.99874005928E+01  0.73791473038E+02  0.41800000000E+01 0. -1.
         -5    1    1    2    0  502 -0.21405950433E+02  0.42134464854E+02  0.60614533947E+02  0.76974813856E+02  0.41800000000E+01 0. -1.
        -11    1    3    3    0    0  0.21412585884E+01  0.43474027734E+02 -0.47911435775E+02  0.64730840824E+02  0.00000000000E+00 0. -1.
         11    1    3    3    0    0  0.63097028871E+02 -0.27241659940E+02 -0.24243758124E+02  0.72877314005E+02  0.00000000000E+00 0.  1.
</event>
<event>
 7    1  0.6145388E-006  0.1381757E+03  0.7561462E-02  0.1215805E+00
          1   -1    0    0  501    0  0.00000000000E+00  0.00000000000E+00  0.24696353068E+03  0.24696353068E+03  0.00000000000E+00 0. -1.
         -1   -1    0    0    0  501 -0.00000000000E+00 -0.00000000000E+00 -0.12219685919E+03  0.12219685919E+03  0.00000000000E+00 0.  1.
         23    2    1    2    0    0  0.99690612730E+02  0.88739971681E+02  0.81795667318E+02  0.18126218631E+03  0.91391729140E+02 0.  0.
          5    1    1    2  502    0 -0.34951327109E+01 -0.94796028744E+01  0.60926289047E+02  0.61899627788E+02  0.41800000000E+01 0.  1.
         -5    1    1    2    0  502 -0.96195480019E+02 -0.79260368807E+02 -0.17955284869E+02  0.12599857576E+03  0.41800000000E+01 0.  1.
        -11    1    3    3    0    0  0.17891734113E+02  0.43936090825E+02  0.73697299679E+02  0.87645799709E+02  0.00000000000E+00 0. -1.
         11    1    3    3    0    0  0.81798878618E+02  0.44803880856E+02  0.80983676392E+01  0.93616386606E+02  0.00000000000E+00 0.  1.
</event>
<event>
 7    1  0.6145388E-006  0.1386846E+03  0.7561462E-02  0.1215110E+00
          4   -1    0    0  501    0  0.00000000000E+00  0.00000000000E+00  0.16029425680E+03  0.16029425680E+03  0.00000000000E+00 0. -1.
         -4   -1    0    0    0  501 -0.00000000000E+00 -0.00000000000E+00 -0.18155426043E+03  0.18155426043E+03  0.00000000000E+00 0.  1.
         23    2    1    2    0    0 -0.42227253923E+02 -0.12283017371E+03  0.88870010216E+01  0.15901521795E+03  0.91304261704E+02 0.  0.
          5    1    1    2  502    0  0.35038306571E+02  0.58570160781E+02 -0.76920428324E+02  0.10291924677E+03  0.41800000000E+01 0. -1.
         -5    1    1    2    0  502  0.71889473518E+01  0.64260012931E+02  0.46773423673E+02  0.79914052506E+02  0.41800000000E+01 0. -1.
        -11    1    3    3    0    0 -0.35922524543E+02 -0.19889454262E+02  0.33490992985E+02  0.52987402008E+02  0.00000000000E+00 0. -1.
         11    1    3    3    0    0 -0.63047293796E+01 -0.10294071945E+03 -0.24603991964E+02  0.10602781594E+03  0.00000000000E+00 0.  1.
</event>
<event>
 7    1  0.6145388E-006  0.1096047E+03  0.7561462E-02  0.1261304E+00
          1   -1    0    0  501    0  0.00000000000E+00  0.00000000000E+00  0.17417528914E+03  0.17417528914E+03  0.00000000000E+00 0. -1.
         -1   -1    0    0    0  501 -0.00000000000E+00 -0.00000000000E+00 -0.10199306228E+03  0.10199306228E+03  0.00000000000E+00 0.  1.
         23    2    1    2    0    0 -0.21258205996E+02 -0.54053092741E+02 -0.15356152713E+02  0.11281319227E+03  0.95484850977E+02 0.  0.
          5    1    1    2  502    0 -0.19780527462E+02  0.63008532203E+02  0.99487406532E+02  0.11948456325E+03  0.41800000000E+01 0. -1.
         -5    1    1    2    0  502  0.41038733458E+02 -0.89554394618E+01 -0.11949026954E+02  0.43870595904E+02  0.41800000000E+01 0. -1.
        -11    1    3    3    0    0  0.21704054985E+02 -0.63266326480E+02 -0.21023272790E+01  0.66918710755E+02  0.00000000000E+00 0.  1.
         11    1    3    3    0    0 -0.42962260981E+02  0.92132337389E+01 -0.13253825434E+02  0.45894481511E+02  0.00000000000E+00 0. -1.
</event>
<event>
 7    1  0.6145388E-006  0.1041879E+03  0.7561462E-02  0.1271728E+00
         -2   -1    0    0    0  501 -0.00000000000E+00  0.00000000000E+00  0.30569960366E+03  0.30569960366E+03  0.00000000000E+00 0.  1.
          2   -1    0    0  501    0  0.00000000000E+00 -0.00000000000E+00 -0.55595408064E+02  0.55595408064E+02  0.00000000000E+00 0. -1.
         23    2    1    2    0    0 -0.44083435286E+02  0.34942468555E+02  0.52961728792E+02  0.12113647911E+03  0.93299391628E+02 0.  0.
          5    1    1    2  502    0 -0.28604525573E+02 -0.54119981737E+01  0.16367977591E+01  0.29456070926E+02  0.41800000000E+01 0.  1.
         -5    1    1    2    0  502  0.72687960858E+02 -0.29530470381E+02  0.19550566904E+03  0.21070246169E+03  0.41800000000E+01 0.  1.
        -11    1    3    3    0    0 -0.68057742719E+02  0.16184110768E+02  0.57249491705E+02  0.90395166275E+02  0.00000000000E+00 0.  1.
         11    1    3    3    0    0  0.23974307433E+02  0.18758357787E+02 -0.42877629133E+01  0.30741312831E+02  0.00000000000E+00 0. -1.
</event>
<event>
 7    1  0.6145388E-006  0.1283020E+03  0.7561462E-02  0.1229997E+00
         -2   -1    0    0    0  501 -0.00000000000E+00  0.00000000000E+00  0.27832444311E+02  0.27832444311E+02  0.00000000000E+00 0.  1.
          2   -1    0    0  501    0  0.00000000000E+00 -0.00000000000E+00 -0.10211344588E+04  0.10211344588E+04  0.00000000000E+00 0. -1.
         23    2    1    2    0    0 -0.71789241041E+01  0.93096637490E+02 -0.44509736343E+03  0.46388930621E+03  0.91450011576E+02 0.  0.
          5    1    1    2  502    0  0.64233113481E+01  0.24866104934E+02 -0.37248268371E+03  0.37339041789E+03  0.41800000000E+01 0. -1.
         -5    1    1    2    0  502  0.75561275604E+00 -0.11796274242E+03 -0.17572196731E+03  0.21168717899E+03  0.41800000000E+01 0.  1.
        -11    1    3    3    0    0  0.44889342368E+01  0.99251353599E+02 -0.43755655771E+03  0.44869446499E+03  0.00000000000E+00 0.  1.
         11    1    3    3    0    0 -0.11667858341E+02 -0.61547161095E+01 -0.75408057276E+01  0.15194841219E+02  0.00000000000E+00 0. -1.
</event>
<event>
 7    1  0.6145388E-006  0.1653623E+03  0.7561462E-02  0.1182772E+00
          2   -1    0    0  501    0  0.00000000000E+00  0.00000000000E+00  0.19829073449E+03  0.19829073449E+03  0.00000000000E+00 0. -1.
         -2   -1    0    0    0  501 -0.00000000000E+00 -0.00000000000E+00 -0.18968915349E+03  0.18968915349E+03  0.00000000000E+00 0.  1.
         23    2    1    2    0    0  0.85603193277E+02  0.10996684027E+03  0.82973856076E+02  0.18648738692E+03  0.92044945710E+02 0.  0.
          5    1    1    2  502    0  0.31583815726E+02 -0.13449932490E+02 -0.67060404702E+01  0.35226147655E+02  0.41800000000E+01 0.  1.
         -5    1    1    2    0  502 -0.11718700900E+03 -0.96516907785E+02 -0.67666234608E+02  0.16626635340E+03  0.41800000000E+01 0.  1.
        -11    1    3    3    0    0  0.50295894664E+02  0.34619636605E+02 -0.98269802469E+01  0.61844690956E+02  0.00000000000E+00 0.  1.
         11    1    3    3    0    0  0.35307298614E+02  0.75347203669E+02  0.92800836323E+02  0.12464269597E+03  0.00000000000E+00 0. -1.
</event>
<event>
 6    1  0.6145388E-006  0.2143941E+03  0.7561462E-02  0.1138133E+00
         -2   -1    0    0    0  501 -0.00000000000E+00  0.00000000000E+00  0.48073893499E+02  0.48073893499E+02  0.00000000000E+00 0.  1.
          2   -1    0    0  501    0  0.00000000000E+00 -0.00000000000E+00 -0.12645645301E+04  0.12645645301E+04  0.00000000000E+00 0. -1.
          5    1    1    2  502    0 -0.10842199951E+02 -0.17109543860E+02 -0.23826953938E+03  0.23916549832E+03  0.41800000000E+01 0. -1.
         -5    1    1    2    0  502  0.20723899425E+03 -0.97420690891E+01 -0.29859329453E+03  0.36361839418E+03  0.41800000000E+01 0.  1.
        -11    1    1    2    0    0 -0.67089744326E+02  0.24012523213E+02 -0.17585456987E+03  0.18974315484E+03  0.00000000000E+00 0. -1.
         11    1    1    2    0    0 -0.12930704998E+03  0.28390897360E+01 -0.50377323285E+03  0.52011137629E+03  0.00000000000E+00 0.  1.
</event>
<event>
 7    1  0.6145388E-006  0.1126464E+03  0.7561462E-02  0.1255746E+00
         -2   -1    0    0    0  501 -0.00000000000E+00  0.00000000000E+00  0.15143023597E+03  0.15143023597E+03  0.00000000000E+00 0.  1.
          2   -1    0    0  501    0  0.00000000000E+00 -0.00000000000E+00 -0.15260638839E+03  0.15260638839E+03  0.00000000000E+00 0. -1.
         23    2    1    2    0    0 -0.30425829489E+02  0.12001093226E+02 -0.10010067964E+03  0.14124382105E+03  0.94127113964E+02 0.  0.
          5    1    1    2  502    0 -0.41906926185E+02  0.22098188706E+02  0.49731706816E+02  0.68813047231E+02  0.41800000000E+01 0.  1.
         -5    1    1    2    0  502  0.72332755675E+02 -0.34099281932E+02  0.49192820399E+02  0.93979756068E+02  0.41800000000E+01 0.  1.
        -11    1    3    3    0    0 -0.49096099311E+02  0.40459782023E+02 -0.78028826654E+02  0.10067729991E+03  0.00000000000E+00 0. -1.
         11    1    3    3    0    0  0.18670269822E+02 -0.28458688797E+02 -0.22071852984E+02  0.40566521140E+02  0.00000000000E+00 0.  1.
</event>
<event>
 7    1  0.6145388E-006  0.2630883E+03  0.7561462E-02  0.1105302E+00
          2   -1    0    0  501    0  0.00000000000E+00  0.00000000000E+00  0.97788726584E+03  0.97788726584E+03  0.00000000000E+00 0. -1.
         -2   -1    0    0    0  501 -0.00000000000E+00 -0.00000000000E+00 -0.79474112084E+02  0.79474112084E+02  0.00000000000E+00 0.  1.
         23    2    1    2    0    0  0.15993215489E+03  0.19855979345E+03  0.38380666328E+03  0.46959716777E+03  0.90607171095E+02 0.  0.
          5    1    1    2  502    0 -0.10448086783E+02 -0.71800779659E+02  0.65913386198E+02  0.98115041441E+02  0.41800000000E+01 0. -1.
         -5    1    1    2    0  502 -0.14948406811E+03 -0.12675901379E+03  0.44869310428E+03  0.48964916872E+03  0.41800000000E+01 0. -1.
        -11    1    3    3    0    0  0.51429939514E+02  0.91907609036E+02  0.89169413658E+02  0.13799721595E+03  0.00000000000E+00 0.  1.
         11    1    3    3    0    0  0.10850221538E+03  0.10665218441E+03  0.29463724962E+03  0.33159995182E+03  0.00000000000E+00 0. -1.
</event>
<event>
 7    1  0.6145388E-006  0.1668647E+03  0.7561462E-02  0.1181157E+00
          2   -1    0    0  501    0  0.00000000000E+00  0.00000000000E+00  0.70904888145E+02  0.70904888145E+02  0.00000000000E+00 0. -1.
         -2   -1    0    0    0  501 -0.00000000000E+00 -0.00000000000E+00 -0.53420055742E+03  0.53420055742E+03  0.00000000000E+00 0.  1.
         23    2    1    2    0    0  0.10567127291E+03 -0.10740508551E+03 -0.31573477103E+03  0.35990450165E+03  0.84501682571E+02 0.  0.
          5    1    1    2  502    0 -0.75575099368E+02  0.12727922354E+02 -0.11925025390E+03  0.14181569415E+03  0.41800000000E+01 0. -1.
         -5    1    1    2    0  502 -0.30096173546E+02  0.94677163160E+02 -0.28310644348E+02  0.10338524977E+03  0.41800000000E+01 0. -1.
        -11    1    3    3    0    0  0.10539350551E+02  0.37953078355E+01  0.74676688349E+00  0.11226750749E+02  0.00000000000E+00 0. -1.
         11    1    3    3    0    0  0.95131922363E+02 -0.11120039335E+03 -0.31648153792E+03  0.34867775090E+03  0.00000000000E+00 0.  1.
</event>
<event>
 7    1  0.6145388E-006  0.1688950E+03  0.7561462E-02  0.1179005E+00
         -2   -1    0    0    0  501 -0.00000000000E+00  0.00000000000E+00  0.81046108841E+02  0.81046108841E+02  0.00000000000E+00 0.  1.
          2   -1    0    0  501    0  0.00000000000E+00 -0.00000000000E+00 -0.70424771592E+03  0.70424771592E+03  0.00000000000E+00 0. -1.
         23    2    1    2    0    0  0.13091478535E+02 -0.11341975052E+03 -0.52571296416E+03  0.54548955247E+03  0.90273498565E+02 0.  0.
          5    1    1    2  502    0  0.19614679643E+02 -0.35490512386E+02  0.21753857602E+02  0.46206220874E+02  0.41800000000E+01 0. -1.
         -5    1    1    2    0  502 -0.32706158178E+02  0.14891026291E+03 -0.11924250051E+03  0.19359805141E+03  0.41800000000E+01 0.  1.
        -11    1    3    3    0    0  0.48423429440E+02 -0.89751241485E+02 -0.39919244960E+03  0.41201301640E+03  0.00000000000E+00 0. -1.
         11    1    3    3    0    0 -0.35331950905E+02 -0.23668509039E+02 -0.12652051457E+03  0.13347653607E+03  0.00000000000E+00 0.  1.
</event>
<event>
 7    1  0.6145388E-006  0.1277385E+03  0.7561462E-02  0.1230850E+00
          2   -1    0    0  501    0  0.00000000000E+00  0.00000000000E+00  0.13832991070E+03  0.13832991070E+03  0.00000000000E+00 0. -1.
         -2   -1    0    0    0  501 -0.00000000000E+00 -0.00000000000E+00 -0.16152516695E+03  0.16152516695E+03  0.00000000000E+00 0.  1.
         23    2    1    2    0    0 -0.79821152084E+02 -0.42186617447E+02  0.43857537829E+02  0.13328371375E+03  0.87692289939E+02 0.  0.
          5    1    1    2  502    0  0.96330011168E+02  0.14976315665E+02 -0.62030378992E+01  0.97773775429E+02  0.41800000000E+01 0. -1.
         -5    1    1    2    0  502 -0.16508859083E+02  0.27210301782E+02 -0.60849756184E+02  0.68797588467E+02  0.41800000000E+01 0.  1.
        -11    1    3    3    0    0  0.18881507379E+02 -0.12816538209E+02  0.63686294777E+01  0.23692496998E+02  0.00000000000E+00 0. -1.
         11    1    3    3    0    0 -0.98702659464E+02 -0.29370079238E+02  0.37488908351E+02  0.10959121675E+03  0.00000000000E+00 0.  1.
</event>
<event>
 7    1  0.6145388E-006  0.9155792E+02  0.7561462E-02  0.1299122E+00
         -1   -1    0    0    0  501 -0.00000000000E+00  0.00000000000E+00  0.10455357774E+03  0.10455357774E+03  0.00000000000E+00 0.  1.
          1   -1    0    0  501    0  0.00000000000E+00 -0.00000000000E+00 -0.11957490228E+03  0.11957490228E+03  0.00000000000E+00 0. -1.
         23    2    1    2    0    0  0.18311590685E+02  0.19932665424E+02 -0.10168128947E+02  0.96054236560E+02  0.91599126690E+02 0.  0.
          5    1    1    2  502    0 -0.54553332458E+02 -0.19898996097E+02  0.39717330289E+02  0.70476768181E+02  0.41800000000E+01 0.  1.
         -5    1    1    2    0  502  0.36241741773E+02 -0.33669327464E-01 -0.44570525885E+02  0.57597475274E+02  0.41800000000E+01 0.  1.
        -11    1    3    3    0    0  0.27888563707E+02  0.49784594648E+02  0.11149097964E+02  0.58142757376E+02  0.00000000000E+00 0.  1.
         11    1    3    3    0    0 -0.95769730224E+01 -0.29851929224E+02 -0.21317226911E+02  0.37911479183E+02  0.00000000000E+00 0. -1.
</event>
<event>
 7    1  0.6145388E-006  0.9068923E+02  0.7561462E-02  0.1301191E+00
          2   -1    0    0  501    0  0.00000000000E+00  0.00000000000E+00  0.18868222016E+03  0.18868222016E+03  0.00000000000E+00 0. -1.
         -2   -1    0    0    0  501 -0.00000000000E+00 -0.00000000000E+00 -0.63460773785E+02  0.63460773785E+02  0.00000000000E+00 0.  1.
         23    2    1    2    0    0  0.19539473308E+02 -0.84872533854E+01  0.64723277454E+02  0.11156827908E+03  0.88343385523E+02 0.  0.
          5    1    1    2  502    0 -0.60685068179E+02 -0.11971263810E+01 -0.65626185188E+01  0.61193553364E+02  0.41800000000E+01 0.  1.
         -5    1    1    2    0  502  0.41145594872E+02  0.96843797663E+01  0.67060787439E+02  0.79381161498E+02  0.41800000000E+01 0.  1.
        -11    1    3    3    0    0 -0.16373550741E+02  0.24387359391E+02  0.54361815732E+02  0.61790318592E+02  0.00000000000E+00 0.  1.
         11    1    3    3    0    0  0.35913024049E+02 -0.32874612777E+02  0.10361461722E+02  0.49777960490E+02  0.00000000000E+00 0. -1.
</event>
<event>
 7    1  0.6145388E-006  0.9024240E+02  0.7561462E-02  0.1302266E+00
         -3   -1    0    0    0  501 -0.00000000000E+00  0.00000000000E+00  0.88786721590E+03  0.88786721590E+03  0.00000000000E+00 0.  1.
          3   -1    0    0  501    0  0.00000000000E+00 -0.00000000000E+00 -0.21893325151E+02  0.21893325151E+02  0.00000000000E+00 0. -1.
         23    2    1    2    0    0  0.55297894782E+01 -0.69530774240E+02  0.20326052917E+03  0.23175102127E+03  0.86767424788E+02 0.  0.
          5    1    1    2  502    0 -0.12700471048E+02  0.50705120163E+02  0.84623149179E+02  0.99553307090E+02  0.41800000000E+01 0. -1.
         -5    1    1    2    0  502  0.71706815699E+01  0.18825654077E+02  0.57809021241E+03  0.57845621270E+03  0.41800000000E+01 0. -1.
        -11    1    3    3    0    0 -0.38207906991E+02 -0.31881570258E+02  0.12477682382E+03  0.13433366831E+03  0.00000000000E+00 0.  1.
         11    1    3    3    0    0  0.43737696470E+02 -0.37649203982E+02  0.78483705347E+02  0.97417352961E+02  0.00000000000E+00 0. -1.
</event>
<event>
 7    1  0.6145388E-006  0.1119642E+03  0.7561462E-02  0.1256975E+00
         -1   -1    0    0    0  501 -0.00000000000E+00  0.00000000000E+00  0.91825252814E+02  0.91825252814E+02  0.00000000000E+00 0.  1.
          1   -1    0    0  501    0  0.00000000000E+00 -0.00000000000E+00 -0.37616136608E+03  0.37616136608E+03  0.00000000000E+00 0. -1.
         23    2    1    2    0    0  0.47843093034E+02 -0.68618747573E+02 -0.29191199578E+03  0.31731547968E+03  0.92081519812E+02 0.  0.
          5    1    1    2  502    0 -0.73989096674E+02  0.85481467153E+01 -0.23262488004E+02  0.78141365403E+02  0.41800000000E+01 0.  1.
         -5    1    1    2    0  502  0.26146003640E+02  0.60070600858E+02  0.30838370518E+02  0.72529773817E+02  0.41800000000E+01 0.  1.
        -11    1    3    3    0    0  0.34214173059E+02 -0.47223245119E+02 -0.28516422786E+03  0.29106576812E+03  0.00000000000E+00 0. -1.
         11    1    3    3    0    0  0.13628919975E+02 -0.21395502454E+02 -0.67477679190E+01  0.26249711557E+02  0.00000000000E+00 0.  1.
</event>
<event>
 7    1  0.6145388E-006  0.1393035E+03  0.7561462E-02  0.1214269E+00
          2   -1    0    0  501    0  0.00000000000E+00  0.00000000000E+00  0.33594398975E+03  0.33594398975E+03  0.00000000000E+00 0. -1.
         -2   -1    0    0    0  501 -0.00000000000E+00 -0.00000000000E+00 -0.65408941239E+02  0.65408941239E+02  0.00000000000E+00 0.  1.
         23    2    1    2    0    0 -0.46159199280E+02  0.74175681918E+02  0.16234612769E+03  0.21430865326E+03  0.10926678462E+03 0.  0.
          5    1    1    2  502    0  0.88251819592E+02 -0.55903754729E+02  0.60790740013E+02  0.12094048092E+03  0.41800000000E+01 0.  1.
         -5    1    1    2    0  502 -0.42092620312E+02 -0.18271927189E+02  0.47398180805E+02  0.66103796802E+02  0.41800000000E+01 0.  1.
        -11    1    3    3    0    0 -0.52764507663E+02  0.93607209702E+02  0.93399771054E+02  0.14237246999E+03  0.00000000000E+00 0.  1.
         11    1    3    3    0    0  0.66053083839E+01 -0.19431527784E+02  0.68946356637E+02  0.71936183277E+02  0.00000000000E+00 0. -1.
</event>
<event>
 6    1  0.6145388E-006  0.1553602E+03  0.7561462E-02  0.1194037E+00
         -1   -1    0    0    0  501 -0.00000000000E+00  0.00000000000E+00  0.19744616149E+03  0.19744616149E+03  0.00000000000E+00 0.  1.
          1   -1    0    0  501    0  0.00000000000E+00 -0.00000000000E+00 -0.84412434016E+03  0.84412434016E+03  0.00000000000E+00 0. -1.
          5    1    1    2  502    0 -0.16127406841E+02 -0.47148764427E+02  0.33504701107E+02  0.60192496498E+02  0.41800000000E+01 0. -1.
         -5    1    1    2    0  502  0.15535012125E+02  0.52609628733E+02  0.13228047147E+03  0.14326445885E+03  0.41800000000E+01 0.  1.
        -11    1    1    2    0    0  0.10194034012E+03 -0.18208579587E+02 -0.39882460564E+03  0.41204908855E+03  0.00000000000E+00 0.  1.
         11    1    1    2    0    0 -0.10134794540E+03  0.12747715281E+02 -0.41363874561E+03  0.42606445775E+03  0.00000000000E+00 0. -1.
</event>
<event>
 7    1  0.6145388E-006  0.2533323E+03  0.7561462E-02  0.1111217E+00
          2   -1    0    0  501    0  0.00000000000E+00  0.00000000000E+00  0.19505320047E+04  0.19505320047E+04  0.00000000000E+00 0. -1.
         -2   -1    0    0    0  501 -0.00000000000E+00 -0.00000000000E+00 -0.39920371219E+02  0.39920371219E+02  0.00000000000E+00 0.  1.
         23    2    1    2    0    0 -0.13959559985E+03  0.18288539886E+03  0.82696137857E+03  0.86328804747E+03  0.92017012854E+02 0.  0.
          5    1    1    2  502    0 -0.15254933204E+02 -0.67402003014E+02  0.63386328885E+03  0.63763303267E+03  0.41800000000E+01 0. -1.
         -5    1    1    2    0  502  0.15485053306E+03 -0.11548339584E+03  0.44978696603E+03  0.48953129574E+03  0.41800000000E+01 0.  1.
        -11    1    3    3    0    0 -0.79887742603E+02  0.16258311929E+03  0.54342974252E+03  0.57282737989E+03  0.00000000000E+00 0. -1.
         11    1    3    3    0    0 -0.59707857248E+02  0.20302279565E+02  0.28353163604E+03  0.29046066758E+03  0.00000000000E+00 0.  1.
</event>
<event>
 7    1  0.6145388E-006  0.1060666E+03  0.7561462E-02  0.1268032E+00
         -2   -1    0    0    0  501 -0.00000000000E+00  0.00000000000E+00  0.39708347493E+03  0.39708347493E+03  0.00000000000E+00 0. -1.
          2   -1    0    0  501    0  0.00000000000E+00 -0.00000000000E+00 -0.36002454201E+02  0.36002454201E+02  0.00000000000E+00 0.  1.
         23    2    1    2    0    0 -0.11193744971E+02 -0.48396907287E+02  0.15320053377E+03  0.18543724829E+03  0.91918490771E+02 0.  0.
          5    1    1    2  502    0  0.57558577744E+02 -0.11185690173E+02  0.84312996216E+02  0.10278260197E+03  0.41800000000E+01 0. -1.
         -5    1    1    2    0  502 -0.46364832773E+02  0.59582597460E+02  0.12356749074E+03  0.14486607887E+03  0.41800000000E+01 0. -1.
        -11    1    3    3    0    0  0.17947441327E+02 -0.44939595592E+02  0.26075625595E+02  0.54969229141E+02  0.00000000000E+00 0.  1.
         11    1    3    3    0    0 -0.29141186297E+02 -0.34573116948E+01  0.12712490817E+03  0.13046801915E+03  0.00000000000E+00 0. -1.
</event>
<event>
 7    1  0.6145388E-006  0.1082203E+03  0.7561462E-02  0.1263902E+00
          3   -1    0    0  501    0  0.00000000000E+00  0.00000000000E+00  0.12985281774E+03  0.12985281774E+03  0.00000000000E+00 0. -1.
         -3   -1    0    0    0  501 -0.00000000000E+00 -0.00000000000E+00 -0.12305632379E+03  0.12305632379E+03  0.00000000000E+00 0.  1.
         23    2    1    2    0    0  0.50447370128E+02  0.39788265376E+02  0.12211057592E+02  0.11218316630E+03  0.91147735344E+02 0.  0.
          5    1    1    2  502    0 -0.30461383820E+02 -0.84926571772E+02 -0.10475345996E+02  0.90926474532E+02  0.41800000000E+01 0. -1.
         -5    1    1    2    0  502 -0.19985986307E+02  0.45138306396E+02  0.50607823541E+01  0.49799500710E+02  0.41800000000E+01 0. -1.
        -11    1    3    3    0    0  0.11057461303E+02  0.35230640626E+02 -0.34760379342E+02  0.50712419203E+02  0.00000000000E+00 0.  1.
         11    1    3    3    0    0  0.39389908824E+02  0.45576247502E+01  0.46971436934E+02  0.61470747093E+02  0.00000000000E+00 0. -1.
</event>
<event>
 7    1  0.6145388E-006  0.1108685E+03  0.7561462E-02  0.1258970E+00
          1   -1    0    0  501    0  0.00000000000E+00  0.00000000000E+00  0.71968236331E+02  0.71968236331E+02  0.00000000000E+00 0. -1.
         -1   -1    0    0    0  501 -0.00000000000E+00 -0.00000000000E+00 -0.24748611200E+03  0.24748611200E+03  0.00000000000E+00 0.  1.
         23    2    1    2    0    0  0.60596677569E+02  0.32564799318E+02 -0.41073389038E+02  0.12331251310E+03  0.93736487623E+02 0.  0.
          5    1    1    2  502    0  0.17101404053E+01 -0.42221828074E+02 -0.12529362962E+03  0.13229351220E+03  0.41800000000E+01 0.  1.
         -5    1    1    2    0  502 -0.62306817974E+02  0.96570287560E+01 -0.91508570089E+01  0.63848323036E+02  0.41800000000E+01 0.  1.
        -11    1    3    3    0    0  0.14148923004E+02  0.60333000800E+02 -0.18444949272E+02  0.64656625038E+02  0.00000000000E+00 0.  1.
         11    1    3    3    0    0  0.46447754565E+02 -0.27768201481E+02 -0.22628439766E+02  0.58655888058E+02  0.00000000000E+00 0. -1.
</event>
<event>
 7    1  0.6145388E-006  0.1109492E+03  0.7561462E-02  0.1258822E+00
          2   -1    0    0  501    0  0.00000000000E+00  0.00000000000E+00  0.63488814970E+03  0.63488814970E+03  0.00000000000E+00 0. -1.
         -2   -1    0    0    0  501 -0.00000000000E+00 -0.00000000000E+00 -0.32156382514E+02  0.32156382514E+02  0.00000000000E+00 0.  1.
         23    2    1    2    0    0  0.88780467439E+02 -0.10865269214E+02  0.32528138431E+03  0.34982829036E+03  0.92584168660E+02 0.  0.
          5    1    1    2  502    0 -0.58403948957E+02 -0.86926489222E+01  0.28635715845E+02  0.65757585273E+02  0.41800000000E+01 0.  1.
         -5    1    1    2    0  502 -0.30376518482E+02  0.19557918136E+02  0.24881466704E+03  0.25145865658E+03  0.41800000000E+01 0.  1.
        -11    1    3    3    0    0 -0.18452707833E+02  0.78931634953E+00  0.75979107969E+02  0.78191753366E+02  0.00000000000E+00 0. -1.
         11    1    3    3    0    0  0.10723317527E+03 -0.11654585564E+02  0.24930227634E+03  0.27163653699E+03  0.00000000000E+00 0.  1.
</event>
<event>
 7    1  0.6145388E-006  0.1107532E+03  0.7561462E-02  0.1259181E+00
          1   -1    0    0  501    0  0.00000000000E+00  0.00000000000E+00  0.46329726252E+03  0.46329726252E+03  0.00000000000E+00 0. -1.
         -1   -1    0    0    0  501 -0.00000000000E+00 -0.00000000000E+00 -0.27424160368E+02  0.27424160368E+02  0.00000000000E+00 0.  1.
         23    2    1    2    0    0  0.31064844620E+02 -0.13376408186E+02  0.18530982245E+03  0.20863461253E+03  0.89692354082E+02 0.  0.
          5    1    1    2  502    0 -0.67640159141E+02 -0.28765204923E+02  0.14317404187E+03  0.16099349927E+03  0.41800000000E+01 0.  1.
         -5    1    1    2    0  502  0.36575314521E+02  0.42141613109E+02  0.10738923783E+03  0.12109331109E+03  0.41800000000E+01 0.  1.
        -11    1    3    3    0    0  0.61634781553E+01 -0.48490704440E+02  0.68556502164E+02  0.84198164286E+02  0.00000000000E+00 0.  1.
         11    1    3    3    0    0  0.24901366465E+02  0.35114296255E+02  0.11675332028E+03  0.12443644824E+03  0.00000000000E+00 0. -1.
</event>
<event>
 7    1  0.6145388E-006  0.1351433E+03  0.7561462E-02  0.1220018E+00
         -1   -1    0    0    0  501 -0.00000000000E+00  0.00000000000E+00  0.58928246449E+02  0.58928246449E+02  0.00000000000E+00 0.  1.
          1   -1    0    0  501    0  0.00000000000E+00 -0.00000000000E+00 -0.31860263349E+03  0.31860263349E+03  0.00000000000E+00 0. -1.
         23    2    1    2    0    0 -0.66342207222E+02  0.51255360132E+02 -0.11744638156E+03  0.17039557810E+03  0.90623397060E+02 0.  0.
          5    1    1    2  502    0  0.78000557246E+02 -0.84481503947E+02 -0.10605724613E+03  0.15648266133E+03  0.41800000000E+01 0.  1.
         -5    1    1    2    0  502 -0.11658350024E+02  0.33226143816E+02 -0.36170759356E+02  0.50652640509E+02  0.41800000000E+01 0.  1.
        -11    1    3    3    0    0 -0.17372426511E+02  0.66300688779E+02 -0.87172066757E+02  0.11088981810E+03  0.00000000000E+00 0. -1.
         11    1    3    3    0    0 -0.48969780711E+02 -0.15045328647E+02 -0.30274314800E+02  0.59505760003E+02  0.00000000000E+00 0.  1.
</event>
<event>
 7    1  0.6145388E-006  0.1075115E+03  0.7561462E-02  0.1265249E+00
          1   -1    0    0  501    0  0.00000000000E+00  0.00000000000E+00  0.99825414456E+02  0.99825414456E+02  0.00000000000E+00 0. -1.
         -1   -1    0    0    0  501 -0.00000000000E+00 -0.00000000000E+00 -0.17079460214E+03  0.17079460214E+03  0.00000000000E+00 0.  1.
         23    2    1    2    0    0  0.38569199488E+02  0.26847603712E+02  0.23921866605E+02  0.10672935592E+03  0.92792902413E+02 0.  0.
          5    1    1    2  502    0 -0.64876195521E+02 -0.46497932003E+02 -0.10244753637E+03  0.12993824893E+03  0.41800000000E+01 0.  1.
         -5    1    1    2    0  502  0.26306996033E+02  0.19650328291E+02  0.75564820836E+01  0.33952411751E+02  0.41800000000E+01 0.  1.
        -11    1    3    3    0    0 -0.26270852663E+02  0.26269670908E+02  0.18925660035E+02  0.41694531020E+02  0.00000000000E+00 0. -1.
         11    1    3    3    0    0  0.64840052151E+02  0.57793280422E+00  0.49962065705E+01  0.65034824897E+02  0.00000000000E+00 0.  1.
</event>
<event>
 7    1  0.6145388E-006  0.1130055E+03  0.7561462E-02  0.1255103E+00
          4   -1    0    0  501    0  0.00000000000E+00  0.00000000000E+00  0.16355290541E+03  0.16355290541E+03  0.00000000000E+00 0. -1.
         -4   -1    0    0    0  501 -0.00000000000E+00 -0.00000000000E+00 -0.11975887880E+03  0.11975887880E+03  0.00000000000E+00 0.  1.
         23    2    1    2    0    0  0.27699431051E+02  0.80858153104E+02  0.40669344017E+02  0.13177759185E+03  0.91684452152E+02 0.  0.
          5    1    1    2  502    0  0.36898729934E+02 -0.62548505600E+02 -0.27307537386E+02  0.77698171289E+02  0.41800000000E+01 0.  1.
         -5    1    1    2    0  502 -0.64598160985E+02 -0.18309647505E+02  0.30432219979E+02  0.73836021068E+02  0.41800000000E+01 0.  1.
        -11    1    3    3    0    0  0.19705554612E+02  0.42947276308E+02  0.69106800229E+02  0.83716947285E+02  0.00000000000E+00 0. -1.
         11    1    3    3    0    0  0.79938764388E+01  0.37910876796E+02 -0.28437456212E+02  0.48060644562E+02  0.00000000000E+00 0.  1.
</event>
<event>
 7    1  0.6145388E-006  0.9862865E+02  0.7561462E-02  0.1283206E+00
          1   -1    0    0  501    0  0.00000000000E+00  0.00000000000E+00  0.13184482195E+03  0.13184482195E+03  0.00000000000E+00 0. -1.
         -1   -1    0    0    0  501 -0.00000000000E+00 -0.00000000000E+00 -0.10731478732E+03  0.10731478732E+03  0.00000000000E+00 0.  1.
         23    2    1    2    0    0  0.33454314145E+02  0.46718806616E+00  0.45011967011E+02  0.10806132779E+03  0.92367548362E+02 0.  0.
          5    1    1    2  502    0  0.27248090668E+02 -0.39563633138E+02 -0.31986354714E+02  0.57864832152E+02  0.41800000000E+01 0. -1.
         -5    1    1    2    0  502 -0.60702404813E+02  0.39096445072E+02  0.11504422335E+02  0.73233449329E+02  0.41800000000E+01 0. -1.
        -11    1    3    3    0    0 -0.18867094224E+02 -0.12720659289E+02 -0.15080944613E+02  0.27298668605E+02  0.00000000000E+00 0.  1.
         11    1    3    3    0    0  0.52321408369E+02  0.13187847355E+02  0.60092911624E+02  0.80762659187E+02  0.00000000000E+00 0. -1.
</event>
<event>
 7    1  0.6145388E-006  0.9131441E+02  0.7561462E-02  0.1299700E+00
          4   -1    0    0  501    0  0.00000000000E+00  0.00000000000E+00  0.10566018910E+03  0.10566018910E+03  0.00000000000E+00 0. -1.
         -4   -1    0    0    0  501 -0.00000000000E+00 -0.00000000000E+00 -0.14423878654E+03  0.14423878654E+03  0.00000000000E+00 0.  1.
         23    2    1    2    0    0  0.10650979686E+02 -0.20497048951E+02  0.11488251759E+02  0.11319190999E+03  0.11021277682E+03 0.  0.
          5    1    1    2  502    0  0.31455335487E+02 -0.19640474546E+02  0.22524548919E+02  0.43589150886E+02  0.41800000000E+01 0. -1.
         -5    1    1    2    0  502 -0.42106315173E+02  0.40137523497E+02 -0.72591398114E+02  0.93117914764E+02  0.41800000000E+01 0. -1.
        -11    1    3    3    0    0  0.33555016220E+01 -0.53289209870E+02 -0.28855257808E+02  0.60692875882E+02  0.00000000000E+00 0.  1.
         11    1    3    3    0    0  0.72954780645E+01  0.32792160919E+02  0.40343509567E+02  0.52499034106E+02  0.00000000000E+00 0. -1.
</event>
<event>
 7    1  0.6145388E-006  0.1588529E+03  0.7561462E-02  0.1189998E+00
         -1   -1    0    0    0  501 -0.00000000000E+00  0.00000000000E+00  0.23965704415E+03  0.23965704415E+03  0.00000000000E+00 0.  1.
          1   -1    0    0  501    0  0.00000000000E+00 -0.00000000000E+00 -0.26252623754E+03  0.26252623754E+03  0.00000000000E+00 0. -1.
         23    2    1    2    0    0  0.14816576714E+03  0.53610926223E+02 -0.17328063613E+03  0.25098810767E+03  0.90230955717E+02 0.  0.
          5    1    1    2  502    0 -0.13905684039E+03 -0.55778668782E+02  0.17148721798E+03  0.22775733376E+03  0.41800000000E+01 0. -1.
         -5    1    1    2    0  502 -0.91089267516E+01  0.21677425584E+01 -0.21075775235E+02  0.23437840261E+02  0.41800000000E+01 0. -1.
        -11    1    3    3    0    0  0.94723717669E+02  0.34366736266E+02 -0.44337592175E+02  0.11008849772E+03  0.00000000000E+00 0.  1.
         11    1    3    3    0    0  0.53442049476E+02  0.19244189957E+02 -0.12894304395E+03  0.14089960995E+03  0.00000000000E+00 0. -1.
</event>
<event>
 7    1  0.6145388E-006  0.1345995E+03  0.7561462E-02  0.1220786E+00
          3   -1    0    0  501    0  0.00000000000E+00  0.00000000000E+00  0.30623722324E+02  0.30623722324E+02  0.00000000000E+00 0. -1.
         -3   -1    0    0    0  501 -0.00000000000E+00 -0.00000000000E+00 -0.76731703064E+03  0.76731703064E+03  0.00000000000E+00 0.  1.
         23    2    1    2    0    0  0.80642222148E+02 -0.55245155204E+02 -0.21968140085E+03  0.25710426974E+03  0.91035665957E+02 0.  0.
          5    1    1    2  502    0 -0.34148097408E+02 -0.25186814993E+02 -0.32171397117E+03  0.32452707106E+03  0.41800000000E+01 0. -1.
         -5    1    1    2    0  502 -0.46494124740E+02  0.80431970197E+02 -0.19529793630E+03  0.21630941216E+03  0.41800000000E+01 0. -1.
        -11    1    3    3    0    0 -0.19965980967E+02 -0.15950260413E+02 -0.43395840100E+02  0.50361196781E+02  0.00000000000E+00 0.  1.
         11    1    3    3    0    0  0.10060820311E+03 -0.39294894791E+02 -0.17628556074E+03  0.20674307296E+03  0.00000000000E+00 0. -1.
</event>
<event>
 7    1  0.6145388E-006  0.1010870E+03  0.7561462E-02  0.1278027E+00
          1   -1    0    0  501    0  0.00000000000E+00  0.00000000000E+00  0.64756097651E+02  0.64756097651E+02  0.00000000000E+00 0. -1.
         -1   -1    0    0    0  501 -0.00000000000E+00 -0.00000000000E+00 -0.31527395590E+03  0.31527395590E+03  0.00000000000E+00 0.  1.
         23    2    1    2    0    0  0.34521265965E+02 -0.33226253345E+02 -0.65409003314E+01  0.10169891267E+03  0.89466103891E+02 0.  0.
          5    1    1    2  502    0 -0.75453389233E+02 -0.50590250260E+01 -0.11573422044E+03  0.13831373706E+03  0.41800000000E+01 0. -1.
         -5    1    1    2    0  502  0.40932123269E+02  0.38285278371E+02 -0.12824273748E+03  0.14001740382E+03  0.41800000000E+01 0. -1.
        -11    1    3    3    0    0 -0.88807578431E+01 -0.24369344651E+02 -0.38961746844E+02  0.46805454124E+02  0.00000000000E+00 0.  1.
         11    1    3    3    0    0  0.43402023808E+02 -0.88569086940E+01  0.32420846513E+02  0.54893458543E+02  0.00000000000E+00 0. -1.
</event>
<event>
 7    1  0.6145388E-006  0.1175787E+03  0.7561462E-02  0.1247146E+00
          1   -1    0    0  501    0  0.00000000000E+00  0.00000000000E+00  0.34728867644E+02  0.34728867644E+02  0.00000000000E+00 0. -1.
         -1   -1    0    0    0  501 -0.00000000000E+00 -0.00000000000E+00 -0.56192364446E+03  0.56192364446E+03  0.00000000000E+00 0.  1.
         23    2    1    2    0    0  0.26993724352E+02  0.40696013310E+02 -0.83807940170E+02  0.13337533484E+03  0.91544428859E+02 0.  0.
          5    1    1    2  502    0 -0.69187698927E+02  0.48252091346E+01 -0.27875534584E+03  0.28728424175E+03  0.41800000000E+01 0. -1.
         -5    1    1    2    0  502  0.42193974576E+02 -0.45521222445E+02 -0.16463149080E+03  0.17599293550E+03  0.41800000000E+01 0. -1.
        -11    1    3    3    0    0  0.52939681505E+02  0.52859206393E+02 -0.64947149107E+02  0.99069863004E+02  0.00000000000E+00 0. -1.
         11    1    3    3    0    0 -0.25945957154E+02 -0.12163193083E+02 -0.18860791062E+02  0.34305471839E+02  0.00000000000E+00 0.  1.
</event>
<event>
 7    1  0.6145388E-006  0.1804560E+03  0.7561462E-02  0.1167363E+00
          2   -1    0    0  501    0  0.00000000000E+00  0.00000000000E+00  0.11638396826E+04  0.11638396826E+04  0.00000000000E+00 0. -1.
         -2   -1    0    0    0  501 -0.00000000000E+00 -0.00000000000E+00 -0.31272125235E+02  0.31272125235E+02  0.00000000000E+00 0.  1.
         23    2    1    2    0    0 -0.14462716797E+03  0.47332594513E+02  0.43595415152E+03  0.47118202867E+03  0.93803463130E+02 0.  0.
          5    1    1    2  502    0 -0.12498022895E+02  0.10979606966E+02  0.17797289127E+02  0.24717771859E+02  0.41800000000E+01 0.  1.
         -5    1    1    2    0  502  0.15712519087E+03 -0.58312201480E+02  0.67881611676E+03  0.69921200735E+03  0.41800000000E+01 0.  1.
        -11    1    3    3    0    0 -0.42221810367E+02  0.59527914327E+02  0.14189889679E+03  0.15956675958E+03  0.00000000000E+00 0. -1.
         11    1    3    3    0    0 -0.10240535760E+03 -0.12195319814E+02  0.29405525474E+03  0.31161526909E+03  0.00000000000E+00 0.  1.
</event>
<event>
 7    1  0.6145388E-006  0.1123511E+03  0.7561462E-02  0.1256277E+00
         -1   -1    0    0    0  501 -0.00000000000E+00  0.00000000000E+00  0.80864370827E+02  0.80864370827E+02  0.00000000000E+00 0. -1.
          1   -1    0    0  501    0  0.00000000000E+00 -0.00000000000E+00 -0.31994845932E+03  0.31994845932E+03  0.00000000000E+00 0.  1.
         23    2    1    2    0    0  0.64570685341E+02  0.49556598217E+02 -0.21636471478E+03  0.24986550921E+03  0.94835927048E+02 0.  0.
          5    1    1    2  502    0 -0.27294507020E+02 -0.74444227455E+02 -0.54095065325E+02  0.96076436275E+02  0.41800000000E+01 0.  1.
         -5    1    1    2    0  502 -0.37276178321E+02  0.24887629238E+02  0.31375691613E+02  0.54870884661E+02  0.41800000000E+01 0.  1.
        -11    1    3    3    0    0  0.25190388570E+02  0.55035867061E+02 -0.49093245463E+02  0.77933619764E+02  0.00000000000E+00 0. -1.
         11    1    3    3    0    0  0.39380296771E+02 -0.54792688444E+01 -0.16727146932E+03  0.17193188945E+03  0.00000000000E+00 0.  1.
</event>
<event>
 7    1  0.6145388E-006  0.1301567E+03  0.7561462E-02  0.1227223E+00
         -2   -1    0    0    0  501 -0.00000000000E+00  0.00000000000E+00  0.20723255421E+03  0.20723255421E+03  0.00000000000E+00 0.  1.
          2   -1    0    0  501    0  0.00000000000E+00 -0.00000000000E+00 -0.17712043226E+03  0.17712043226E+03  0.00000000000E+00 0. -1.
         23    2    1    2    0    0 -0.49693408654E+02 -0.56297406432E+02 -0.12492405109E+03  0.17146340771E+03  0.90304201506E+02 0.  0.
          5    1    1    2  502    0  0.50920162247E+02  0.94473997164E+02  0.11701119334E+03  0.15883101344E+03  0.41800000000E+01 0. -1.
         -5    1    1    2    0  502 -0.12267535935E+01 -0.38176590732E+02  0.38024979702E+02  0.54058565331E+02  0.41800000000E+01 0. -1.
        -11    1    3    3    0    0 -0.72581072582E+01 -0.69627691310E+02 -0.57020368523E+02  0.90288526096E+02  0.00000000000E+00 0.  1.
         11    1    3    3    0    0 -0.42435301396E+02  0.13330284879E+02 -0.67903682564E+02  0.81174881615E+02  0.00000000000E+00 0. -1.
</event>
<event>
 7    1  0.6145388E-006  0.1269726E+03  0.7561462E-02  0.1232018E+00
          1   -1    0    0  501    0  0.00000000000E+00  0.00000000000E+00  0.18705994473E+02  0.18705994473E+02  0.00000000000E+00 0. -1.
         -1   -1    0    0    0  501 -0.00000000000E+00 -0.00000000000E+00 -0.10294014050E+04  0.10294014050E+04  0.00000000000E+00 0.  1.
         23    2    1    2    0    0 -0.81960078323E+02  0.19216520636E+02 -0.41299165465E+03  0.43084915741E+03  0.89342937732E+02 0.  0.
          5    1    1    2  502    0  0.11040615030E+02 -0.57176007507E+02 -0.12783667362E+03  0.14053710733E+03  0.41800000000E+01 0. -1.
         -5    1    1    2    0  502  0.70919463293E+02  0.37959486871E+02 -0.46986708229E+03  0.47672113477E+03  0.41800000000E+01 0.  1.
        -11    1    3    3    0    0  0.11675504919E+02 -0.11580929708E+02 -0.21102028978E+02  0.26753148880E+02  0.00000000000E+00 0.  1.
         11    1    3    3    0    0 -0.93635583242E+02  0.30797450344E+02 -0.39188962568E+03  0.40409600853E+03  0.00000000000E+00 0. -1.
</event>
<event>
 7    1  0.6145388E-006  0.2242654E+03  0.7561462E-02  0.1130742E+00
         -1   -1    0    0    0  501 -0.00000000000E+00  0.00000000000E+00  0.38673252145E+02  0.38673252145E+02  0.00000000000E+00 0.  1.
          1   -1    0    0  501    0  0.00000000000E+00 -0.00000000000E+00 -0.15004609774E+04  0.15004609774E+04  0.00000000000E+00 0. -1.
         23    2    1    2    0    0 -0.17952587647E+03  0.81307908900E+02 -0.98101973667E+03  0.10046950632E+04  0.90398727304E+02 0.  0.
          5    1    1    2  502    0  0.16401333980E+03 -0.15424759659E+02 -0.36027427334E+03  0.39617335003E+03  0.41800000000E+01 0. -1.
         -5    1    1    2    0  502  0.15512536667E+02 -0.65883149241E+02 -0.12049371521E+03  0.13826581628E+03  0.41800000000E+01 0. -1.
        -11    1    3    3    0    0 -0.65017757630E+02 -0.14511046323E+02 -0.34639630459E+03  0.35274392851E+03  0.00000000000E+00 0.  1.
         11    1    3    3    0    0 -0.11450811884E+03  0.95818955223E+02 -0.63462343208E+03  0.65195113468E+03  0.00000000000E+00 0. -1.
</event>
<event>
 7    1  0.6145388E-006  0.1626700E+03  0.7561462E-02  0.1185715E+00
          2   -1    0    0  501    0  0.00000000000E+00  0.00000000000E+00  0.10077458281E+04  0.10077458281E+04  0.00000000000E+00 0. -1.
         -2   -1    0    0    0  501 -0.00000000000E+00 -0.00000000000E+00 -0.31831887212E+02  0.31831887212E+02  0.00000000000E+00 0.  1.
         23    2    1    2    0    0  0.39586895567E+02 -0.12599157460E+03  0.60462385997E+03  0.62612299024E+03  0.94968350989E+02 0.  0.
          5    1    1    2  502    0  0.45273110687E+02  0.42094564582E+02  0.11212123646E+03  0.12810250187E+03  0.41800000000E+01 0. -1.
         -5    1    1    2    0  502 -0.84860006254E+02  0.83897010022E+02  0.25916884446E+03  0.28535222321E+03  0.41800000000E+01 0. -1.
        -11    1    3    3    0    0  0.52563178669E+02 -0.76548114130E+02  0.51179129648E+03  0.52014693374E+03  0.00000000000E+00 0. -1.
         11    1    3    3    0    0 -0.12976283102E+02 -0.49443460473E+02  0.92832563497E+02  0.10597605650E+03  0.00000000000E+00 0.  1.
</event>
<event>
 7    1  0.6145388E-006  0.1007987E+03  0.7561462E-02  0.1278625E+00
         -1   -1    0    0    0  501 -0.00000000000E+00  0.00000000000E+00  0.75258170778E+02  0.75258170778E+02  0.00000000000E+00 0.  1.
          1   -1    0    0  501    0  0.00000000000E+00 -0.00000000000E+00 -0.16680608263E+03  0.16680608263E+03  0.00000000000E+00 0. -1.
         23    2    1    2    0    0  0.86402906060E+01 -0.34458310577E+02 -0.63616098418E+02  0.10904722593E+03  0.81131126674E+02 0.  0.
          5    1    1    2  502    0 -0.58835255086E+02  0.16934578753E+02  0.16563603201E+02  0.63562508994E+02  0.41800000000E+01 0. -1.
         -5    1    1    2    0  502  0.50194964480E+02  0.17523731824E+02 -0.44495416636E+02  0.69454518484E+02  0.41800000000E+01 0. -1.
        -11    1    3    3    0    0 -0.28437773877E+02 -0.40343397306E+02 -0.25537586368E+02  0.55573959790E+02  0.00000000000E+00 0.  1.
         11    1    3    3    0    0  0.37078064483E+02  0.58850867293E+01 -0.38078512050E+02  0.53473266139E+02  0.00000000000E+00 0. -1.
</event>
<event>
 7    1  0.6145388E-006  0.1089646E+03  0.7561462E-02  0.1262499E+00
          2   -1    0    0  501    0  0.00000000000E+00  0.00000000000E+00  0.79155278904E+02  0.79155278904E+02  0.00000000000E+00 0. -1.
         -2   -1    0    0    0  501 -0.00000000000E+00 -0.00000000000E+00 -0.20057118223E+03  0.20057118223E+03  0.00000000000E+00 0.  1.
         23    2    1    2    0    0  0.20623930290E+01  0.56427779192E+02 -0.17694043191E+02  0.10769722264E+03  0.89984803547E+02 0.  0.
          5    1    1    2  502    0 -0.24042365880E+02  0.32076035469E+02 -0.56070367744E+02  0.69052631721E+02  0.41800000000E+01 0.  1.
         -5    1    1    2    0  502  0.21979972851E+02 -0.88503814661E+02 -0.47651492387E+02  0.10297660677E+03  0.41800000000E+01 0.  1.
        -11    1    3    3    0    0 -0.31619669882E+02  0.28906668488E+02  0.22572405353E+02  0.48424296483E+02  0.00000000000E+00 0. -1.
         11    1    3    3    0    0  0.33682062911E+02  0.27521110704E+02 -0.40266448543E+02  0.59272926152E+02  0.00000000000E+00 0.  1.
</event>
<event>
 7    1  0.6145388E-006  0.1583303E+03  0.7561462E-02  0.1190595E+00
          1   -1    0    0  501    0  0.00000000000E+00  0.00000000000E+00  0.43483892291E+02  0.43483892291E+02  0.00000000000E+00 0. -1.
         -1   -1    0    0    0  501 -0.00000000000E+00 -0.00000000000E+00 -0.75844819518E+03  0.75844819518E+03  0.00000000000E+00 0.  1.
         23    2    1    2    0    0 -0.10730806204E+03 -0.67615390181E+02 -0.14853066807E+03  0.20814681604E+03  0.71950514277E+02 0.  0.
          5    1    1    2  502    0  0.11526661847E+03  0.92612928284E+02 -0.42841280799E+03  0.45323123708E+03  0.41800000000E+01 0. -1.
         -5    1    1    2    0  502 -0.79585564297E+01 -0.24997538103E+02 -0.13802082683E+03  0.14055403434E+03  0.41800000000E+01 0. -1.
        -11    1    3    3    0    0 -0.10843457917E+03 -0.41610749463E+02 -0.10082627583E+03  0.15380328452E+03  0.00000000000E+00 0. -1.
         11    1    3    3    0    0  0.11265171357E+01 -0.26004640718E+02 -0.47704392236E+02  0.54343531523E+02  0.00000000000E+00 0.  1.
</event>
<event>
 7    1  0.6145388E-006  0.1273894E+03  0.7561462E-02  0.1231382E+00
          2   -1    0    0  501    0  0.00000000000E+00  0.00000000000E+00  0.64507614712E+03  0.64507614712E+03  0.00000000000E+00 0. -1.
         -2   -1    0    0    0  501 -0.00000000000E+00 -0.00000000000E+00 -0.34603149352E+02  0.34603149352E+02  0.00000000000E+00 0.  1.
         23    2    1    2    0    0 -0.50668768859E+02 -0.85696993245E+02  0.25893514125E+03  0.29349704645E+03  0.95821762190E+02 0.  0.
          5    1    1    2  502    0  0.75944246477E+02  0.52048015412E+02  0.12263755594E+03  0.15340784533E+03  0.41800000000E+01 0. -1.
         -5    1    1    2    0  502 -0.25275477618E+02  0.33648977833E+02  0.22890030058E+03  0.23277440470E+03  0.41800000000E+01 0. -1.
        -11    1    3    3    0    0  0.53108074585E+01 -0.57315743517E+02  0.19732092352E+03  0.20554524074E+03  0.00000000000E+00 0.  1.
         11    1    3    3    0    0 -0.55979576317E+02 -0.28381249728E+02  0.61614217727E+02  0.87951805706E+02  0.00000000000E+00 0. -1.
</event>
<event>
 7    1  0.6145388E-006  0.2270311E+03  0.7561462E-02  0.1128747E+00
         -4   -1    0    0    0  501 -0.00000000000E+00  0.00000000000E+00  0.10668821281E+03  0.10668821281E+03  0.00000000000E+00 0.  1.
          4   -1    0    0  501    0  0.00000000000E+00 -0.00000000000E+00 -0.59950293219E+03  0.59950293219E+03  0.00000000000E+00 0. -1.
         23    2    1    2    0    0 -0.21318116226E+03 -0.26139750665E+02 -0.34446938301E+03  0.41673720519E+03  0.94240372747E+02 0.  0.
          5    1    1    2  502    0  0.14667447443E+01 -0.83488537041E+01 -0.54444806335E+02  0.55259062923E+02  0.41800000000E+01 0.  1.
         -5    1    1    2    0  502  0.21171441752E+03  0.34488604369E+02 -0.93900530037E+02  0.23419487688E+03  0.41800000000E+01 0.  1.
        -11    1    3    3    0    0 -0.70767138632E+02 -0.48658741908E+02 -0.90985877843E+02  0.12511631005E+03  0.00000000000E+00 0.  1.
         11    1    3    3    0    0 -0.14241402363E+03  0.22518991243E+02 -0.25348350516E+03  0.29162089514E+03  0.00000000000E+00 0. -1.
</event>
<event>
 7    1  0.6145388E-006  0.1159573E+03  0.7561462E-02  0.1249919E+00
         -2   -1    0    0    0  501 -0.00000000000E+00  0.00000000000E+00  0.83801216411E+02  0.83801216411E+02  0.00000000000E+00 0. -1.
          2   -1    0    0  501    0  0.00000000000E+00 -0.00000000000E+00 -0.20736859533E+03  0.20736859533E+03  0.00000000000E+00 0.  1.
         23    2    1    2    0    0 -0.65726117883E+02  0.10028647903E+02 -0.98207828485E+02  0.14725798793E+03  0.87290555524E+02 0.  0.
          5    1    1    2  502    0  0.71988236926E+02  0.43039258103E+02 -0.32073467502E+02  0.89893624420E+02  0.41800000000E+01 0.  1.
         -5    1    1    2    0  502 -0.62621190427E+01 -0.53067906006E+02  0.67139170660E+01  0.54018199388E+02  0.41800000000E+01 0.  1.
        -11    1    3    3    0    0 -0.31537204773E+02 -0.28725652503E+02 -0.81569244762E+01  0.43431484128E+02  0.00000000000E+00 0.  1.
         11    1    3    3    0    0 -0.34188913110E+02  0.38754300407E+02 -0.90050904009E+02  0.10382650381E+03  0.00000000000E+00 0. -1.
</event>
<event>
 7    1  0.6145388E-006  0.1125441E+03  0.7561462E-02  0.1255930E+00
          1   -1    0    0  501    0  0.00000000000E+00  0.00000000000E+00  0.22916640456E+03  0.22916640456E+03  0.00000000000E+00 0. -1.
         -1   -1    0    0    0  501 -0.00000000000E+00 -0.00000000000E+00 -0.81338066086E+02  0.81338066086E+02  0.00000000000E+00 0.  1.
         23    2    1    2    0    0  0.12516183428E+02 -0.39345866209E+02  0.14905389271E+03  0.17877157344E+03  0.89651885114E+02 0.  0.
          5    1    1    2  502    0 -0.14480110213E+02 -0.43790105805E+02 -0.11824569621E+02  0.47796859780E+02  0.41800000000E+01 0. -1.
         -5    1    1    2    0  502  0.19639267844E+01  0.83135972014E+02  0.10599015387E+02  0.83936037423E+02  0.41800000000E+01 0. -1.
        -11    1    3    3    0    0  0.25363673088E+02 -0.63376548279E+02  0.83992304101E+02  0.10823405163E+03  0.00000000000E+00 0.  1.
         11    1    3    3    0    0 -0.12847489660E+02  0.24030682069E+02  0.65061588609E+02  0.70537521813E+02  0.00000000000E+00 0. -1.
</event>
<event>
 7    1  0.6145388E-006  0.8672379E+02  0.7561462E-02  0.1310985E+00
          2   -1    0    0  501    0  0.00000000000E+00  0.00000000000E+00  0.41475312135E+03  0.41475312135E+03  0.00000000000E+00 0. -1.
         -2   -1    0    0    0  501 -0.00000000000E+00 -0.00000000000E+00 -0.38975742160E+02  0.38975742160E+02  0.00000000000E+00 0.  1.
         23    2    1    2    0    0  0.58675255379E+02  0.19120879084E+02  0.20426466600E+03  0.23265768051E+03  0.92720811641E+02 0.  0.
          5    1    1    2  502    0 -0.50809432303E+02 -0.14665905021E+02  0.39313421173E+01  0.53194125916E+02  0.41800000000E+01 0. -1.
         -5    1    1    2    0  502 -0.78658230758E+01 -0.44549740624E+01  0.16758137107E+03  0.16787705709E+03  0.41800000000E+01 0. -1.
        -11    1    3    3    0    0 -0.12250621582E+02  0.35579089264E+02  0.84459112758E+02  0.92462376402E+02  0.00000000000E+00 0. -1.
         11    1    3    3    0    0  0.70925876961E+02 -0.16458210181E+02  0.11980555324E+03  0.14019530411E+03  0.00000000000E+00 0.  1.
</event>
<event>
 7    1  0.6145388E-006  0.1045950E+03  0.7561462E-02  0.1270920E+00
          1   -1    0    0  501    0  0.00000000000E+00  0.00000000000E+00  0.56740762680E+03  0.56740762680E+03  0.00000000000E+00 0. -1.
         -1   -1    0    0    0  501 -0.00000000000E+00 -0.00000000000E+00 -0.28441559737E+02  0.28441559737E+02  0.00000000000E+00 0.  1.
         23    2    1    2    0    0  0.56037346294E+02  0.51468538205E+01  0.32012143118E+03  0.33758817311E+03  0.91221541535E+02 0.  0.
          5    1    1    2  502    0 -0.79642343212E+02  0.10027329466E+02  0.69544239506E+02  0.10628886968E+03  0.41800000000E+01 0.  1.
         -5    1    1    2    0  502  0.23604996918E+02 -0.15174183287E+02  0.14930039638E+03  0.15197214375E+03  0.41800000000E+01 0.  1.
        -11    1    3    3    0    0 -0.45380905466E+01 -0.30043115025E+02  0.49804063037E+02  0.58340618108E+02  0.00000000000E+00 0.  1.
         11    1    3    3    0    0  0.60575436841E+02  0.35189968845E+02  0.27031736815E+03  0.27924755501E+03  0.00000000000E+00 0. -1.
</event>
<event>
 7    1  0.6145388E-006  0.1054935E+03  0.7561462E-02  0.1269150E+00
          1   -1    0    0  501    0  0.00000000000E+00  0.00000000000E+00  0.20843821924E+03  0.20843821924E+03  0.00000000000E+00 0. -1.
         -1   -1    0    0    0  501 -0.00000000000E+00 -0.00000000000E+00 -0.78252887888E+02  0.78252887888E+02  0.00000000000E+00 0.  1.
         23    2    1    2    0    0 -0.50942417920E+02 -0.42541844798E+02  0.66775695525E+02  0.13153176799E+03  0.91851368934E+02 0.  0.
          5    1    1    2  502    0  0.53058229099E+02 -0.73850432615E+01  0.85002727765E+02  0.10056167593E+03  0.41800000000E+01 0. -1.
         -5    1    1    2    0  502 -0.21158111790E+01  0.49926888060E+02 -0.21593091936E+02  0.54597663207E+02  0.41800000000E+01 0. -1.
        -11    1    3    3    0    0 -0.10192901845E+02 -0.61376102512E+02  0.59436398706E+02  0.86044213627E+02  0.00000000000E+00 0.  1.
         11    1    3    3    0    0 -0.40749516076E+02  0.18834257714E+02  0.73392968191E+01  0.45487554362E+02  0.00000000000E+00 0. -1.
</event>
<event>
 7    1  0.6145388E-006  0.1299286E+03  0.7561462E-02  0.1227562E+00
          2   -1    0    0  501    0  0.00000000000E+00  0.00000000000E+00  0.42094520297E+03  0.42094520297E+03  0.00000000000E+00 0. -1.
         -2   -1    0    0    0  501 -0.00000000000E+00 -0.00000000000E+00 -0.49076347890E+02  0.49076347890E+02  0.00000000000E+00 0.  1.
         23    2    1    2    0    0 -0.55342382926E+02 -0.76311475594E+02  0.16585260556E+03  0.21122219978E+03  0.90672544100E+02 0.  0.
          5    1    1    2  502    0 -0.47912185707E+01 -0.18144944825E+02  0.10870148573E+03  0.11038876845E+03  0.41800000000E+01 0.  1.
         -5    1    1    2    0  502  0.60133601497E+02  0.94456420419E+02  0.97314763790E+02  0.14841058264E+03  0.41800000000E+01 0.  1.
        -11    1    3    3    0    0 -0.72457787821E+02 -0.28612866469E+02  0.80955022210E+02  0.11235009018E+03  0.00000000000E+00 0.  1.
         11    1    3    3    0    0  0.17115404895E+02 -0.47698609125E+02  0.84897583348E+02  0.98872109594E+02  0.00000000000E+00 0. -1.
</event>
<event>
 7    1  0.6145388E-006  0.1089686E+03  0.7561462E-02  0.1262492E+00
          1   -1    0    0  501    0  0.00000000000E+00  0.00000000000E+00  0.72724077996E+02  0.72724077996E+02  0.00000000000E+00 0. -1.
         -1   -1    0    0    0  501 -0.00000000000E+00 -0.00000000000E+00 -0.21717671009E+03  0.21717671009E+03  0.00000000000E+00 0.  1.
         23    2    1    2    0    0 -0.49590226283E+02  0.73753172762E+01 -0.19932909662E+02  0.10641569370E+03  0.91724550309E+02 0.  0.
          5    1    1    2  502    0 -0.50610309580E+01  0.47912945387E+02 -0.18118091962E+02  0.51643024954E+02  0.41800000000E+01 0.  1.
         -5    1    1    2    0  502  0.54651257241E+02 -0.55288262664E+02 -0.10640163047E+03  0.13184206944E+03  0.41800000000E+01 0.  1.
        -11    1    3    3    0    0 -0.36141418995E+01 -0.31383231700E+02  0.16971671224E+02  0.35860938049E+02  0.00000000000E+00 0. -1.
         11    1    3    3    0    0 -0.45976084384E+02  0.38758548976E+02 -0.36904580886E+02  0.70554755647E+02  0.00000000000E+00 0.  1.
</event>
<event>
 7    1  0.6145388E-006  0.1086224E+03  0.7561462E-02  0.1263142E+00
         -1   -1    0    0    0  501 -0.00000000000E+00  0.00000000000E+00  0.99994807199E+02  0.99994807199E+02  0.00000000000E+00 0.  1.
          1   -1    0    0  501    0  0.00000000000E+00 -0.00000000000E+00 -0.12411027867E+03  0.12411027867E+03  0.00000000000E+00 0. -1.
         23    2    1    2    0    0 -0.29270304686E+01  0.71408221998E+01 -0.53041108883E+01  0.93400501154E+02  0.92929872347E+02 0.  0.
          5    1    1    2  502    0  0.28268031423E+02  0.55068586130E+02 -0.90189622371E+01  0.62693260074E+02  0.41800000000E+01 0. -1.
         -5    1    1    2    0  502 -0.25341000954E+02 -0.62209408330E+02 -0.97923983474E+01  0.68011324642E+02  0.41800000000E+01 0.  1.
        -11    1    3    3    0    0  0.78543271971E+00 -0.40303758600E+02  0.13084497087E+02  0.42381764072E+02  0.00000000000E+00 0.  1.
         11    1    3    3    0    0 -0.37124631883E+01  0.47444580800E+02 -0.18388607975E+02  0.51018737082E+02  0.00000000000E+00 0. -1.
</event>
<event>
 7    1  0.6145388E-006  0.1027639E+03  0.7561462E-02  0.1274589E+00
          3   -1    0    0  501    0  0.00000000000E+00  0.00000000000E+00  0.11825933268E+03  0.11825933268E+03  0.00000000000E+00 0. -1.
         -3   -1    0    0    0  501 -0.00000000000E+00 -0.00000000000E+00 -0.23186385128E+03  0.23186385128E+03  0.00000000000E+00 0.  1.
         23    2    1    2    0    0 -0.52233656831E+02 -0.57666918460E+02  0.49865227841E+02  0.13006836161E+03  0.91528188849E+02 0.  0.
          5    1    1    2  502    0  0.45838938134E+02  0.15340541015E+02 -0.16978683710E+03  0.17658307648E+03  0.41800000000E+01 0. -1.
         -5    1    1    2    0  502  0.63947186967E+01  0.42326377445E+02  0.63170906507E+01  0.43471745872E+02  0.41800000000E+01 0. -1.
        -11    1    3    3    0    0 -0.70101921771E+02 -0.20950155505E+02  0.11546732463E+02  0.74071016479E+02  0.00000000000E+00 0.  1.
         11    1    3    3    0    0  0.17868264939E+02 -0.36716762955E+02  0.38318495378E+02  0.55997345132E+02  0.00000000000E+00 0. -1.
</event>
<event>
 7    1  0.6145388E-006  0.8801627E+02  0.7561462E-02  0.1307728E+00
          2   -1    0    0  501    0  0.00000000000E+00  0.00000000000E+00  0.36194547082E+03  0.36194547082E+03  0.00000000000E+00 0. -1.
         -2   -1    0    0    0  501 -0.00000000000E+00 -0.00000000000E+00 -0.39153367659E+02  0.39153367659E+02  0.00000000000E+00 0.  1.
         23    2    1    2    0    0 -0.28051136875E+01 -0.52599829116E+02  0.20658272438E+03  0.22784931307E+03  0.80400726151E+02 0.  0.
          5    1    1    2  502    0  0.27891628964E+02  0.90345870854E+01  0.11909481577E+03  0.12272169439E+03  0.41800000000E+01 0. -1.
         -5    1    1    2    0  502 -0.25086515276E+02  0.43565242031E+02 -0.28854369875E+01  0.50527831029E+02  0.41800000000E+01 0.  1.
        -11    1    3    3    0    0  0.38190699796E+01 -0.73729649452E+02  0.16405460424E+03  0.17990152772E+03  0.00000000000E+00 0. -1.
         11    1    3    3    0    0 -0.66241836671E+01  0.21129820336E+02  0.42528120141E+02  0.47947785344E+02  0.00000000000E+00 0.  1.
</event>
<event>
 7    1  0.6145388E-006  0.1094225E+03  0.7561462E-02  0.1261643E+00
          1   -1    0    0  501    0  0.00000000000E+00  0.00000000000E+00  0.41928758025E+02  0.41928758025E+02  0.00000000000E+00 0. -1.
         -1   -1    0    0    0  501 -0.00000000000E+00 -0.00000000000E+00 -0.30798319497E+03  0.30798319497E+03  0.00000000000E+00 0.  1.
         23    2    1    2    0    0  0.22011764775E+02 -0.36516268627E+02 -0.91320103419E+02  0.13637378551E+03  0.91872152602E+02 0.  0.
          5    1    1    2  502    0 -0.46033925743E+02  0.66593669327E+02 -0.94894632391E+02  0.12480505907E+03  0.41800000000E+01 0. -1.
         -5    1    1    2    0  502  0.24022160968E+02 -0.30077400699E+02 -0.79839701140E+02  0.88733108412E+02  0.41800000000E+01 0.  1.
        -11    1    3    3    0    0  0.93769786828E+01  0.29961366722E+02 -0.42928223229E+02  0.53183113623E+02  0.00000000000E+00 0.  1.
         11    1    3    3    0    0  0.12634786092E+02 -0.66477635349E+02 -0.48391880190E+02  0.83190671890E+02  0.00000000000E+00 0. -1.
</event>
<event>
 7    1  0.6145388E-006  0.1414057E+03  0.7561462E-02  0.1211450E+00
         -1   -1    0    0    0  501 -0.00000000000E+00  0.00000000000E+00  0.27145301882E+02  0.27145301882E+02  0.00000000000E+00 0.  1.
          1   -1    0    0  501    0  0.00000000000E+00 -0.00000000000E+00 -0.75561203647E+03  0.75561203647E+03  0.00000000000E+00 0. -1.
         23    2    1    2    0    0 -0.35804563130E+02 -0.82240345240E+02 -0.34513150160E+03  0.36967287845E+03  0.97451744672E+02 0.  0.
          5    1    1    2  502    0  0.79654491167E+02  0.31681450227E+02 -0.23871084256E+03  0.25367083200E+03  0.41800000000E+01 0. -1.
         -5    1    1    2    0  502 -0.43849928037E+02  0.50558895012E+02 -0.14462439042E+03  0.15941362790E+03  0.41800000000E+01 0. -1.
        -11    1    3    3    0    0 -0.34844189244E+02 -0.10321267512E+03 -0.31178568613E+03  0.33026850880E+03  0.00000000000E+00 0.  1.
         11    1    3    3    0    0 -0.96037388623E+00  0.20972329875E+02 -0.33345815475E+02  0.39404369657E+02  0.00000000000E+00 0. -1.
</event>
<event>
 7    1  0.6145388E-006  0.1577941E+03  0.7561462E-02  0.1191210E+00
          2   -1    0    0  501    0  0.00000000000E+00  0.00000000000E+00  0.46701793033E+02  0.46701793033E+02  0.00000000000E+00 0. -1.
         -2   -1    0    0    0  501 -0.00000000000E+00 -0.00000000000E+00 -0.71500301974E+03  0.71500301974E+03  0.00000000000E+00 0.  1.
         23    2    1    2    0    0  0.66475172401E+02  0.12208637395E+03 -0.22253813021E+03  0.27830421921E+03  0.92768463294E+02 0.  0.
          5    1    1    2  502    0 -0.84249742696E+02 -0.41688236418E+02 -0.15640751164E+03  0.18252865610E+03  0.41800000000E+01 0.  1.
         -5    1    1    2    0  502  0.17774570295E+02 -0.80398137530E+02 -0.28935558485E+03  0.30087193746E+03  0.41800000000E+01 0.  1.
        -11    1    3    3    0    0  0.50240156587E+02  0.89223584587E+02 -0.21865670073E+03  0.24144497128E+03  0.00000000000E+00 0.  1.
         11    1    3    3    0    0  0.16235015814E+02  0.32862789362E+02 -0.38814294774E+01  0.36859247929E+02  0.00000000000E+00 0. -1.
</event>
<event>
 7    1  0.6145388E-006  0.1106572E+03  0.7561462E-02  0.1259358E+00
         -1   -1    0    0    0  501 -0.00000000000E+00  0.00000000000E+00  0.69616830972E+02  0.69616830972E+02  0.00000000000E+00 0.  1.
          1   -1    0    0  501    0  0.00000000000E+00 -0.00000000000E+00 -0.23341192799E+03  0.23341192799E+03  0.00000000000E+00 0. -1.
         23    2    1    2    0    0 -0.34042265195E+02 -0.15967205552E+02 -0.13569493730E+03  0.16941896967E+03  0.94211696726E+02 0.  0.
          5    1    1    2  502    0  0.28792234528E+02 -0.53113539616E+02 -0.19772262785E+02  0.63706009412E+02  0.41800000000E+01 0.  1.
         -5    1    1    2    0  502  0.52500306673E+01  0.69080745167E+02 -0.83278969299E+01  0.69903779885E+02  0.41800000000E+01 0.  1.
        -11    1    3    3    0    0 -0.36612421794E+02 -0.47353721635E+02 -0.12029379548E+03  0.13436309618E+03  0.00000000000E+00 0. -1.
         11    1    3    3    0    0  0.25701565983E+01  0.31386516084E+02 -0.15401141822E+02  0.35055873491E+02  0.00000000000E+00 0.  1.
</event>
<event>
 7    1  0.6145388E-006  0.9580519E+02  0.7561462E-02  0.1289373E+00
         -1   -1    0    0    0  501 -0.00000000000E+00  0.00000000000E+00  0.33357217372E+03  0.33357217372E+03  0.00000000000E+00 0.  1.
          1   -1    0    0  501    0  0.00000000000E+00 -0.00000000000E+00 -0.47299792265E+02  0.47299792265E+02  0.00000000000E+00 0. -1.
         23    2    1    2    0    0  0.60639699944E+02 -0.28188253441E+01  0.95697244726E+02  0.14496781642E+03  0.90402357069E+02 0.  0.
          5    1    1    2  502    0 -0.33683652283E+02 -0.40747109605E+02  0.18262615903E+02  0.56088420480E+02  0.41800000000E+01 0. -1.
         -5    1    1    2    0  502 -0.26956047661E+02  0.43565934949E+02  0.17231252082E+03  0.17981572908E+03  0.41800000000E+01 0. -1.
        -11    1    3    3    0    0 -0.11731137950E+02 -0.86446365770E+01  0.64186402915E+02  0.65819781664E+02  0.00000000000E+00 0.  1.
         11    1    3    3    0    0  0.72370837894E+02  0.58258112329E+01  0.31510841811E+02  0.79148034755E+02  0.00000000000E+00 0. -1.
</event>
<event>
 7    1  0.6145388E-006  0.1056147E+03  0.7561462E-02  0.1268913E+00
          1   -1    0    0  501    0  0.00000000000E+00  0.00000000000E+00  0.34081368905E+03  0.34081368905E+03  0.00000000000E+00 0. -1.
         -1   -1    0    0    0  501 -0.00000000000E+00 -0.00000000000E+00 -0.52183913335E+02  0.52183913335E+02  0.00000000000E+00 0.  1.
         23    2    1    2    0    0 -0.23145145790E+01  0.63693654504E+02  0.18630263813E+03  0.21926685179E+03  0.96473005122E+02 0.  0.
          5    1    1    2  502    0 -0.34978842466E+02 -0.73435261085E+02  0.10722584654E+03  0.13465181602E+03  0.41800000000E+01 0.  1.
         -5    1    1    2    0  502  0.37293357045E+02  0.97416065807E+01 -0.48987089528E+01  0.39078934580E+02  0.41800000000E+01 0.  1.
        -11    1    3    3    0    0 -0.33070844728E+02  0.41590596746E+02  0.16985954911E+03  0.17797675391E+03  0.00000000000E+00 0. -1.
         11    1    3    3    0    0  0.30756330149E+02  0.22103057758E+02  0.16443089025E+02  0.41290097883E+02  0.00000000000E+00 0.  1.
</event>
<event>
 7    1  0.6145388E-006  0.1100258E+03  0.7561462E-02  0.1260522E+00
         -2   -1    0    0    0  501 -0.00000000000E+00  0.00000000000E+00  0.61601984839E+02  0.61601984839E+02  0.00000000000E+00 0.  1.
          2   -1    0    0  501    0  0.00000000000E+00 -0.00000000000E+00 -0.37491637666E+03  0.37491637666E+03  0.00000000000E+00 0. -1.
         23    2    1    2    0    0  0.30244381255E+02 -0.51988163885E+02 -0.18601600075E+03  0.21456349927E+03  0.88419742730E+02 0.  0.
          5    1    1    2  502    0  0.33574169036E+02  0.33812075276E+02 -0.14538441549E+03  0.15305091286E+03  0.41800000000E+01 0. -1.
         -5    1    1    2    0  502 -0.63818550291E+02  0.18176088609E+02  0.18086024419E+02  0.68903949362E+02  0.41800000000E+01 0.  1.
        -11    1    3    3    0    0  0.41905374308E+02  0.96479381299E+01 -0.91833788721E+02  0.10140309589E+03  0.00000000000E+00 0. -1.
         11    1    3    3    0    0 -0.11660993053E+02 -0.61636102014E+02 -0.94182212029E+02  0.11316040338E+03  0.00000000000E+00 0.  1.
</event>
<event>
 7    1  0.6145388E-006  0.1131279E+03  0.7561462E-02  0.1254885E+00
          3   -1    0    0  501    0  0.00000000000E+00  0.00000000000E+00  0.11303010159E+03  0.11303010159E+03  0.00000000000E+00 0. -1.
         -3   -1    0    0    0  501 -0.00000000000E+00 -0.00000000000E+00 -0.18618234279E+03  0.18618234279E+03  0.00000000000E+00 0.  1.
         23    2    1    2    0    0  0.40765935346E+02  0.46130838035E+02  0.41736933552E+02  0.11855197286E+03  0.92318378156E+02 0.  0.
          5    1    1    2  502    0  0.35183128642E+02 -0.37875437646E+02 -0.82780117524E+02  0.97685319138E+02  0.41800000000E+01 0. -1.
         -5    1    1    2    0  502 -0.75949063988E+02 -0.82554003897E+01 -0.32109057226E+02  0.82975152378E+02  0.41800000000E+01 0. -1.
        -11    1    3    3    0    0 -0.12875738843E+02 -0.12825597395E+02 -0.12574547183E+02  0.22099770048E+02  0.00000000000E+00 0.  1.
         11    1    3    3    0    0  0.53641674189E+02  0.58956435431E+02  0.54311480736E+02  0.96452202817E+02  0.00000000000E+00 0. -1.
</event>
<event>
 7    1  0.6145388E-006  0.9953301E+02  0.7561462E-02  0.1281281E+00
          1   -1    0    0  501    0  0.00000000000E+00  0.00000000000E+00  0.52367004048E+03  0.52367004048E+03  0.00000000000E+00 0. -1.
         -1   -1    0    0    0  501 -0.00000000000E+00 -0.00000000000E+00 -0.28091025098E+02  0.28091025098E+02  0.00000000000E+00 0.  1.
         23    2    1    2    0    0  0.39288212102E+02 -0.12447612204E+02  0.29798779073E+03  0.31429895712E+03  0.91041772640E+02 0.  0.
          5    1    1    2  502    0 -0.74429473047E+02  0.15726672965E+02  0.64865690265E+02  0.10006050607E+03  0.41800000000E+01 0. -1.
         -5    1    1    2    0  502  0.35141260946E+02 -0.32790607614E+01  0.13272553439E+03  0.13740160239E+03  0.41800000000E+01 0. -1.
        -11    1    3    3    0    0  0.17173645600E+02  0.32772649745E+02  0.55918487708E+02  0.67051159140E+02  0.00000000000E+00 0.  1.
         11    1    3    3    0    0  0.22114566502E+02 -0.45220261949E+02  0.24206930302E+03  0.24724779798E+03  0.00000000000E+00 0. -1.
</event>
<event>
 7    1  0.6145388E-006  0.1227096E+03  0.7561462E-02  0.1238693E+00
          1   -1    0    0  501    0  0.00000000000E+00  0.00000000000E+00  0.59135850531E+02  0.59135850531E+02  0.00000000000E+00 0. -1.
         -1   -1    0    0    0  501 -0.00000000000E+00 -0.00000000000E+00 -0.27281599236E+03  0.27281599236E+03  0.00000000000E+00 0.  1.
         23    2    1    2    0    0  0.17962927752E-01  0.61342860244E+02 -0.56492767109E+02  0.12190886052E+03  0.88923510460E+02 0.  0.
          5    1    1    2  502    0  0.33263346808E+02 -0.89137541931E+02 -0.99175821558E+02  0.13749642760E+03  0.41800000000E+01 0. -1.
         -5    1    1    2    0  502 -0.33281309736E+02  0.27794681686E+02 -0.58011553163E+02  0.72546554764E+02  0.41800000000E+01 0. -1.
        -11    1    3    3    0    0  0.20472222847E+02 -0.16402363084E+02 -0.22750859369E+02  0.34723925830E+02  0.00000000000E+00 0.  1.
         11    1    3    3    0    0 -0.20454259920E+02  0.77745223328E+02 -0.33741907740E+02  0.87184934691E+02  0.00000000000E+00 0. -1.
</event>
<event>
 7    1  0.6145388E-006  0.8067602E+02  0.7561462E-02  0.1327144E+00
          2   -1    0    0  501    0  0.00000000000E+00  0.00000000000E+00  0.26871207873E+02  0.26871207873E+02  0.00000000000E+00 0. -1.
         -2   -1    0    0    0  501 -0.00000000000E+00 -0.00000000000E+00 -0.45029866390E+03  0.45029866390E+03  0.00000000000E+00 0.  1.
         23    2    1    2    0    0  0.10421150198E+02  0.18122789804E+02 -0.15931778849E+03  0.18418634017E+03  0.90030074392E+02 0.  0.
          5    1    1    2  502    0  0.11511292437E+01  0.24847059279E+02 -0.10576559609E+00  0.25222708810E+02  0.41800000000E+01 0. -1.
         -5    1    1    2    0  502 -0.11572279442E+02 -0.42969849084E+02 -0.26400390194E+03  0.26776082279E+03  0.41800000000E+01 0. -1.
        -11    1    3    3    0    0  0.79122571453E+01 -0.36198741136E+02 -0.51664667016E+02  0.63578223401E+02  0.00000000000E+00 0. -1.
         11    1    3    3    0    0  0.25088930529E+01  0.54321530940E+02 -0.10765312148E+03  0.12060811677E+03  0.00000000000E+00 0.  1.
</event>
<event>
 7    1  0.6145388E-006  0.9830458E+02  0.7561462E-02  0.1283902E+00
         -2   -1    0    0    0  501 -0.00000000000E+00  0.00000000000E+00  0.81781767139E+03  0.81781767139E+03  0.00000000000E+00 0.  1.
          2   -1    0    0  501    0  0.00000000000E+00 -0.00000000000E+00 -0.21821902601E+02  0.21821902601E+02  0.00000000000E+00 0. -1.
         23    2    1    2    0    0 -0.25465784192E+02  0.19810664617E+02  0.13224429444E+03  0.16343374231E+03  0.90449246092E+02 0.  0.
          5    1    1    2  502    0  0.92888516029E+00 -0.56272457788E+02  0.14525136951E+03  0.15582966687E+03  0.41800000000E+01 0. -1.
         -5    1    1    2    0  502  0.24536899032E+02  0.36461793171E+02  0.51850010484E+03  0.52037616481E+03  0.41800000000E+01 0. -1.
        -11    1    3    3    0    0 -0.24906675062E+02 -0.34036733010E+02  0.58896200956E+02  0.72440348865E+02  0.00000000000E+00 0.  1.
         11    1    3    3    0    0 -0.55910913011E+00  0.53847397626E+02  0.73348093480E+02  0.90993393449E+02  0.00000000000E+00 0. -1.
</event>
<event>
 7    1  0.6145388E-006  0.1266858E+03  0.7561462E-02  0.1232458E+00
         -3   -1    0    0    0  501 -0.00000000000E+00  0.00000000000E+00  0.20127278630E+03  0.20127278630E+03  0.00000000000E+00 0.  1.
          3   -1    0    0  501    0  0.00000000000E+00 -0.00000000000E+00 -0.13504492244E+03  0.13504492244E+03  0.00000000000E+00 0. -1.
         23    2    1    2    0    0 -0.61003589005E+02  0.40141464948E+02 -0.54532243400E+02  0.14773201614E+03  0.11626782849E+03 0.  0.
          5    1    1    2  502    0 -0.45033359147E+01  0.27604643787E+02  0.81757389887E+02  0.86510343856E+02  0.41800000000E+01 0.  1.
         -5    1    1    2    0  502  0.65506924919E+02 -0.67746108735E+02  0.39002717372E+02  0.10207534876E+03  0.41800000000E+01 0.  1.
        -11    1    3    3    0    0 -0.86984984096E+02  0.50942753997E+01 -0.56855861544E+02  0.10404291467E+03  0.00000000000E+00 0. -1.
         11    1    3    3    0    0  0.25981395092E+02  0.35047189549E+02  0.23236181443E+01  0.43689101472E+02  0.00000000000E+00 0.  1.
</event>
<event>
 7    1  0.6145388E-006  0.1397305E+03  0.7561462E-02  0.1213692E+00
          3   -1    0    0  501    0  0.00000000000E+00  0.00000000000E+00  0.18761921351E+03  0.18761921351E+03  0.00000000000E+00 0. -1.
         -3   -1    0    0    0  501 -0.00000000000E+00 -0.00000000000E+00 -0.14237346906E+03  0.14237346906E+03  0.00000000000E+00 0.  1.
         23    2    1    2    0    0 -0.10554214746E+03 -0.22514755257E+02  0.80253297260E+02  0.16112096891E+03  0.88731706887E+02 0.  0.
          5    1    1    2  502    0  0.10705391735E+03 -0.30890899823E+02 -0.20711929943E+02  0.11340743077E+03  0.41800000000E+01 0.  1.
         -5    1    1    2    0  502 -0.15117698877E+01  0.53405655080E+02 -0.14295622866E+02  0.55464282884E+02  0.41800000000E+01 0.  1.
        -11    1    3    3    0    0 -0.10615975944E+02  0.94442477884E+01 -0.16558766525E+02  0.21819383822E+02  0.00000000000E+00 0.  1.
         11    1    3    3    0    0 -0.94926171520E+02 -0.31959003046E+02  0.96812063785E+02  0.13930158509E+03  0.00000000000E+00 0. -1.
</event>
<event>
 7    1  0.6145388E-006  0.1272965E+03  0.7561462E-02  0.1231523E+00
          3   -1    0    0  501    0  0.00000000000E+00  0.00000000000E+00  0.66457279747E+02  0.66457279747E+02  0.00000000000E+00 0. -1.
         -3   -1    0    0    0  501 -0.00000000000E+00 -0.00000000000E+00 -0.24746505508E+03  0.24746505508E+03  0.00000000000E+00 0.  1.
         23    2    1    2    0    0 -0.14389482925E+02 -0.64392044368E+02 -0.70694508313E+02  0.13456450616E+03  0.93576173340E+02 0.  0.
          5    1    1    2  502    0 -0.53492869397E+02  0.13906367548E+02 -0.32010992484E+02  0.64008203962E+02  0.41800000000E+01 0.  1.
         -5    1    1    2    0  502  0.67882352322E+02  0.50485676820E+02 -0.78302274532E+02  0.11534962470E+03  0.41800000000E+01 0.  1.
        -11    1    3    3    0    0  0.12886152700E+01  0.24331219849E+02 -0.16428504165E+02  0.29386468616E+02  0.00000000000E+00 0.  1.
         11    1    3    3    0    0 -0.15678098195E+02 -0.88723264217E+02 -0.54266004148E+02  0.10517803755E+03  0.00000000000E+00 0. -1.
</event>
<event>
 7    1  0.6145388E-006  0.8153040E+02  0.7561462E-02  0.1324764E+00
          1   -1    0    0  501    0  0.00000000000E+00  0.00000000000E+00  0.23595585877E+03  0.23595585877E+03  0.00000000000E+00 0. -1.
         -1   -1    0    0    0  501 -0.00000000000E+00 -0.00000000000E+00 -0.27318485965E+03  0.27318485965E+03  0.00000000000E+00 0.  1.
         23    2    1    2    0    0  0.61496321140E+02  0.35700169389E+02  0.20007853432E+03  0.23161662049E+03  0.92512374213E+02 0.  0.
          5    1    1    2  502    0 -0.36401169461E+02 -0.27938588188E+02 -0.81061666733E+01  0.46784529347E+02  0.41800000000E+01 0. -1.
         -5    1    1    2    0  502 -0.25095151679E+02 -0.77615812010E+01 -0.22920136852E+03  0.23073956859E+03  0.41800000000E+01 0. -1.
        -11    1    3    3    0    0  0.62644710967E+02  0.85668575031E+01  0.54342523633E+02  0.83371822184E+02  0.00000000000E+00 0.  1.
         11    1    3    3    0    0 -0.11483898266E+01  0.27133311886E+02  0.14573601069E+03  0.14824479830E+03  0.00000000000E+00 0. -1.
</event>
<event>
 7    1  0.6145388E-006  0.1492324E+03  0.7561462E-02  0.1201419E+00
          3   -1    0    0  501    0  0.00000000000E+00  0.00000000000E+00  0.43323009646E+02  0.43323009646E+02  0.00000000000E+00 0. -1.
         -3   -1    0    0    0  501 -0.00000000000E+00 -0.00000000000E+00 -0.55857153002E+03  0.55857153002E+03  0.00000000000E+00 0.  1.
         23    2    1    2    0    0 -0.86329970860E+02 -0.55261200589E+02 -0.16155426476E+03  0.21298129112E+03  0.93565943311E+02 0.  0.
          5    1    1    2  502    0  0.10174354494E+03 -0.11636213614E+01 -0.24691876982E+03  0.26709446688E+03  0.41800000000E+01 0. -1.
         -5    1    1    2    0  502 -0.15413574077E+02  0.56424821951E+02 -0.10677548580E+03  0.12181878166E+03  0.41800000000E+01 0. -1.
        -11    1    3    3    0    0 -0.31697985719E+02 -0.73780908978E+02 -0.82617960453E+02  0.11521333351E+03  0.00000000000E+00 0.  1.
         11    1    3    3    0    0 -0.54631985141E+02  0.18519708388E+02 -0.78936304306E+02  0.97767957618E+02  0.00000000000E+00 0. -1.
</event>
<event>
 7    1  0.6145388E-006  0.1009390E+03  0.7561462E-02  0.1278334E+00
          1   -1    0    0  501    0  0.00000000000E+00  0.00000000000E+00  0.13497735591E+03  0.13497735591E+03  0.00000000000E+00 0. -1.
         -1   -1    0    0    0  501 -0.00000000000E+00 -0.00000000000E+00 -0.12122084092E+03  0.12122084092E+03  0.00000000000E+00 0.  1.
         23    2    1    2    0    0 -0.31658778926E+02  0.62144942203E+02  0.20058411143E+02  0.11283947008E+03  0.86406793859E+02 0.  0.
          5    1    1    2  502    0 -0.28432200909E+02 -0.25785590646E+02  0.42737726218E+02  0.57595766995E+02  0.41800000000E+01 0.  1.
         -5    1    1    2    0  502  0.60090979835E+02 -0.36359351557E+02 -0.49039622377E+02  0.85762959756E+02  0.41800000000E+01 0.  1.
        -11    1    3    3    0    0 -0.37326900753E+02  0.76287627080E+01 -0.21781123288E+02  0.43885223845E+02  0.00000000000E+00 0.  1.
         11    1    3    3    0    0  0.56681218269E+01  0.54516179495E+02  0.41839534431E+02  0.68954246231E+02  0.00000000000E+00 0. -1.
</event>
<event>
 7    1  0.6145388E-006  0.1009778E+03  0.7561462E-02  0.1278253E+00
         -1   -1    0    0    0  501 -0.00000000000E+00  0.00000000000E+00  0.47138034002E+02  0.47138034002E+02  0.00000000000E+00 0.  1.
          1   -1    0    0  501    0  0.00000000000E+00 -0.00000000000E+00 -0.37015516926E+03  0.37015516926E+03  0.00000000000E+00 0. -1.
         23    2    1    2    0    0  0.46510766061E+02  0.54095959250E+02 -0.18121907823E+03  0.21519414574E+03  0.91534375391E+02 0.  0.
          5    1    1    2  502    0 -0.53141177055E+02 -0.31200673174E+02 -0.16020193147E+03  0.17169623745E+03  0.41800000000E+01 0. -1.
         -5    1    1    2    0  502  0.66304109941E+01 -0.22895286076E+02  0.18403874443E+02  0.30402820082E+02  0.41800000000E+01 0. -1.
        -11    1    3    3    0    0  0.74221442288E+02  0.33325103882E+02 -0.13028704156E+03  0.15360370517E+03  0.00000000000E+00 0. -1.
         11    1    3    3    0    0 -0.27710676227E+02  0.20770855368E+02 -0.50932036673E+02  0.61590440567E+02  0.00000000000E+00 0.  1.
</event>
<event>
 7    1  0.6145388E-006  0.1299239E+03  0.7561462E-02  0.1227569E+00
         -2   -1    0    0    0  501 -0.00000000000E+00  0.00000000000E+00  0.89453804433E+02  0.89453804433E+02  0.00000000000E+00 0.  1.
          2   -1    0    0  501    0  0.00000000000E+00 -0.00000000000E+00 -0.19840561872E+03  0.19840561872E+03  0.00000000000E+00 0. -1.
         23    2    1    2    0    0 -0.26308196761E+02 -0.72236402255E+02 -0.38378519720E+02  0.12495209699E+03  0.90718778318E+02 0.  0.
          5    1    1    2  502    0 -0.21118821718E+02  0.90379578972E+02 -0.29550525659E+02  0.97494506987E+02  0.41800000000E+01 0. -1.
         -5    1    1    2    0  502  0.47427018479E+02 -0.18143176717E+02 -0.41022768906E+02  0.65412819172E+02  0.41800000000E+01 0. -1.
        -11    1    3    3    0    0  0.18633166483E+01  0.19723186911E+02  0.33847096692E+01  0.20098067330E+02  0.00000000000E+00 0. -1.
         11    1    3    3    0    0 -0.28171513409E+02 -0.91959589166E+02 -0.41763229389E+02  0.10485402966E+03  0.00000000000E+00 0.  1.
</event>
<event>
 7    1  0.6145388E-006  0.1475144E+03  0.7561462E-02  0.1203561E+00
         -2   -1    0    0    0  501 -0.00000000000E+00  0.00000000000E+00  0.12111066076E+03  0.12111066076E+03  0.00000000000E+00 0.  1.
          2   -1    0    0  501    0  0.00000000000E+00 -0.00000000000E+00 -0.21484741206E+03  0.21484741206E+03  0.00000000000E+00 0. -1.
         23    2    1    2    0    0  0.11282396368E+03 -0.36544288273E+02 -0.52422507980E+02  0.15870263889E+03  0.91507794538E+02 0.  0.
          5    1    1    2  502    0 -0.56431030636E+02 -0.42617209169E+02 -0.36894881552E+02  0.79871098783E+02  0.41800000000E+01 0.  1.
         -5    1    1    2    0  502 -0.56392933045E+02  0.79161497443E+02 -0.44193617727E+01  0.97384335154E+02  0.41800000000E+01 0.  1.
        -11    1    3    3    0    0  0.69392653897E+02 -0.44935532972E+02  0.88366546897E+01  0.83142221552E+02  0.00000000000E+00 0.  1.
         11    1    3    3    0    0  0.43431309784E+02  0.83912446988E+01 -0.61259162670E+02  0.75560417337E+02  0.00000000000E+00 0. -1.
</event>
<event>
 7    1  0.6145388E-006  0.1985237E+03  0.7561462E-02  0.1150991E+00
         -1   -1    0    0    0  501 -0.00000000000E+00  0.00000000000E+00  0.10100064891E+03  0.10100064891E+03  0.00000000000E+00 0.  1.
          1   -1    0    0  501    0  0.00000000000E+00 -0.00000000000E+00 -0.11422545849E+04  0.11422545849E+04  0.00000000000E+00 0. -1.
         23    2    1    2    0    0 -0.96389449218E+02 -0.16219080516E+03 -0.99130340230E+03  0.10114371664E+04  0.68745348359E+02 0.  0.
          5    1    1    2  502    0 -0.10826115853E+01  0.59864033126E+02 -0.66371819337E+02  0.89485000487E+02  0.41800000000E+01 0.  1.
         -5    1    1    2    0  502  0.97472060803E+02  0.10232677203E+03  0.16421285689E+02  0.14233306691E+03  0.41800000000E+01 0.  1.
        -11    1    3    3    0    0 -0.61040661324E+02 -0.52877979715E+02 -0.30133111125E+03  0.31196551360E+03  0.00000000000E+00 0.  1.
         11    1    3    3    0    0 -0.35348787894E+02 -0.10931282544E+03 -0.68997229105E+03  0.69947165277E+03  0.00000000000E+00 0. -1.
</event>
<event>
 7    1  0.6145388E-006  0.3594638E+03  0.7561462E-02  0.1058796E+00
          2   -1    0    0  501    0  0.00000000000E+00  0.00000000000E+00  0.45878274868E+03  0.45878274868E+03  0.00000000000E+00 0. -1.
         -2   -1    0    0    0  501 -0.00000000000E+00 -0.00000000000E+00 -0.40028467165E+03  0.40028467165E+03  0.00000000000E+00 0.  1.
         23    2    1    2    0    0 -0.26034905001E+03  0.23683483516E+03  0.24704681669E+03  0.44066444274E+03  0.96336153530E+02 0.  0.
          5    1    1    2  502    0  0.10535143373E+02  0.86268022023E+01 -0.31466349834E+02  0.34540042472E+02  0.41800000000E+01 0. -1.
         -5    1    1    2    0  502  0.24981390664E+03 -0.24546163736E+03 -0.15708238982E+03  0.38386293512E+03  0.41800000000E+01 0. -1.
        -11    1    3    3    0    0 -0.19860581265E+03  0.20313342520E+03  0.15133662232E+03  0.32188543071E+03  0.00000000000E+00 0.  1.
         11    1    3    3    0    0 -0.61743237368E+02  0.33701409960E+02  0.95710194363E+02  0.11877901203E+03  0.00000000000E+00 0. -1.
</event>
<event>
 7    1  0.6145388E-006  0.9824341E+02  0.7561462E-02  0.1284034E+00
          1   -1    0    0  501    0  0.00000000000E+00  0.00000000000E+00  0.85527175385E+02  0.85527175385E+02  0.00000000000E+00 0. -1.
         -1   -1    0    0    0  501 -0.00000000000E+00 -0.00000000000E+00 -0.20115514619E+03  0.20115514619E+03  0.00000000000E+00 0.  1.
         23    2    1    2    0    0 -0.58466982447E+02  0.45189554953E+02 -0.60308637661E+02  0.13044380833E+03  0.88982984008E+02 0.  0.
          5    1    1    2  502    0 -0.21415749099E+02  0.31291322870E+01  0.24773196164E+02  0.33160359264E+02  0.41800000000E+01 0. -1.
         -5    1    1    2    0  502  0.79882731546E+02 -0.48318687240E+02 -0.80092529313E+02  0.12307815398E+03  0.41800000000E+01 0.  1.
        -11    1    3    3    0    0 -0.33326087214E+02  0.44813933411E+02  0.91340346886E+01  0.56589286146E+02  0.00000000000E+00 0. -1.
         11    1    3    3    0    0 -0.25140895233E+02  0.37562154182E+00 -0.69442672349E+02  0.73854522188E+02  0.00000000000E+00 0.  1.
</event>
<event>
 7    1  0.6145388E-006  0.2249934E+03  0.7561462E-02  0.1130214E+00
          1   -1    0    0  501    0  0.00000000000E+00  0.00000000000E+00  0.15128388269E+03  0.15128388269E+03  0.00000000000E+00 0. -1.
         -1   -1    0    0    0  501 -0.00000000000E+00 -0.00000000000E+00 -0.46239582889E+03  0.46239582889E+03  0.00000000000E+00 0.  1.
         23    2    1    2    0    0  0.59115078240E+02 -0.21017168039E+03 -0.34719083723E+02  0.23990564326E+03  0.93180336884E+02 0.  0.
          5    1    1    2  502    0 -0.16896742838E+02  0.14818322399E+03 -0.25538634863E+03  0.29577597478E+03  0.41800000000E+01 0.  1.
         -5    1    1    2    0  502 -0.42218335402E+02  0.61988456398E+02 -0.21006513849E+02  0.77998093533E+02  0.41800000000E+01 0.  1.
        -11    1    3    3    0    0 -0.84644230796E+01 -0.64873950036E+02  0.23346965181E+02  0.69464787011E+02  0.00000000000E+00 0. -1.
         11    1    3    3    0    0  0.67579501320E+02 -0.14529773035E+03 -0.58066048904E+02  0.17044085625E+03  0.00000000000E+00 0.  1.
</event>
<event>
 7    1  0.6145388E-006  0.1319930E+03  0.7561462E-02  0.1224528E+00
          1   -1    0    0  501    0  0.00000000000E+00  0.00000000000E+00  0.71736320994E+02  0.71736320994E+02  0.00000000000E+00 0. -1.
         -1   -1    0    0    0  501 -0.00000000000E+00 -0.00000000000E+00 -0.41594903242E+03  0.41594903242E+03  0.00000000000E+00 0.  1.
         23    2    1    2    0    0 -0.94196986502E+02  0.66850040804E+02 -0.65354682684E+02  0.16095723790E+03  0.91071387728E+02 0.  0.
          5    1    1    2  502    0  0.72565429818E+02 -0.59846743766E+02 -0.28713139989E+03  0.30217426685E+03  0.41800000000E+01 0.  1.
         -5    1    1    2    0  502  0.21631556683E+02 -0.70032970383E+01  0.82733711480E+01  0.24553848662E+02  0.41800000000E+01 0.  1.
        -11    1    3    3    0    0 -0.60774312094E+02 -0.11210770213E+02 -0.33242699041E+02  0.70173181621E+02  0.00000000000E+00 0. -1.
         11    1    3    3    0    0 -0.33422674408E+02  0.78060811018E+02 -0.32111983643E+02  0.90784056281E+02  0.00000000000E+00 0.  1.
</event>
<event>
 7    1  0.6145388E-006  0.9832341E+02  0.7561462E-02  0.1283862E+00
          2   -1    0    0  501    0  0.00000000000E+00  0.00000000000E+00  0.97145334012E+02  0.97145334012E+02  0.00000000000E+00 0. -1.
         -2   -1    0    0    0  501 -0.00000000000E+00 -0.00000000000E+00 -0.17313760932E+03  0.17313760932E+03  0.00000000000E+00 0.  1.
         23    2    1    2    0    0 -0.12767694788E+02  0.12404915190E+02  0.34570606164E+02  0.10238714708E+03  0.94715918016E+02 0.  0.
          5    1    1    2  502    0 -0.73246161994E+01  0.51768870808E+02 -0.22646471093E+02  0.57131436531E+02  0.41800000000E+01 0.  1.
         -5    1    1    2    0  502  0.20092310987E+02 -0.64173785997E+02 -0.87916410375E+02  0.11076435972E+03  0.41800000000E+01 0.  1.
        -11    1    3    3    0    0 -0.38374607034E+02 -0.13225615898E+02 -0.12972806287E+02  0.42612452216E+02  0.00000000000E+00 0.  1.
         11    1    3    3    0    0  0.25606912246E+02  0.25630531088E+02  0.47543412452E+02  0.59774694865E+02  0.00000000000E+00 0. -1.
</event>
<event>
 7    1  0.6145388E-006  0.1156139E+03  0.7561462E-02  0.1250513E+00
          1   -1    0    0  501    0  0.00000000000E+00  0.00000000000E+00  0.52411616633E+03  0.52411616633E+03  0.00000000000E+00 0. -1.
         -1   -1    0    0    0  501 -0.00000000000E+00 -0.00000000000E+00 -0.54254541009E+02  0.54254541009E+02  0.00000000000E+00 0.  1.
         23    2    1    2    0    0  0.64022998934E+02  0.80106949781E+02  0.35362965861E+03  0.37918940637E+03  0.90634445236E+02 0.  0.
          5    1    1    2  502    0 -0.28485333251E+02 -0.16467801059E+02 -0.24096500652E+02  0.40996541633E+02  0.41800000000E+01 0. -1.
         -5    1    1    2    0  502 -0.35537665682E+02 -0.63639148722E+02  0.14032846736E+03  0.15818475933E+03  0.41800000000E+01 0. -1.
        -11    1    3    3    0    0  0.60696143367E+02  0.18639269326E+02  0.10206576940E+03  0.12020343366E+03  0.00000000000E+00 0.  1.
         11    1    3    3    0    0  0.33268555662E+01  0.61467680455E+02  0.25156388921E+03  0.25898597271E+03  0.00000000000E+00 0. -1.
</event>
<event>
 7    1  0.6145388E-006  0.1365684E+03  0.7561462E-02  0.1218022E+00
         -1   -1    0    0    0  501 -0.00000000000E+00  0.00000000000E+00  0.26674108489E+03  0.26674108489E+03  0.00000000000E+00 0.  1.
          1   -1    0    0  501    0  0.00000000000E+00 -0.00000000000E+00 -0.35087538542E+03  0.35087538542E+03  0.00000000000E+00 0. -1.
         23    2    1    2    0    0 -0.51121346881E+01  0.44277108817E+02 -0.31365048045E+03  0.33019691263E+03  0.93095547373E+02 0.  0.
          5    1    1    2  502    0  0.63735380809E+02  0.35911977205E+02  0.10599249234E+03  0.12885553813E+03  0.41800000000E+01 0. -1.
         -5    1    1    2    0  502 -0.58623246121E+02 -0.80189086022E+02  0.12352368757E+03  0.15856401954E+03  0.41800000000E+01 0.  1.
        -11    1    3    3    0    0 -0.43354676207E+01 -0.27912246252E+02 -0.12625296716E+03  0.12937426903E+03  0.00000000000E+00 0.  1.
         11    1    3    3    0    0 -0.77666706742E+00  0.72189355070E+02 -0.18739751329E+03  0.20082264361E+03  0.00000000000E+00 0. -1.
</event>
<event>
 7    1  0.6145388E-006  0.1939241E+03  0.7561462E-02  0.1154969E+00
          1   -1    0    0  501    0  0.00000000000E+00  0.00000000000E+00  0.68910543511E+02  0.68910543511E+02  0.00000000000E+00 0. -1.
         -1   -1    0    0    0  501 -0.00000000000E+00 -0.00000000000E+00 -0.79415149334E+03  0.79415149334E+03  0.00000000000E+00 0.  1.
         23    2    1    2    0    0  0.11875415521E+03  0.14753492962E+03 -0.19771133519E+03  0.28877543251E+03  0.91827956079E+02 0.  0.
          5    1    1    2  502    0 -0.64388120191E+02 -0.57374205322E+02 -0.39827483397E+03  0.40752661905E+03  0.41800000000E+01 0. -1.
         -5    1    1    2    0  502 -0.54366035022E+02 -0.90160724301E+02 -0.12925478067E+03  0.16675998530E+03  0.41800000000E+01 0. -1.
        -11    1    3    3    0    0  0.62723119850E+02  0.38628039945E+02 -0.12844768164E+03  0.14807134143E+03  0.00000000000E+00 0.  1.
         11    1    3    3    0    0  0.56031035363E+02  0.10890688968E+03 -0.69263653550E+02  0.14070409108E+03  0.00000000000E+00 0. -1.
</event>
<event>
 7    1  0.6145388E-006  0.1062939E+03  0.7561462E-02  0.1267591E+00
          3   -1    0    0  501    0  0.00000000000E+00  0.00000000000E+00  0.20481639688E+03  0.20481639688E+03  0.00000000000E+00 0. -1.
         -3   -1    0    0    0  501 -0.00000000000E+00 -0.00000000000E+00 -0.16546472450E+03  0.16546472450E+03  0.00000000000E+00 0.  1.
         23    2    1    2    0    0 -0.39151802750E+02  0.54910343106E+02  0.16231920569E+03  0.19116981034E+03  0.75168892586E+02 0.  0.
          5    1    1    2  502    0  0.66951862998E+02  0.10690060663E+01 -0.55761181202E+02  0.87238044808E+02  0.41800000000E+01 0. -1.
         -5    1    1    2    0  502 -0.27800060248E+02 -0.55979349172E+02 -0.67206352108E+02  0.91873266226E+02  0.41800000000E+01 0.  1.
        -11    1    3    3    0    0  0.11335163408E+02  0.74595879942E+01 -0.11553350834E+01  0.13618596906E+02  0.00000000000E+00 0.  1.
         11    1    3    3    0    0 -0.50486966158E+02  0.47450755111E+02  0.16347454077E+03  0.17755121343E+03  0.00000000000E+00 0. -1.
</event>
<event>
 7    1  0.6145388E-006  0.9424113E+02  0.7561462E-02  0.1292894E+00
         -1   -1    0    0    0  501 -0.00000000000E+00  0.00000000000E+00  0.72703458887E+02  0.72703458887E+02  0.00000000000E+00 0.  1.
          1   -1    0    0  501    0  0.00000000000E+00 -0.00000000000E+00 -0.17256760027E+03  0.17256760027E+03  0.00000000000E+00 0. -1.
         23    2    1    2    0    0 -0.21532403043E+02 -0.22575201763E+02 -0.73985225913E+02  0.12082991816E+03  0.90292698226E+02 0.  0.
          5    1    1    2  502    0 -0.39423073376E+02  0.18794312224E+01 -0.42167860461E+02  0.57907787317E+02  0.41800000000E+01 0. -1.
         -5    1    1    2    0  502  0.60955476419E+02  0.20695770541E+02  0.16288944989E+02  0.66533353685E+02  0.41800000000E+01 0.  1.
        -11    1    3    3    0    0  0.17982507237E+02 -0.37862710280E+02 -0.83999826567E+01  0.42749445668E+02  0.00000000000E+00 0. -1.
         11    1    3    3    0    0 -0.39514910280E+02  0.15287508517E+02 -0.65585243257E+02  0.78080472489E+02  0.00000000000E+00 0.  1.
</event>
<event>
 7    1  0.6145388E-006  0.1406342E+03  0.7561462E-02  0.1212478E+00
          1   -1    0    0  501    0  0.00000000000E+00  0.00000000000E+00  0.41983062499E+02  0.41983062499E+02  0.00000000000E+00 0. -1.
         -1   -1    0    0    0  501 -0.00000000000E+00 -0.00000000000E+00 -0.12847039118E+04  0.12847039118E+04  0.00000000000E+00 0.  1.
         23    2    1    2    0    0  0.74503644188E+02 -0.42098068814E+02 -0.83319261731E+02  0.15063562331E+03  0.91792980335E+02 0.  0.
          5    1    1    2  502    0 -0.35198651984E+02 -0.50558565610E+02 -0.15864455907E+03  0.17023713514E+03  0.41800000000E+01 0. -1.
         -5    1    1    2    0  502 -0.39304992203E+02  0.92656634424E+02 -0.10007570285E+04  0.10058142158E+04  0.41800000000E+01 0.  1.
        -11    1    3    3    0    0  0.28403308235E+02 -0.62288750131E+02 -0.71396662112E+02  0.98914709079E+02  0.00000000000E+00 0. -1.
         11    1    3    3    0    0  0.46100335952E+02  0.20190681317E+02 -0.11922599619E+02  0.51720914228E+02  0.00000000000E+00 0.  1.
</event>
<event>
 7    1  0.6145388E-006  0.1512090E+03  0.7561462E-02  0.1198995E+00
         -3   -1    0    0    0  501 -0.00000000000E+00  0.00000000000E+00  0.12755143453E+03  0.12755143453E+03  0.00000000000E+00 0.  1.
          3   -1    0    0  501    0  0.00000000000E+00 -0.00000000000E+00 -0.24270482078E+03  0.24270482078E+03  0.00000000000E+00 0. -1.
         23    2    1    2    0    0 -0.11767791277E+03 -0.24032817387E+02 -0.12638159822E+03  0.19647969184E+03  0.90588594600E+02 0.  0.
          5    1    1    2  502    0  0.47352002927E+02 -0.42045548064E+02  0.37452947957E+02  0.73690135051E+02  0.41800000000E+01 0. -1.
         -5    1    1    2    0  502  0.70325909838E+02  0.66078365451E+02 -0.26224735985E+02  0.10008642841E+03  0.41800000000E+01 0. -1.
        -11    1    3    3    0    0 -0.32013172695E+01 -0.27647382447E+02 -0.27799896823E+01  0.27970601193E+02  0.00000000000E+00 0.  1.
         11    1    3    3    0    0 -0.11447659550E+03  0.36145650599E+01 -0.12360160854E+03  0.16850909065E+03  0.00000000000E+00 0. -1.
</event>
<event>
 7    1  0.6145388E-006  0.1402697E+03  0.7561462E-02  0.1212967E+00
          1   -1    0    0  501    0  0.00000000000E+00  0.00000000000E+00  0.74592432402E+03  0.74592432402E+03  0.00000000000E+00 0. -1.
         -1   -1    0    0    0  501 -0.00000000000E+00 -0.00000000000E+00 -0.29795219460E+02  0.29795219460E+02  0.00000000000E+00 0.  1.
         23    2    1    2    0    0  0.76590117864E+02  0.66450415281E+02  0.35038699738E+03  0.37609719864E+03  0.91631605085E+02 0.  0.
          5    1    1    2  502    0 -0.66791372281E+02  0.14427312768E+02  0.24131555105E+03  0.25083839886E+03  0.41800000000E+01 0.  1.
         -5    1    1    2    0  502 -0.97987455829E+01 -0.80877728049E+02  0.12442655614E+03  0.14878394598E+03  0.41800000000E+01 0.  1.
        -11    1    3    3    0    0  0.52702521937E+02 -0.70931511218E+01  0.90673979881E+02  0.10511726423E+03  0.00000000000E+00 0.  1.
         11    1    3    3    0    0  0.23887595927E+02  0.73543566402E+02  0.25971301749E+03  0.27097993441E+03  0.00000000000E+00 0. -1.
</event>
<event>
 7    1  0.6145388E-006  0.9655029E+02  0.7561462E-02  0.1287722E+00
         -3   -1    0    0    0  501 -0.00000000000E+00  0.00000000000E+00  0.11274712813E+03  0.11274712813E+03  0.00000000000E+00 0.  1.
          3   -1    0    0  501    0  0.00000000000E+00 -0.00000000000E+00 -0.11772631486E+03  0.11772631486E+03  0.00000000000E+00 0. -1.
         23    2    1    2    0    0  0.20531512100E+02 -0.75929918173E+01 -0.36823467802E+02  0.99088302061E+02  0.89349467321E+02 0.  0.
          5    1    1    2  502    0 -0.70339268028E+02  0.21911204286E+02  0.29091827442E+02  0.79319104407E+02  0.41800000000E+01 0.  1.
         -5    1    1    2    0  502  0.49807755928E+02 -0.14318212469E+02  0.27524536277E+01  0.52066036529E+02  0.41800000000E+01 0.  1.
        -11    1    3    3    0    0  0.10045326681E+02  0.28243471913E+02 -0.50992672179E+02  0.59151119261E+02  0.00000000000E+00 0. -1.
         11    1    3    3    0    0  0.10486185419E+02 -0.35836463731E+02  0.14169204377E+02  0.39937182800E+02  0.00000000000E+00 0.  1.
</event>
<event>
 7    1  0.6145388E-006  0.1958259E+03  0.7561462E-02  0.1153309E+00
          2   -1    0    0  501    0  0.00000000000E+00  0.00000000000E+00  0.27256145140E+03  0.27256145140E+03  0.00000000000E+00 0. -1.
         -2   -1    0    0    0  501 -0.00000000000E+00 -0.00000000000E+00 -0.15130668641E+03  0.15130668641E+03  0.00000000000E+00 0.  1.
         23    2    1    2    0    0 -0.40149467835E+02  0.16601058709E+03  0.71180274183E+02  0.20632078502E+03  0.91269601220E+02 0.  0.
          5    1    1    2  502    0  0.48260271354E+02 -0.40278826328E+01  0.33973392595E+01  0.48726706678E+02  0.41800000000E+01 0. -1.
         -5    1    1    2    0  502 -0.81108035184E+01 -0.16198270445E+03  0.46677151542E+02  0.16882064611E+03  0.41800000000E+01 0. -1.
        -11    1    3    3    0    0 -0.55320578514E+02  0.14207900785E+03  0.28528982740E+02  0.15511516281E+03  0.00000000000E+00 0.  1.
         11    1    3    3    0    0  0.15171110678E+02  0.23931579239E+02  0.42651291443E+02  0.51205622209E+02  0.00000000000E+00 0. -1.
</event>
<event>
 7    1  0.6145388E-006  0.7826216E+02  0.7561462E-02  0.1334057E+00
          1   -1    0    0  501    0  0.00000000000E+00  0.00000000000E+00  0.16512681670E+03  0.16512681670E+03  0.00000000000E+00 0. -1.
         -1   -1    0    0    0  501 -0.00000000000E+00 -0.00000000000E+00 -0.70931489610E+02  0.70931489610E+02  0.00000000000E+00 0.  1.
         23    2    1    2    0    0 -0.90792568922E+01 -0.61842106890E+01  0.38432935761E+02  0.98656753780E+02  0.90196381011E+02 0.  0.
          5    1    1    2  502    0  0.63363217722E+02  0.21325247873E+02  0.42579400770E+02  0.79373429602E+02  0.41800000000E+01 0.  1.
         -5    1    1    2    0  502 -0.54283960830E+02 -0.15141037184E+02  0.13182990557E+02  0.58028122927E+02  0.41800000000E+01 0.  1.
        -11    1    3    3    0    0  0.55264890060E+01 -0.14987393252E+02  0.65084517065E+02  0.67016105518E+02  0.00000000000E+00 0. -1.
         11    1    3    3    0    0 -0.14605745898E+02  0.88031825631E+01 -0.26651581303E+02  0.31640648262E+02  0.00000000000E+00 0.  1.
</event>
<event>
 7    1  0.6145388E-006  0.1190366E+03  0.7561462E-02  0.1244695E+00
         -1   -1    0    0    0  501 -0.00000000000E+00  0.00000000000E+00  0.15986537434E+03  0.15986537434E+03  0.00000000000E+00 0.  1.
          1   -1    0    0  501    0  0.00000000000E+00 -0.00000000000E+00 -0.10863302644E+03  0.10863302644E+03  0.00000000000E+00 0. -1.
         23    2    1    2    0    0 -0.11664931326E+02 -0.55691564212E+02 -0.25489185506E+02  0.11110940439E+03  0.91967277978E+02 0.  0.
          5    1    1    2  502    0 -0.34870303038E+02 -0.25737619006E+02  0.24508579477E+02  0.49965047123E+02  0.41800000000E+01 0. -1.
         -5    1    1    2    0  502  0.46535234364E+02  0.81429183217E+02  0.52212953933E+02  0.10742394926E+03  0.41800000000E+01 0. -1.
        -11    1    3    3    0    0 -0.42773195408E+02 -0.54816722852E+02  0.20402620201E+01  0.69559916754E+02  0.00000000000E+00 0.  1.
         11    1    3    3    0    0  0.31108264082E+02 -0.87484135927E+00 -0.27529447526E+02  0.41549487635E+02  0.00000000000E+00 0. -1.
</event>
<event>
 7    1  0.6145388E-006  0.1065963E+03  0.7561462E-02  0.1267006E+00
          1   -1    0    0  501    0  0.00000000000E+00  0.00000000000E+00  0.40853458426E+03  0.40853458426E+03  0.00000000000E+00 0. -1.
         -1   -1    0    0    0  501 -0.00000000000E+00 -0.00000000000E+00 -0.58455195312E+02  0.58455195312E+02  0.00000000000E+00 0.  1.
         23    2    1    2    0    0  0.64604148175E+01  0.12876441852E+02  0.32634501558E+03  0.33885729960E+03  0.90086961232E+02 0.  0.
          5    1    1    2  502    0 -0.45589639574E+02 -0.51619482747E+02  0.23564368796E+02  0.72909108569E+02  0.41800000000E+01 0.  1.
         -5    1    1    2    0  502  0.39129224757E+02  0.38743040895E+02  0.17000457431E+00  0.55223371405E+02  0.41800000000E+01 0.  1.
        -11    1    3    3    0    0  0.47148750654E+02  0.98955064895E+01  0.13870225911E+03  0.14683065899E+03  0.00000000000E+00 0.  1.
         11    1    3    3    0    0 -0.40688335837E+02  0.29809353627E+01  0.18764275647E+03  0.19202664061E+03  0.00000000000E+00 0. -1.
</event>
<event>
 7    1  0.6145388E-006  0.9862479E+02  0.7561462E-02  0.1283215E+00
          1   -1    0    0  501    0  0.00000000000E+00  0.00000000000E+00  0.23969289012E+03  0.23969289012E+03  0.00000000000E+00 0. -1.
         -1   -1    0    0    0  501 -0.00000000000E+00 -0.00000000000E+00 -0.65046793773E+02  0.65046793773E+02  0.00000000000E+00 0.  1.
         23    2    1    2    0    0 -0.32246714850E+02 -0.18516147986E+02  0.96011592931E+02  0.15238493628E+03  0.11233986147E+03 0.  0.
          5    1    1    2  502    0  0.44981038260E+02  0.43473917283E+02  0.99197588777E+02  0.11734951771E+03  0.41800000000E+01 0. -1.
         -5    1    1    2    0  502 -0.12734323410E+02 -0.24957769297E+02 -0.20563085360E+02  0.35005229902E+02  0.41800000000E+01 0. -1.
        -11    1    3    3    0    0 -0.57243211630E+02 -0.42722964937E+02  0.29419829487E+02  0.77250005681E+02  0.00000000000E+00 0.  1.
         11    1    3    3    0    0  0.24996496780E+02  0.24206816951E+02  0.66591763444E+02  0.75134930603E+02  0.00000000000E+00 0. -1.
</event>
<event>
 7    1  0.6145388E-006  0.1213551E+03  0.7561462E-02  0.1240878E+00
          1   -1    0    0  501    0  0.00000000000E+00  0.00000000000E+00  0.43335585114E+03  0.43335585114E+03  0.00000000000E+00 0. -1.
         -1   -1    0    0    0  501 -0.00000000000E+00 -0.00000000000E+00 -0.44374226800E+02  0.44374226800E+02  0.00000000000E+00 0.  1.
         23    2    1    2    0    0 -0.25248795626E+02  0.78728964674E+02  0.21949354701E+03  0.25143553947E+03  0.90590627387E+02 0.  0.
          5    1    1    2  502    0  0.29555857591E+02 -0.98994802662E+02  0.17604600401E+03  0.20416460908E+03  0.41800000000E+01 0. -1.
         -5    1    1    2    0  502 -0.43070619657E+01  0.20265837988E+02 -0.65579266877E+01  0.22129929385E+02  0.41800000000E+01 0. -1.
        -11    1    3    3    0    0  0.25206691822E+02  0.65093607700E+00  0.79371645502E+02  0.83280604826E+02  0.00000000000E+00 0.  1.
         11    1    3    3    0    0 -0.50455487448E+02  0.78078028597E+02  0.14012190151E+03  0.16815493465E+03  0.00000000000E+00 0. -1.
</event>
<event>
 7    1  0.6145388E-006  0.1931203E+03  0.7561462E-02  0.1155677E+00
         -1   -1    0    0    0  501 -0.00000000000E+00  0.00000000000E+00  0.23289356671E+03  0.23289356671E+03  0.00000000000E+00 0.  1.
          1   -1    0    0  501    0  0.00000000000E+00 -0.00000000000E+00 -0.23045824880E+03  0.23045824880E+03  0.00000000000E+00 0. -1.
         23    2    1    2    0    0 -0.16740075852E+03  0.64194755419E+02 -0.84023527992E+02  0.21878681986E+03  0.93079206657E+02 0.  0.
          5    1    1    2  502    0  0.16923533420E+02  0.22505053668E+02 -0.25232357232E+02  0.38039816975E+02  0.41800000000E+01 0. -1.
         -5    1    1    2    0  502  0.15047722510E+03 -0.86699809087E+02  0.11169120313E+03  0.20652517867E+03  0.41800000000E+01 0.  1.
        -11    1    3    3    0    0 -0.30663916603E+02 -0.45696039056E+01  0.17039720450E+02  0.35376675003E+02  0.00000000000E+00 0.  1.
         11    1    3    3    0    0 -0.13673684192E+03  0.68764359324E+02 -0.10106324844E+03  0.18341014485E+03  0.00000000000E+00 0. -1.
</event>
<event>
 7    1  0.6145388E-006  0.9341000E+02  0.7561462E-02  0.1294798E+00
         -4   -1    0    0    0  501 -0.00000000000E+00  0.00000000000E+00  0.92862886029E+02  0.92862886029E+02  0.00000000000E+00 0.  1.
          4   -1    0    0  501    0  0.00000000000E+00 -0.00000000000E+00 -0.15628417340E+03  0.15628417340E+03  0.00000000000E+00 0. -1.
         23    2    1    2    0    0  0.50057089761E+01  0.48347426920E+02 -0.27690479854E+02  0.11026564525E+03  0.95022202858E+02 0.  0.
          5    1    1    2  502    0  0.15522840096E+02  0.10561772765E+02 -0.66479284926E+02  0.69206049828E+02  0.41800000000E+01 0. -1.
         -5    1    1    2    0  502 -0.20528549072E+02 -0.58909199685E+02  0.30748477408E+02  0.69675364351E+02  0.41800000000E+01 0. -1.
        -11    1    3    3    0    0 -0.36110814128E+02 -0.63179163413E+01 -0.19068668701E+02  0.41322162212E+02  0.00000000000E+00 0.  1.
         11    1    3    3    0    0  0.41116523104E+02  0.54665343262E+02 -0.86218111533E+01  0.68943483039E+02  0.00000000000E+00 0. -1.
</event>
<event>
 6    1  0.6145388E-006  0.1397343E+03  0.7561462E-02  0.1213687E+00
         -2   -1    0    0    0  501 -0.00000000000E+00  0.00000000000E+00  0.10025397392E+03  0.10025397392E+03  0.00000000000E+00 0.  1.
          2   -1    0    0  501    0  0.00000000000E+00 -0.00000000000E+00 -0.91912546039E+03  0.91912546039E+03  0.00000000000E+00 0. -1.
          5    1    1    2  502    0  0.42016661013E+02  0.83315400390E+01 -0.29996446956E+03  0.30303625156E+03  0.41800000000E+01 0. -1.
         -5    1    1    2    0  502 -0.65006612075E+02 -0.59752025125E+02  0.67700630339E+02  0.11134186934E+03  0.41800000000E+01 0.  1.
        -11    1    1    2    0    0  0.68063486882E+02  0.71478510960E+02 -0.38749775741E+03  0.39987038872E+03  0.00000000000E+00 0.  1.
         11    1    1    2    0    0 -0.45073535819E+02 -0.20058025874E+02 -0.19910988984E+03  0.20513092469E+03  0.00000000000E+00 0. -1.
</event>
<event>
 7    1  0.6145388E-006  0.1055400E+03  0.7561462E-02  0.1269059E+00
         -1   -1    0    0    0  501 -0.00000000000E+00  0.00000000000E+00  0.40958043181E+02  0.40958043181E+02  0.00000000000E+00 0.  1.
          1   -1    0    0  501    0  0.00000000000E+00 -0.00000000000E+00 -0.43968217592E+03  0.43968217592E+03  0.00000000000E+00 0. -1.
         23    2    1    2    0    0  0.55147784917E+02  0.25431675316E+02 -0.27727743103E+03  0.29601900178E+03  0.84002543800E+02 0.  0.
          5    1    1    2  502    0  0.21562875222E+02  0.28710851675E+02 -0.66664625699E+02  0.75834789585E+02  0.41800000000E+01 0.  1.
         -5    1    1    2    0  502 -0.76710660139E+02 -0.54142526991E+02 -0.54782076010E+02  0.10878642774E+03  0.41800000000E+01 0.  1.
        -11    1    3    3    0    0  0.15744866342E+02  0.36723139006E+02 -0.45110193073E+02  0.60261258481E+02  0.00000000000E+00 0.  1.
         11    1    3    3    0    0  0.39402918574E+02 -0.11291463690E+02 -0.23216723796E+03  0.23575774330E+03  0.00000000000E+00 0. -1.
</event>
<event>
 7    1  0.6145388E-006  0.1066606E+03  0.7561462E-02  0.1266882E+00
         -1   -1    0    0    0  501 -0.00000000000E+00  0.00000000000E+00  0.60936171893E+02  0.60936171893E+02  0.00000000000E+00 0.  1.
          1   -1    0    0  501    0  0.00000000000E+00 -0.00000000000E+00 -0.29782532737E+03  0.29782532737E+03  0.00000000000E+00 0. -1.
         23    2    1    2    0    0 -0.87709456780E+01  0.15626827169E+02 -0.20639285156E+03  0.22612339523E+03  0.90623691597E+02 0.  0.
          5    1    1    2  502    0  0.27793975753E+02  0.51584612396E+02 -0.89722629707E+01  0.59426014732E+02  0.41800000000E+01 0. -1.
         -5    1    1    2    0  502 -0.19023030075E+02 -0.67211439565E+02 -0.21524040946E+02  0.73212089304E+02  0.41800000000E+01 0.  1.
        -11    1    3    3    0    0  0.24791772463E+02 -0.22728362948E+02 -0.40860275137E+02  0.52922325614E+02  0.00000000000E+00 0.  1.
         11    1    3    3    0    0 -0.33562718141E+02  0.38355190117E+02 -0.16553257643E+03  0.17320106962E+03  0.00000000000E+00 0. -1.
</event>
<event>
 7    1  0.6145388E-006  0.5939651E+02  0.7561462E-02  0.1400382E+00
          2   -1    0    0  501    0  0.00000000000E+00  0.00000000000E+00  0.17801114893E+02  0.17801114893E+02  0.00000000000E+00 0. -1.
         -2   -1    0    0    0  501 -0.00000000000E+00 -0.00000000000E+00 -0.11088610744E+04  0.11088610744E+04  0.00000000000E+00 0.  1.
         23    2    1    2    0    0  0.16101131514E+02 -0.78001290750E+01 -0.13754199704E+03  0.16480760533E+03  0.89014927823E+02 0.  0.
          5    1    1    2  502    0 -0.19136352887E+02 -0.93011637721E+01 -0.24710811624E+02  0.32875648442E+02  0.41800000000E+01 0.  1.
         -5    1    1    2    0  502  0.30352213736E+01  0.17101292847E+02 -0.92880715080E+03  0.92897893548E+03  0.41800000000E+01 0.  1.
        -11    1    3    3    0    0  0.55060250883E+00  0.34331023224E+02 -0.10172842332E+03  0.10736663555E+03  0.00000000000E+00 0.  1.
         11    1    3    3    0    0  0.15550529005E+02 -0.42131152299E+02 -0.35813573722E+02  0.57440969779E+02  0.00000000000E+00 0. -1.
</event>
<event>
 7    1  0.6145388E-006  0.1504834E+03  0.7561462E-02  0.1199880E+00
         -1   -1    0    0    0  501 -0.00000000000E+00  0.00000000000E+00  0.22227924420E+03  0.22227924420E+03  0.00000000000E+00 0.  1.
          1   -1    0    0  501    0  0.00000000000E+00 -0.00000000000E+00 -0.15366598942E+03  0.15366598942E+03  0.00000000000E+00 0. -1.
         23    2    1    2    0    0  0.11460987486E+03  0.39129138894E+02 -0.54022567788E+02  0.16298077154E+03  0.94751153741E+02 0.  0.
          5    1    1    2  502    0 -0.26034275298E+02  0.41613391180E+02  0.60104845756E+02  0.77714366105E+02  0.41800000000E+01 0.  1.
         -5    1    1    2    0  502 -0.88575599563E+02 -0.80742530074E+02  0.62530976813E+02  0.13525009598E+03  0.41800000000E+01 0.  1.
        -11    1    3    3    0    0  0.99385101299E+02  0.11261891594E+02  0.34161591947E+00  0.10002172396E+03  0.00000000000E+00 0.  1.
         11    1    3    3    0    0  0.15224773562E+02  0.27867247300E+02 -0.54364183708E+02  0.62959047581E+02  0.00000000000E+00 0. -1.
</event>
<event>
 7    1  0.6145388E-006  0.8239098E+02  0.7561462E-02  0.1322400E+00
          3   -1    0    0  501    0  0.00000000000E+00  0.00000000000E+00  0.12897826749E+03  0.12897826749E+03  0.00000000000E+00 0. -1.
         -3   -1    0    0    0  501 -0.00000000000E+00 -0.00000000000E+00 -0.84559660720E+02  0.84559660720E+02  0.00000000000E+00 0.  1.
         23    2    1    2    0    0 -0.60183500521E+01 -0.50482142712E+01  0.35507796107E+02  0.87884285159E+02  0.80007118363E+02 0.  0.
          5    1    1    2  502    0 -0.97181640399E+01  0.52274880335E+02  0.40130253852E+02  0.66745902500E+02  0.41800000000E+01 0. -1.
         -5    1    1    2    0  502  0.15736514092E+02 -0.47226666064E+02 -0.31219443192E+02  0.58907740548E+02  0.41800000000E+01 0. -1.
        -11    1    3    3    0    0 -0.11718161654E+02  0.26741378587E+02 -0.11053407310E+02  0.31218495390E+02  0.00000000000E+00 0.  1.
         11    1    3    3    0    0  0.56998116017E+01 -0.31789592858E+02  0.46561203418E+02  0.56665789768E+02  0.00000000000E+00 0. -1.
</event>
<event>
 7    1  0.6145388E-006  0.1160629E+03  0.7561462E-02  0.1249737E+00
          1   -1    0    0  501    0  0.00000000000E+00  0.00000000000E+00  0.29415768139E+03  0.29415768139E+03  0.00000000000E+00 0. -1.
         -1   -1    0    0    0  501 -0.00000000000E+00 -0.00000000000E+00 -0.62414287523E+02  0.62414287523E+02  0.00000000000E+00 0.  1.
         23    2    1    2    0    0 -0.74266806447E+02  0.81726576399E+01  0.15281851227E+03  0.19086490856E+03  0.86565378492E+02 0.  0.
          5    1    1    2  502    0 -0.98229876944E+01 -0.50002326228E+02  0.20940176812E+02  0.55251127775E+02  0.41800000000E+01 0.  1.
         -5    1    1    2    0  502  0.84089794141E+02  0.41829668588E+02  0.57984704782E+02  0.11045593258E+03  0.41800000000E+01 0.  1.
        -11    1    3    3    0    0 -0.26729076961E+02 -0.18470057010E+02  0.44350218350E+01  0.32791096044E+02  0.00000000000E+00 0.  1.
         11    1    3    3    0    0 -0.47537729487E+02  0.26642714650E+02  0.14838349044E+03  0.15807381251E+03  0.00000000000E+00 0. -1.
</event>
<event>
 7    1  0.6145388E-006  0.1164762E+03  0.7561462E-02  0.1249026E+00
         -1   -1    0    0    0  501 -0.00000000000E+00  0.00000000000E+00  0.82611596406E+02  0.82611596406E+02  0.00000000000E+00 0. -1.
          1   -1    0    0  501    0  0.00000000000E+00 -0.00000000000E+00 -0.29646057859E+03  0.29646057859E+03  0.00000000000E+00 0.  1.
         23    2    1    2    0    0  0.27370202049E+02 -0.37825801913E+02 -0.22307318127E+03  0.24522689768E+03  0.90524404971E+02 0.  0.
          5    1    1    2  502    0 -0.71130153748E+02 -0.59272370551E+01  0.55736758659E+01  0.71715892060E+02  0.41800000000E+01 0. -1.
         -5    1    1    2    0  502  0.43759951699E+02  0.43753038968E+02  0.36505232221E+01  0.62129385249E+02  0.41800000000E+01 0. -1.
        -11    1    3    3    0    0  0.49681257270E+02 -0.52848502458E+02 -0.13654761645E+03  0.15461708539E+03  0.00000000000E+00 0. -1.
         11    1    3    3    0    0 -0.22311055221E+02  0.15022700545E+02 -0.86525564823E+02  0.90609812298E+02  0.00000000000E+00 0.  1.
</event>
<event>
 7    1  0.6145388E-006  0.7660652E+02  0.7561462E-02  0.1338967E+00
          1   -1    0    0  501    0  0.00000000000E+00  0.00000000000E+00  0.96473868332E+02  0.96473868332E+02  0.00000000000E+00 0. -1.
         -1   -1    0    0    0  501 -0.00000000000E+00 -0.00000000000E+00 -0.15915921832E+03  0.15915921832E+03  0.00000000000E+00 0.  1.
         23    2    1    2    0    0  0.53195169353E+02 -0.27383116110E+00 -0.34582399856E+02  0.11446660717E+03  0.95272560331E+02 0.  0.
          5    1    1    2  502    0 -0.39233717919E+02 -0.18391143498E+02  0.46023433167E+02  0.63349408690E+02  0.41800000000E+01 0. -1.
         -5    1    1    2    0  502 -0.13961451433E+02  0.18664974659E+02 -0.74126383294E+02  0.77817070784E+02  0.41800000000E+01 0.  1.
        -11    1    3    3    0    0 -0.15358024144E+02  0.73478355426E+01  0.20174824308E+02  0.26398544063E+02  0.00000000000E+00 0. -1.
         11    1    3    3    0    0  0.68553193496E+02 -0.76216667037E+01 -0.54757224164E+02  0.88068063111E+02  0.00000000000E+00 0.  1.
</event>
<event>
 7    1  0.6145388E-006  0.1000819E+03  0.7561462E-02  0.1280124E+00
          1   -1    0    0  501    0  0.00000000000E+00  0.00000000000E+00  0.32390421062E+02  0.32390421062E+02  0.00000000000E+00 0.  1.
         -1   -1    0    0    0  501 -0.00000000000E+00 -0.00000000000E+00 -0.38558033204E+03  0.38558033204E+03  0.00000000000E+00 0. -1.
         23    2    1    2    0    0 -0.25869713957E+02  0.91416625284E+01 -0.14463319177E+03  0.17323026209E+03  0.91308003189E+02 0.  0.
          5    1    1    2  502    0 -0.24156240873E+02  0.35242089517E+02 -0.14910088402E+03  0.15515822525E+03  0.41800000000E+01 0. -1.
         -5    1    1    2    0  502  0.50025954830E+02 -0.44383752045E+02 -0.59455835182E+02  0.89582265764E+02  0.41800000000E+01 0. -1.
        -11    1    3    3    0    0 -0.45959789575E+02 -0.23712593217E+02 -0.54077342802E+02  0.74826120703E+02  0.00000000000E+00 0.  1.
         11    1    3    3    0    0  0.20090075618E+02  0.32854255745E+02 -0.90555848968E+02  0.98404141383E+02  0.00000000000E+00 0. -1.
</event>
<event>
 7    1  0.6145388E-006  0.1091363E+03  0.7561462E-02  0.1262178E+00
          2   -1    0    0  501    0  0.00000000000E+00  0.00000000000E+00  0.46533710455E+02  0.46533710455E+02  0.00000000000E+00 0. -1.
         -2   -1    0    0    0  501 -0.00000000000E+00 -0.00000000000E+00 -0.31783967333E+03  0.31783967333E+03  0.00000000000E+00 0.  1.
         23    2    1    2    0    0 -0.12575211698E+02 -0.18500591665E+02 -0.43119397965E+02  0.10322074228E+03  0.91075964527E+02 0.  0.
          5    1    1    2  502    0  0.12691995813E+02 -0.52222940215E+02 -0.12343697944E+03  0.13469403304E+03  0.41800000000E+01 0. -1.
         -5    1    1    2    0  502 -0.11678411520E+00  0.70723531880E+02 -0.10474958547E+03  0.12645860847E+03  0.41800000000E+01 0. -1.
        -11    1    3    3    0    0  0.39393120299E+02 -0.11795123954E+02 -0.22806574421E+02  0.47022151299E+02  0.00000000000E+00 0. -1.
         11    1    3    3    0    0 -0.51968331997E+02 -0.67054677109E+01 -0.20312823544E+02  0.56198590979E+02  0.00000000000E+00 0.  1.
</event>
<event>
 7    1  0.6145388E-006  0.1794906E+03  0.7561462E-02  0.1168297E+00
         -2   -1    0    0    0  501 -0.00000000000E+00  0.00000000000E+00  0.86689340748E+02  0.86689340748E+02  0.00000000000E+00 0.  1.
          2   -1    0    0  501    0  0.00000000000E+00 -0.00000000000E+00 -0.56441638647E+03  0.56441638647E+03  0.00000000000E+00 0. -1.
         23    2    1    2    0    0 -0.18404702907E+01  0.15595418175E+03 -0.39548537839E+03  0.43492099140E+03  0.91774125477E+02 0.  0.
          5    1    1    2  502    0  0.32322798816E+02 -0.14331830477E+02  0.18072327904E+02  0.39928011771E+02  0.41800000000E+01 0.  1.
         -5    1    1    2    0  502 -0.30482328526E+02 -0.14162235127E+03 -0.10031399524E+03  0.17625672405E+03  0.41800000000E+01 0.  1.
        -11    1    3    3    0    0  0.41924734153E+02  0.62528977838E+02 -0.20336876012E+03  0.21685573314E+03  0.00000000000E+00 0. -1.
         11    1    3    3    0    0 -0.43765204444E+02  0.93425203907E+02 -0.19211661828E+03  0.21806525827E+03  0.00000000000E+00 0.  1.
</event>
<event>
 7    1  0.6145388E-006  0.1217531E+03  0.7561462E-02  0.1240233E+00
          2   -1    0    0  501    0  0.00000000000E+00  0.00000000000E+00  0.52445838559E+03  0.52445838559E+03  0.00000000000E+00 0. -1.
         -2   -1    0    0    0  501 -0.00000000000E+00 -0.00000000000E+00 -0.29254112043E+02  0.29254112043E+02  0.00000000000E+00 0.  1.
         23    2    1    2    0    0  0.67361105272E+00  0.60568923342E+02  0.18205129731E+03  0.21110460745E+03  0.88053575789E+02 0.  0.
          5    1    1    2  502    0 -0.33718432592E+02 -0.87857101141E+02  0.18847440546E+03  0.21070329098E+03  0.41800000000E+01 0.  1.
         -5    1    1    2    0  502  0.33044821539E+02  0.27288177798E+02  0.12467857078E+03  0.13190459920E+03  0.41800000000E+01 0.  1.
        -11    1    3    3    0    0  0.11962835993E+02 -0.20857078320E+02  0.32204064521E+02  0.40189910832E+02  0.00000000000E+00 0.  1.
         11    1    3    3    0    0 -0.11289224941E+02  0.81426001663E+02  0.14984723279E+03  0.17091469662E+03  0.00000000000E+00 0. -1.
</event>
<event>
 7    1  0.6145388E-006  0.1338764E+03  0.7561462E-02  0.1221815E+00
         -1   -1    0    0    0  501 -0.00000000000E+00  0.00000000000E+00  0.10358290920E+03  0.10358290920E+03  0.00000000000E+00 0.  1.
          1   -1    0    0  501    0  0.00000000000E+00 -0.00000000000E+00 -0.21989719789E+03  0.21989719789E+03  0.00000000000E+00 0. -1.
         23    2    1    2    0    0  0.21413149668E+02  0.75315738498E+02 -0.12667442674E+03  0.17553811002E+03  0.92931341513E+02 0.  0.
          5    1    1    2  502    0 -0.33357921016E+02  0.27623724207E+02  0.77362772157E+01  0.44194382208E+02  0.41800000000E+01 0. -1.
         -5    1    1    2    0  502  0.11944771348E+02 -0.10293946271E+03  0.26238608265E+01  0.10374761487E+03  0.41800000000E+01 0. -1.
        -11    1    3    3    0    0 -0.23791310045E+02  0.71275867543E+02 -0.89582493492E+02  0.11692432967E+03  0.00000000000E+00 0. -1.
         11    1    3    3    0    0  0.45204459713E+02  0.40398709549E+01 -0.37091933245E+02  0.58613780352E+02  0.00000000000E+00 0.  1.
</event>
<event>
 7    1  0.6145388E-006  0.8964146E+02  0.7561462E-02  0.1303722E+00
          1   -1    0    0  501    0  0.00000000000E+00  0.00000000000E+00  0.15942407689E+03  0.15942407689E+03  0.00000000000E+00 0. -1.
         -1   -1    0    0    0  501 -0.00000000000E+00 -0.00000000000E+00 -0.11857413870E+03  0.11857413870E+03  0.00000000000E+00 0.  1.
         23    2    1    2    0    0  0.31026409061E+02  0.27336848888E+02  0.91770654811E+02  0.13678463775E+03  0.92618803029E+02 0.  0.
          5    1    1    2  502    0 -0.48387357801E+02  0.30777077186E+02 -0.55928062984E+02  0.80212128161E+02  0.41800000000E+01 0. -1.
         -5    1    1    2    0  502  0.17360948740E+02 -0.58113926074E+02  0.50073463645E+01  0.61001449676E+02  0.41800000000E+01 0. -1.
        -11    1    3    3    0    0 -0.24386149032E+01  0.27415824645E+02  0.98823080760E+02  0.10258448018E+03  0.00000000000E+00 0. -1.
         11    1    3    3    0    0  0.33465023964E+02 -0.78975757065E-01 -0.70524259485E+01  0.34200157570E+02  0.00000000000E+00 0.  1.
</event>
<event>
 7    1  0.6145388E-006  0.5698678E+02  0.7561462E-02  0.1410930E+00
          2   -1    0    0  501    0  0.00000000000E+00  0.00000000000E+00  0.14508070222E+03  0.14508070222E+03  0.00000000000E+00 0. -1.
         -2   -1    0    0    0  501 -0.00000000000E+00 -0.00000000000E+00 -0.95005146478E+02  0.95005146478E+02  0.00000000000E+00 0.  1.
         23    2    1    2    0    0 -0.16110663911E+02  0.38088811375E+02  0.41329270407E+02  0.10804629057E+03  0.90860229311E+02 0.  0.
          5    1    1    2  502    0  0.13249174703E+02 -0.91786610369E+01  0.65802579916E+02  0.67876655577E+02  0.41800000000E+01 0.  1.
         -5    1    1    2    0  502  0.28614892074E+01 -0.28910150338E+02 -0.57056294578E+02  0.64162902553E+02  0.41800000000E+01 0.  1.
        -11    1    3    3    0    0 -0.16956307406E+02 -0.10125903195E+02 -0.21271193794E+02  0.29026091052E+02  0.00000000000E+00 0.  1.
         11    1    3    3    0    0  0.84564349533E+00  0.48214714570E+02  0.62600464201E+02  0.79020199520E+02  0.00000000000E+00 0. -1.
</event>
<event>
 7    1  0.6145388E-006  0.2606634E+03  0.7561462E-02  0.1106745E+00
         -1   -1    0    0    0  501 -0.00000000000E+00  0.00000000000E+00  0.12090667339E+03  0.12090667339E+03  0.00000000000E+00 0.  1.
          1   -1    0    0  501    0  0.00000000000E+00 -0.00000000000E+00 -0.89227329153E+03  0.89227329153E+03  0.00000000000E+00 0. -1.
         23    2    1    2    0    0  0.71971258562E+02  0.22232736521E+03 -0.64295833586E+03  0.69014329141E+03  0.91066029010E+02 0.  0.
          5    1    1    2  502    0 -0.43889904989E+01 -0.20108213483E+03 -0.14761018663E+03  0.24951859206E+03  0.41800000000E+01 0. -1.
         -5    1    1    2    0  502 -0.67582268063E+02 -0.21245230375E+02  0.19201904348E+02  0.73518081455E+02  0.41800000000E+01 0.  1.
        -11    1    3    3    0    0  0.34224785571E+02  0.13202282522E+02 -0.69672970213E+02  0.78739818322E+02  0.00000000000E+00 0. -1.
         11    1    3    3    0    0  0.37746472991E+02  0.20912508268E+03 -0.57328536565E+03  0.61140347308E+03  0.00000000000E+00 0.  1.
</event>
<event>
 7    1  0.6145388E-006  0.9471489E+02  0.7561462E-02  0.1291820E+00
          1   -1    0    0  501    0  0.00000000000E+00  0.00000000000E+00  0.35987858396E+02  0.35987858396E+02  0.00000000000E+00 0. -1.
         -1   -1    0    0    0  501 -0.00000000000E+00 -0.00000000000E+00 -0.54294837482E+03  0.54294837482E+03  0.00000000000E+00 0.  1.
         23    2    1    2    0    0 -0.19551651492E+01  0.30190115832E+02 -0.56609275051E+02  0.11055698640E+03  0.90016506568E+02 0.  0.
          5    1    1    2  502    0  0.39699846174E+02 -0.55451680246E+02 -0.15317160211E+03  0.16771994133E+03  0.41800000000E+01 0. -1.
         -5    1    1    2    0  502 -0.37744681024E+02  0.25261564414E+02 -0.29717963926E+03  0.30065930549E+03  0.41800000000E+01 0. -1.
        -11    1    3    3    0    0 -0.11645485521E+01 -0.22633868072E+02 -0.52954776145E+02  0.57600837440E+02  0.00000000000E+00 0.  1.
         11    1    3    3    0    0 -0.79061659716E+00  0.52823983904E+02 -0.36544989057E+01  0.52956148957E+02  0.00000000000E+00 0. -1.
</event>
<event>
 7    1  0.6145388E-006  0.1395666E+03  0.7561462E-02  0.1213913E+00
         -2   -1    0    0    0  501 -0.00000000000E+00  0.00000000000E+00  0.18987187582E+03  0.18987187582E+03  0.00000000000E+00 0.  1.
          2   -1    0    0  501    0  0.00000000000E+00 -0.00000000000E+00 -0.15604493546E+03  0.15604493546E+03  0.00000000000E+00 0. -1.
         23    2    1    2    0    0 -0.75582389432E+02  0.87450126814E+02 -0.52081519658E+02  0.15515793494E+03  0.89449862000E+02 0.  0.
          5    1    1    2  502    0  0.84044170687E+02 -0.91820171623E+01  0.17624636929E+02  0.86462895467E+02  0.41800000000E+01 0. -1.
         -5    1    1    2    0  502 -0.84617812549E+01 -0.78268109652E+02  0.68283823089E+02  0.10429598087E+03  0.41800000000E+01 0. -1.
        -11    1    3    3    0    0 -0.60008301638E+02  0.71747486615E+02  0.52771336412E+01  0.93683222834E+02  0.00000000000E+00 0.  1.
         11    1    3    3    0    0 -0.15574087794E+02  0.15702640199E+02 -0.57358653299E+02  0.61474712103E+02  0.00000000000E+00 0. -1.
</event>
<event>
 7    1  0.6145388E-006  0.1262388E+03  0.7561462E-02  0.1233146E+00
         -2   -1    0    0    0  501 -0.00000000000E+00  0.00000000000E+00  0.13086903528E+03  0.13086903528E+03  0.00000000000E+00 0.  1.
          2   -1    0    0  501    0  0.00000000000E+00 -0.00000000000E+00 -0.15823656711E+03  0.15823656711E+03  0.00000000000E+00 0. -1.
         23    2    1    2    0    0 -0.80940486261E+02  0.38407173647E+02 -0.34733291931E+02  0.13505960666E+03  0.94911656184E+02 0.  0.
          5    1    1    2  502    0 -0.31736182099E+02  0.22694828385E+01 -0.83342223930E+01  0.33155202752E+02  0.41800000000E+01 0.  1.
         -5    1    1    2    0  502  0.11267666836E+03 -0.40676656486E+02  0.15699982497E+02  0.12089079297E+03  0.41800000000E+01 0.  1.
        -11    1    3    3    0    0 -0.52319280681E+02 -0.37428738897E+00  0.25262872606E+02  0.58100429898E+02  0.00000000000E+00 0.  1.
         11    1    3    3    0    0 -0.28621205580E+02  0.38781461036E+02 -0.59996164537E+02  0.76959176764E+02  0.00000000000E+00 0. -1.
</event>
<event>
 7    1  0.6145388E-006  0.1336766E+03  0.7561462E-02  0.1222100E+00
          1   -1    0    0  501    0  0.00000000000E+00  0.00000000000E+00  0.23248990387E+03  0.23248990387E+03  0.00000000000E+00 0. -1.
         -1   -1    0    0    0  501 -0.00000000000E+00 -0.00000000000E+00 -0.11872631386E+03  0.11872631386E+03  0.00000000000E+00 0.  1.
         23    2    1    2    0    0  0.15094994837E+02 -0.30186178697E+02  0.14503018763E+03  0.17157774590E+03  0.85241441273E+02 0.  0.
          5    1    1    2  502    0 -0.73153024411E+02 -0.41656331561E+02 -0.11254367224E+02  0.85033805755E+02  0.41800000000E+01 0. -1.
         -5    1    1    2    0  502  0.58058029574E+02  0.71842510258E+02 -0.20012230387E+02  0.94604666076E+02  0.41800000000E+01 0.  1.
        -11    1    3    3    0    0 -0.33670136274E+02 -0.82223686558E+00  0.41669046802E+02  0.53578574184E+02  0.00000000000E+00 0. -1.
         11    1    3    3    0    0  0.48765131111E+02 -0.29363941832E+02  0.10336114083E+03  0.11799917171E+03  0.00000000000E+00 0.  1.
</event>
<event>
 7    1  0.6145388E-006  0.1197636E+03  0.7561462E-02  0.1243488E+00
          1   -1    0    0  501    0  0.00000000000E+00  0.00000000000E+00  0.12687856900E+03  0.12687856900E+03  0.00000000000E+00 0. -1.
         -1   -1    0    0    0  501 -0.00000000000E+00 -0.00000000000E+00 -0.13821253374E+03  0.13821253374E+03  0.00000000000E+00 0.  1.
         23    2    1    2    0    0  0.23720220281E+02 -0.27753486367E+02  0.21896559732E+02  0.99614712875E+02  0.90059573824E+02 0.  0.
          5    1    1    2  502    0 -0.44857647460E+02  0.85829101576E+02 -0.40909216530E+01  0.97020880500E+02  0.41800000000E+01 0. -1.
         -5    1    1    2    0  502  0.21137427178E+02 -0.58075615209E+02 -0.29139602827E+02  0.68455509366E+02  0.41800000000E+01 0.  1.
        -11    1    3    3    0    0  0.30624668747E+02  0.17229725136E+02 -0.17650480604E+02  0.39322680855E+02  0.00000000000E+00 0. -1.
         11    1    3    3    0    0 -0.69044484653E+01 -0.44983211503E+02  0.39547040336E+02  0.60292032020E+02  0.00000000000E+00 0.  1.
</event>
<event>
 7    1  0.6145388E-006  0.2385872E+03  0.7561462E-02  0.1120738E+00
          1   -1    0    0  501    0  0.00000000000E+00  0.00000000000E+00  0.79339326564E+03  0.79339326564E+03  0.00000000000E+00 0. -1.
         -1   -1    0    0    0  501 -0.00000000000E+00 -0.00000000000E+00 -0.79147855638E+02  0.79147855638E+02  0.00000000000E+00 0.  1.
         23    2    1    2    0    0 -0.17824347812E+03 -0.12941093240E+03  0.43092682770E+03  0.49249525822E+03  0.91300173176E+02 0.  0.
          5    1    1    2  502    0 -0.19063295357E+02  0.12479288829E+02  0.18173430205E+02  0.29442959175E+02  0.41800000000E+01 0.  1.
         -5    1    1    2    0  502  0.19730677348E+03  0.11693164357E+03  0.26514515209E+03  0.35060290388E+03  0.41800000000E+01 0.  1.
        -11    1    3    3    0    0 -0.10728183378E+03 -0.50753766822E+02  0.30881702991E+03  0.33083726312E+03  0.00000000000E+00 0.  1.
         11    1    3    3    0    0 -0.70961644345E+02 -0.78657165576E+02  0.12210979779E+03  0.16165799511E+03  0.00000000000E+00 0. -1.
</event>
<event>
 7    1  0.6145388E-006  0.1187758E+03  0.7561462E-02  0.1245130E+00
         -2   -1    0    0    0  501 -0.00000000000E+00  0.00000000000E+00  0.60318786450E+02  0.60318786450E+02  0.00000000000E+00 0.  1.
          2   -1    0    0  501    0  0.00000000000E+00 -0.00000000000E+00 -0.34672244616E+03  0.34672244616E+03  0.00000000000E+00 0. -1.
         23    2    1    2    0    0 -0.86267326481E+01  0.93506974238E+02 -0.15022989579E+03  0.19965471185E+03  0.92059804630E+02 0.  0.
          5    1    1    2  502    0  0.47132566811E+02 -0.93445205191E+02 -0.57002254405E+02  0.11924854144E+03  0.41800000000E+01 0. -1.
         -5    1    1    2    0  502 -0.38505834163E+02 -0.61769046209E-01 -0.79171509515E+02  0.88137979321E+02  0.41800000000E+01 0. -1.
        -11    1    3    3    0    0 -0.79294350967E+01  0.55477616588E+02 -0.13378899866E+02  0.57616289752E+02  0.00000000000E+00 0.  1.
         11    1    3    3    0    0 -0.69729755143E+00  0.38029357650E+02 -0.13685099592E+03  0.14203842210E+03  0.00000000000E+00 0. -1.
</event>
<event>
 7    1  0.6145388E-006  0.9763326E+02  0.7561462E-02  0.1285353E+00
         -2   -1    0    0    0  501 -0.00000000000E+00  0.00000000000E+00  0.34567968433E+02  0.34567968433E+02  0.00000000000E+00 0.  1.
          2   -1    0    0  501    0  0.00000000000E+00 -0.00000000000E+00 -0.40960036467E+03  0.40960036467E+03  0.00000000000E+00 0. -1.
         23    2    1    2    0    0  0.43425545894E+02  0.11767768191E+02 -0.20270007532E+03  0.22652131256E+03  0.90555651997E+02 0.  0.
          5    1    1    2  502    0 -0.10610338219E+02  0.40077358905E+02 -0.83299086234E+01  0.42492749400E+02  0.41800000000E+01 0.  1.
         -5    1    1    2    0  502 -0.32815207675E+02 -0.51845127096E+02 -0.16400241230E+03  0.17515427114E+03  0.41800000000E+01 0.  1.
        -11    1    3    3    0    0  0.56555719034E+01  0.42826520851E+02 -0.49463098132E+02  0.65671108248E+02  0.00000000000E+00 0.  1.
         11    1    3    3    0    0  0.37769973991E+02 -0.31058752661E+02 -0.15323697718E+03  0.16085020432E+03  0.00000000000E+00 0. -1.
</event>
<event>
 7    1  0.6145388E-006  0.1426896E+03  0.7561462E-02  0.1209755E+00
         -2   -1    0    0    0  501 -0.00000000000E+00  0.00000000000E+00  0.12003905714E+03  0.12003905714E+03  0.00000000000E+00 0.  1.
          2   -1    0    0  501    0  0.00000000000E+00 -0.00000000000E+00 -0.18556663795E+03  0.18556663795E+03  0.00000000000E+00 0. -1.
         23    2    1    2    0    0  0.82505790184E+02  0.63202689676E+02 -0.65920836842E+02  0.15291276221E+03  0.90746739455E+02 0.  0.
          5    1    1    2  502    0  0.21970591825E+02  0.71298498161E+01 -0.11462318822E+02  0.26122764331E+02  0.41800000000E+01 0. -1.
         -5    1    1    2    0  502 -0.10447638201E+03 -0.70332539492E+02  0.11855574851E+02  0.12657016854E+03  0.41800000000E+01 0.  1.
        -11    1    3    3    0    0  0.99955103282E+02  0.63536080119E+02 -0.65737090445E+02  0.13545929724E+03  0.00000000000E+00 0. -1.
         11    1    3    3    0    0 -0.17449313098E+02 -0.33339044250E+00 -0.18374639693E+00  0.17453464972E+02  0.00000000000E+00 0.  1.
</event>
<event>
 7    1  0.6145388E-006  0.7930632E+02  0.7561462E-02  0.1331032E+00
          2   -1    0    0  501    0  0.00000000000E+00  0.00000000000E+00  0.67593500655E+02  0.67593500655E+02  0.00000000000E+00 0. -1.
         -2   -1    0    0    0  501 -0.00000000000E+00 -0.00000000000E+00 -0.23150708351E+03  0.23150708351E+03  0.00000000000E+00 0.  1.
         23    2    1    2    0    0  0.66615201074E+01 -0.23941420052E+02 -0.20220447824E+01  0.93008106582E+02  0.89603860299E+02 0.  0.
          5    1    1    2  502    0  0.30386228818E+02 -0.40701145832E+02 -0.48531996730E+02  0.70375658294E+02  0.41800000000E+01 0. -1.
         -5    1    1    2    0  502 -0.37047748925E+02  0.64642565884E+02 -0.11335954134E+03  0.13571681929E+03  0.41800000000E+01 0. -1.
        -11    1    3    3    0    0 -0.80302013936E+01 -0.92130185072E+01  0.42308888417E+02  0.44038686215E+02  0.00000000000E+00 0. -1.
         11    1    3    3    0    0  0.14691721501E+02 -0.14728401545E+02 -0.44330933199E+02  0.48969420367E+02  0.00000000000E+00 0.  1.
</event>
<event>
 7    1  0.6145388E-006  0.1267339E+03  0.7561462E-02  0.1232384E+00
          3   -1    0    0  501    0  0.00000000000E+00  0.00000000000E+00  0.56256405502E+03  0.56256405502E+03  0.00000000000E+00 0. -1.
         -3   -1    0    0    0  501 -0.00000000000E+00 -0.00000000000E+00 -0.32780740789E+02  0.32780740789E+02  0.00000000000E+00 0.  1.
         23    2    1    2    0    0 -0.68511074833E+02  0.46398102589E+02  0.27206026920E+03  0.29715862739E+03  0.86254903933E+02 0.  0.
          5    1    1    2  502    0  0.23899050086E+02 -0.86114257827E+02  0.14072006833E+03  0.16675263124E+03  0.41800000000E+01 0. -1.
         -5    1    1    2    0  502  0.44612024747E+02  0.39716155239E+02  0.11700297670E+03  0.13143353718E+03  0.41800000000E+01 0. -1.
        -11    1    3    3    0    0  0.12054332517E+02  0.22691044826E+01  0.26917218350E+01  0.12557911213E+02  0.00000000000E+00 0.  1.
         11    1    3    3    0    0 -0.80565407350E+02  0.44128998106E+02  0.26936854737E+03  0.28460071617E+03  0.00000000000E+00 0. -1.
</event>
<event>
 6    1  0.6145388E-006  0.3979436E+03  0.7561462E-02  0.1044494E+00
         -1   -1    0    0    0  501 -0.00000000000E+00  0.00000000000E+00  0.28953052368E+03  0.28953052368E+03  0.00000000000E+00 0.  1.
          1   -1    0    0  501    0  0.00000000000E+00 -0.00000000000E+00 -0.13051907814E+04  0.13051907814E+04  0.00000000000E+00 0. -1.
          5    1    1    2  502    0 -0.59547225938E+02 -0.15666806060E+02  0.78946626686E+02  0.10020660255E+03  0.41800000000E+01 0. -1.
         -5    1    1    2    0  502 -0.29844936297E+02  0.11351881373E+03  0.85634828248E+02  0.14535486749E+03  0.41800000000E+01 0. -1.
        -11    1    1    2    0    0  0.15097741099E+03  0.23439724531E+03 -0.76240539605E+03  0.81178706270E+03  0.00000000000E+00 0. -1.
         11    1    1    2    0    0 -0.61585248756E+02 -0.33224925298E+03 -0.41783631658E+03  0.53737277232E+03  0.00000000000E+00 0.  1.
</event>
<event>
 7    1  0.6145388E-006  0.8362971E+02  0.7561462E-02  0.1319055E+00
         -2   -1    0    0    0  501 -0.00000000000E+00  0.00000000000E+00  0.72877610040E+02  0.72877610040E+02  0.00000000000E+00 0.  1.
          2   -1    0    0  501    0  0.00000000000E+00 -0.00000000000E+00 -0.31320439321E+03  0.31320439321E+03  0.00000000000E+00 0. -1.
         23    2    1    2    0    0 -0.29455529362E+02 -0.26377791061E+02 -0.23202845648E+03  0.25462977845E+03  0.97137548783E+02 0.  0.
          5    1    1    2  502    0  0.30773946763E+02  0.57414184292E+02 -0.47887146340E+02  0.80957245148E+02  0.41800000000E+01 0. -1.
         -5    1    1    2    0  502 -0.13184174006E+01 -0.31036393231E+02  0.39588819650E+02  0.50494979656E+02  0.41800000000E+01 0. -1.
        -11    1    3    3    0    0 -0.45883459722E+02 -0.28592266020E+02 -0.23183181879E+03  0.23805209883E+03  0.00000000000E+00 0. -1.
         11    1    3    3    0    0  0.16427930360E+02  0.22144749585E+01 -0.19663769245E+00  0.16577679621E+02  0.00000000000E+00 0.  1.
</event>
<event>
 7    1  0.6145388E-006  0.1174943E+03  0.7561462E-02  0.1247289E+00
          2   -1    0    0  501    0  0.00000000000E+00  0.00000000000E+00  0.10551806268E+03  0.10551806268E+03  0.00000000000E+00 0. -1.
         -2   -1    0    0    0  501 -0.00000000000E+00 -0.00000000000E+00 -0.17898120296E+03  0.17898120296E+03  0.00000000000E+00 0.  1.
         23    2    1    2    0    0  0.20416863201E+02  0.57995757594E+02  0.27252483719E+02  0.11253462496E+03  0.90227422348E+02 0.  0.
          5    1    1    2  502    0  0.45180577658E+02 -0.29784709252E+02 -0.81466428038E+02  0.97891086418E+02  0.41800000000E+01 0. -1.
         -5    1    1    2    0  502 -0.65597440859E+02 -0.28211048342E+02 -0.19249195968E+02  0.74073554263E+02  0.41800000000E+01 0. -1.
        -11    1    3    3    0    0  0.20876996743E+02  0.82284060156E+02  0.20983760775E+02  0.87446176389E+02  0.00000000000E+00 0.  1.
         11    1    3    3    0    0 -0.46013354203E+00 -0.24288302562E+02  0.62687229440E+01  0.25088448568E+02  0.00000000000E+00 0. -1.
</event>
<event>
 7    1  0.6145388E-006  0.1736316E+03  0.7561462E-02  0.1174113E+00
          1   -1    0    0  501    0  0.00000000000E+00  0.00000000000E+00  0.95579718851E+03  0.95579718851E+03  0.00000000000E+00 0. -1.
         -1   -1    0    0    0  501 -0.00000000000E+00 -0.00000000000E+00 -0.13279421416E+03  0.13279421416E+03  0.00000000000E+00 0.  1.
         23    2    1    2    0    0  0.10616945894E+03  0.11728403963E+03  0.86319075622E+03  0.88294718451E+03  0.97313663184E+02 0.  0.
          5    1    1    2  502    0  0.79940218215E+01 -0.14867053521E+02 -0.48969512525E+02  0.51965558038E+02  0.41800000000E+01 0. -1.
         -5    1    1    2    0  502 -0.11416348076E+03 -0.10241698611E+03  0.87817306594E+01  0.15367866012E+03  0.41800000000E+01 0. -1.
        -11    1    3    3    0    0  0.62404606214E+02  0.11708882298E+03  0.74891851458E+03  0.76058074445E+03  0.00000000000E+00 0. -1.
         11    1    3    3    0    0  0.43764852725E+02  0.19521665383E+00  0.11427224164E+03  0.12236644006E+03  0.00000000000E+00 0.  1.
</event>
<event>
 7    1  0.6145388E-006  0.1025207E+03  0.7561462E-02  0.1275083E+00
          2   -1    0    0  501    0  0.00000000000E+00  0.00000000000E+00  0.73779868050E+03  0.73779868050E+03  0.00000000000E+00 0. -1.
         -2   -1    0    0    0  501 -0.00000000000E+00 -0.00000000000E+00 -0.16540705809E+02  0.16540705809E+02  0.00000000000E+00 0.  1.
         23    2    1    2    0    0  0.67849655619E+01  0.36236469845E+01  0.38359166755E+03  0.39416558502E+03  0.90359141360E+02 0.  0.
          5    1    1    2  502    0  0.35746333418E+02  0.42999378877E+02  0.10464024096E+03  0.11871730861E+03  0.41800000000E+01 0. -1.
         -5    1    1    2    0  502 -0.42531298979E+02 -0.46623025862E+02  0.23302606618E+03  0.24145649267E+03  0.41800000000E+01 0. -1.
        -11    1    3    3    0    0  0.41338844258E+02 -0.17861862828E+02  0.26471773316E+03  0.26852080820E+03  0.00000000000E+00 0. -1.
         11    1    3    3    0    0 -0.34553878696E+02  0.21485509813E+02  0.11887393439E+03  0.12564477682E+03  0.00000000000E+00 0.  1.
</event>
<event>
 7    1  0.6145388E-006  0.1128007E+03  0.7561462E-02  0.1255470E+00
          2   -1    0    0  501    0  0.00000000000E+00  0.00000000000E+00  0.25638041412E+03  0.25638041412E+03  0.00000000000E+00 0. -1.
         -2   -1    0    0    0  501 -0.00000000000E+00 -0.00000000000E+00 -0.75925545069E+02  0.75925545069E+02  0.00000000000E+00 0.  1.
         23    2    1    2    0    0 -0.16162793279E+02 -0.76555673689E+02  0.12310775979E+03  0.17401321520E+03  0.94884516567E+02 0.  0.
          5    1    1    2  502    0 -0.80710227855E+01 -0.12303570991E+02 -0.28480250914E+02  0.32328259465E+02  0.41800000000E+01 0. -1.
         -5    1    1    2    0  502  0.24233816064E+02  0.88859244680E+02  0.85827360175E+02  0.12596448452E+03  0.41800000000E+01 0. -1.
        -11    1    3    3    0    0 -0.49361291507E+02 -0.21555894039E+02  0.80741212373E+02  0.97058420770E+02  0.00000000000E+00 0. -1.
         11    1    3    3    0    0  0.33198498228E+02 -0.54999779650E+02  0.42366547420E+02  0.76954794434E+02  0.00000000000E+00 0.  1.
</event>
<event>
 7    1  0.6145388E-006  0.1334076E+03  0.7561462E-02  0.1222485E+00
          2   -1    0    0  501    0  0.00000000000E+00  0.00000000000E+00  0.18092727856E+03  0.18092727856E+03  0.00000000000E+00 0. -1.
         -2   -1    0    0    0  501 -0.00000000000E+00 -0.00000000000E+00 -0.14989065658E+03  0.14989065658E+03  0.00000000000E+00 0.  1.
         23    2    1    2    0    0 -0.35777897667E+02 -0.10653441798E+03  0.66395064256E+02  0.15898161465E+03  0.90759071514E+02 0.  0.
          5    1    1    2  502    0  0.22254468418E+02 -0.18102374954E+02 -0.36222924485E+02  0.46395366167E+02  0.41800000000E+01 0. -1.
         -5    1    1    2    0  502  0.13523429249E+02  0.12463679293E+03  0.86448221125E+00  0.12544095432E+03  0.41800000000E+01 0. -1.
        -11    1    3    3    0    0 -0.88632760843E+01 -0.27922944901E+02 -0.22768584259E+02  0.37103327937E+02  0.00000000000E+00 0.  1.
         11    1    3    3    0    0 -0.26914621583E+02 -0.78611473079E+02  0.89163648515E+02  0.12187828671E+03  0.00000000000E+00 0. -1.
</event>
<event>
 7    1  0.6145388E-006  0.1079937E+03  0.7561462E-02  0.1264331E+00
         -1   -1    0    0    0  501 -0.00000000000E+00  0.00000000000E+00  0.26471963244E+02  0.26471963244E+02  0.00000000000E+00 0.  1.
          1   -1    0    0  501    0  0.00000000000E+00 -0.00000000000E+00 -0.46787984419E+03  0.46787984419E+03  0.00000000000E+00 0. -1.
         23    2    1    2    0    0  0.59950079912E+01 -0.21758966603E+02 -0.21525701481E+03  0.23492728493E+03  0.91355645863E+02 0.  0.
          5    1    1    2  502    0  0.21002211695E+02 -0.44966187941E+02 -0.57888096145E+02  0.76364618962E+02  0.41800000000E+01 0. -1.
         -5    1    1    2    0  502 -0.26997219686E+02  0.66725154544E+02 -0.16826276999E+03  0.18305990354E+03  0.41800000000E+01 0. -1.
        -11    1    3    3    0    0 -0.25909767405E+02  0.25961108128E+02 -0.81514192496E+02  0.89386009870E+02  0.00000000000E+00 0. -1.
         11    1    3    3    0    0  0.31904775396E+02 -0.47720074731E+02 -0.13374282232E+03  0.14554127506E+03  0.00000000000E+00 0.  1.
</event>
<event>
 7    1  0.6145388E-006  0.1318260E+03  0.7561462E-02  0.1224771E+00
          2   -1    0    0  501    0  0.00000000000E+00  0.00000000000E+00  0.15836192614E+03  0.15836192614E+03  0.00000000000E+00 0. -1.
         -2   -1    0    0    0  501 -0.00000000000E+00 -0.00000000000E+00 -0.17364983100E+03  0.17364983100E+03  0.00000000000E+00 0.  1.
         23    2    1    2    0    0  0.40729196533E+02 -0.10429918046E+03  0.53712074604E+02  0.15050251783E+03  0.85022552419E+02 0.  0.
          5    1    1    2  502    0 -0.70715016525E+02  0.92952773437E+02 -0.85885751797E+02  0.14503332863E+03  0.41800000000E+01 0. -1.
         -5    1    1    2    0  502  0.29985819992E+02  0.11346407021E+02  0.16885772329E+02  0.36475910681E+02  0.41800000000E+01 0. -1.
        -11    1    3    3    0    0  0.21482275762E+02 -0.83039684370E+02  0.75672173090E+02  0.11438249487E+03  0.00000000000E+00 0. -1.
         11    1    3    3    0    0  0.19246920771E+02 -0.21259496088E+02 -0.21960098486E+02  0.36120022960E+02  0.00000000000E+00 0.  1.
</event>
<event>
 7    1  0.6145388E-006  0.1107518E+03  0.7561462E-02  0.1259184E+00
          1   -1    0    0  501    0  0.00000000000E+00  0.00000000000E+00  0.55298678631E+03  0.55298678631E+03  0.00000000000E+00 0. -1.
         -1   -1    0    0    0  501 -0.00000000000E+00 -0.00000000000E+00 -0.24234450165E+02  0.24234450165E+02  0.00000000000E+00 0.  1.
         23    2    1    2    0    0  0.17565150397E+02  0.53581458698E+02  0.23810251556E+03  0.26081805989E+03  0.90298090912E+02 0.  0.
          5    1    1    2  502    0 -0.58541028105E+02 -0.52495145276E+02  0.14456151963E+03  0.16461560560E+03  0.41800000000E+01 0. -1.
         -5    1    1    2    0  502  0.40975877707E+02 -0.10863134228E+01  0.14608830096E+03  0.15178757100E+03  0.41800000000E+01 0.  1.
        -11    1    3    3    0    0  0.50624325953E+02  0.44173770313E+02  0.11686063539E+03  0.13479819163E+03  0.00000000000E+00 0.  1.
         11    1    3    3    0    0 -0.33059175556E+02  0.94076883848E+01  0.12124188017E+03  0.12601986826E+03  0.00000000000E+00 0. -1.
</event>
<event>
 7    1  0.6145388E-006  0.1369720E+03  0.7561462E-02  0.1217462E+00
          2   -1    0    0  501    0  0.00000000000E+00  0.00000000000E+00  0.43390160268E+03  0.43390160268E+03  0.00000000000E+00 0. -1.
         -2   -1    0    0    0  501 -0.00000000000E+00 -0.00000000000E+00 -0.52082664262E+02  0.52082664262E+02  0.00000000000E+00 0.  1.
         23    2    1    2    0    0 -0.93851316198E+02 -0.25006872628E+02  0.23499225519E+03  0.27002647055E+03  0.90881910005E+02 0.  0.
          5    1    1    2  502    0 -0.59265252041E+01 -0.28987193531E+02 -0.59796618153E+00  0.29886636702E+02  0.41800000000E+01 0. -1.
         -5    1    1    2    0  502  0.99777841402E+02  0.53994066159E+02  0.14742464940E+03  0.18607115969E+03  0.41800000000E+01 0. -1.
        -11    1    3    3    0    0 -0.37935094470E+02 -0.55207969716E+02  0.94538172401E+02  0.11586396055E+03  0.00000000000E+00 0.  1.
         11    1    3    3    0    0 -0.55916221729E+02  0.30201097088E+02  0.14045408279E+03  0.15416251000E+03  0.00000000000E+00 0. -1.
</event>
<event>
 7    1  0.6145388E-006  0.1253323E+03  0.7561462E-02  0.1234551E+00
         -1   -1    0    0    0  501 -0.00000000000E+00  0.00000000000E+00  0.72870996934E+03  0.72870996934E+03  0.00000000000E+00 0.  1.
          1   -1    0    0  501    0  0.00000000000E+00 -0.00000000000E+00 -0.26186478729E+02  0.26186478729E+02  0.00000000000E+00 0. -1.
         23    2    1    2    0    0 -0.47527551989E+01 -0.75296656202E+02  0.18010397505E+03  0.21535093345E+03  0.90809732901E+02 0.  0.
          5    1    1    2  502    0  0.19759642810E+02 -0.25609775633E+02  0.13739170620E+03  0.14120997637E+03  0.41800000000E+01 0. -1.
         -5    1    1    2    0  502 -0.15006887611E+02  0.10090643184E+03  0.38502780936E+03  0.39833553826E+03  0.41800000000E+01 0.  1.
        -11    1    3    3    0    0 -0.19270012563E+02  0.15044281372E+02  0.23124726498E+02  0.33651400592E+02  0.00000000000E+00 0.  1.
         11    1    3    3    0    0  0.14517257364E+02 -0.90340937573E+02  0.15697924856E+03  0.18169953286E+03  0.00000000000E+00 0. -1.
</event>
<event>
 7    1  0.6145388E-006  0.1397484E+03  0.7561462E-02  0.1213668E+00
         -1   -1    0    0    0  501 -0.00000000000E+00  0.00000000000E+00  0.12080475917E+03  0.12080475917E+03  0.00000000000E+00 0.  1.
          1   -1    0    0  501    0  0.00000000000E+00 -0.00000000000E+00 -0.33578345840E+03  0.33578345840E+03  0.00000000000E+00 0. -1.
         23    2    1    2    0    0 -0.79461462695E+02 -0.92065796133E+02 -0.23600145365E+03  0.28086763279E+03  0.91649910828E+02 0.  0.
          5    1    1    2  502    0 -0.10702444854E+02 -0.45384860459E+01 -0.31210742910E+02  0.33566695614E+02  0.41800000000E+01 0. -1.
         -5    1    1    2    0  502  0.90163907549E+02  0.96604282179E+02  0.52233497330E+02  0.14215388916E+03  0.41800000000E+01 0. -1.
        -11    1    3    3    0    0  0.53245556304E+01 -0.28427113232E+02 -0.12120982411E+03  0.12461249183E+03  0.00000000000E+00 0. -1.
         11    1    3    3    0    0 -0.84786018326E+02 -0.63638682901E+02 -0.11479162954E+03  0.15625514096E+03  0.00000000000E+00 0.  1.
</event>
<event>
 7    1  0.6145388E-006  0.1254105E+03  0.7561462E-02  0.1234429E+00
          1   -1    0    0  501    0  0.00000000000E+00  0.00000000000E+00  0.37112446574E+03  0.37112446574E+03  0.00000000000E+00 0. -1.
         -1   -1    0    0    0  501 -0.00000000000E+00 -0.00000000000E+00 -0.53030686403E+02  0.53030686403E+02  0.00000000000E+00 0.  1.
         23    2    1    2    0    0  0.74654145711E+02 -0.69644645392E+01  0.21971034073E+03  0.24823106855E+03  0.87887907749E+02 0.  0.
          5    1    1    2  502    0 -0.78802375587E+02 -0.40306454957E+02  0.31988522241E+02  0.94208081737E+02  0.41800000000E+01 0.  1.
         -5    1    1    2    0  502  0.41482298756E+01  0.47270919497E+02  0.66394916364E+02  0.81716001861E+02  0.41800000000E+01 0.  1.
        -11    1    3    3    0    0  0.85759888480E+02 -0.28476581351E+02  0.18527524494E+03  0.20613730993E+03  0.00000000000E+00 0. -1.
         11    1    3    3    0    0 -0.11105742769E+02  0.21512116812E+02  0.34435095793E+02  0.42093758616E+02  0.00000000000E+00 0.  1.
</event>
<event>
 7    1  0.6145388E-006  0.1128585E+03  0.7561462E-02  0.1255366E+00
          2   -1    0    0  501    0  0.00000000000E+00  0.00000000000E+00  0.24685605048E+03  0.24685605048E+03  0.00000000000E+00 0. -1.
         -2   -1    0    0    0  501 -0.00000000000E+00 -0.00000000000E+00 -0.81417594957E+02  0.81417594957E+02  0.00000000000E+00 0.  1.
         23    2    1    2    0    0 -0.85883548317E+01 -0.49146668763E+02  0.16582236157E+03  0.19417428790E+03  0.87848981764E+02 0.  0.
          5    1    1    2  502    0  0.42043405172E+01  0.86582304161E+02  0.22698537023E+02  0.89704335770E+02  0.41800000000E+01 0. -1.
         -5    1    1    2    0  502  0.43840143145E+01 -0.37435635398E+02 -0.23082443071E+02  0.44395021762E+02  0.41800000000E+01 0.  1.
        -11    1    3    3    0    0 -0.29827419339E+02 -0.66951179474E+02  0.11866339973E+03  0.13947450596E+03  0.00000000000E+00 0. -1.
         11    1    3    3    0    0  0.21239064508E+02  0.17804510711E+02  0.47158961833E+02  0.54699781937E+02  0.00000000000E+00 0.  1.
</event>
<event>
 7    1  0.6145388E-006  0.1001733E+03  0.7561462E-02  0.1279932E+00
         -1   -1    0    0    0  501 -0.00000000000E+00  0.00000000000E+00  0.94409248862E+02  0.94409248862E+02  0.00000000000E+00 0.  1.
          1   -1    0    0  501    0  0.00000000000E+00 -0.00000000000E+00 -0.18665645703E+03  0.18665645703E+03  0.00000000000E+00 0. -1.
         23    2    1    2    0    0  0.27899594998E+02 -0.40613404550E+02 -0.10251379469E+03  0.14622642042E+03  0.91898051651E+02 0.  0.
          5    1    1    2  502    0 -0.56095908252E+02  0.37337696665E+02  0.51282876295E+02  0.84783608769E+02  0.41800000000E+01 0.  1.
         -5    1    1    2    0  502  0.28196313254E+02  0.32757078856E+01 -0.41016289778E+02  0.50055676705E+02  0.41800000000E+01 0.  1.
        -11    1    3    3    0    0  0.53613926339E+02 -0.53182776277E+02 -0.77599090210E+02  0.10827963609E+03  0.00000000000E+00 0.  1.
         11    1    3    3    0    0 -0.25714331341E+02  0.12569371726E+02 -0.24914704477E+02  0.37946784331E+02  0.00000000000E+00 0. -1.
</event>
<event>
 7    1  0.6145388E-006  0.6837292E+02  0.7561462E-02  0.1365715E+00
         -1   -1    0    0    0  501 -0.00000000000E+00  0.00000000000E+00  0.45910673918E+02  0.45910673918E+02  0.00000000000E+00 0.  1.
          1   -1    0    0  501    0  0.00000000000E+00 -0.00000000000E+00 -0.29450068093E+03  0.29450068093E+03  0.00000000000E+00 0. -1.
         23    2    1    2    0    0  0.17985604371E+02 -0.26943921240E+01 -0.16639674483E+03  0.18968858820E+03  0.89236439244E+02 0.  0.
          5    1    1    2  502    0  0.37774532215E+01 -0.16118643083E+02 -0.10950956633E+03  0.11083274482E+03  0.41800000000E+01 0. -1.
         -5    1    1    2    0  502 -0.21763057593E+02  0.18813035207E+02  0.27316304143E+02  0.39890021829E+02  0.41800000000E+01 0. -1.
        -11    1    3    3    0    0  0.47042380786E+02  0.22496986847E+02 -0.86132450324E+02  0.10068713426E+03  0.00000000000E+00 0.  1.
         11    1    3    3    0    0 -0.29056776415E+02 -0.25191378971E+02 -0.80264294505E+02  0.89001453934E+02  0.00000000000E+00 0. -1.
</event>
<event>
 7    1  0.6145388E-006  0.2098208E+03  0.7561462E-02  0.1141708E+00
          1   -1    0    0  501    0  0.00000000000E+00  0.00000000000E+00  0.89191118054E+03  0.89191118054E+03  0.00000000000E+00 0. -1.
         -1   -1    0    0    0  501 -0.00000000000E+00 -0.00000000000E+00 -0.22588304807E+03  0.22588304807E+03  0.00000000000E+00 0.  1.
         23    2    1    2    0    0 -0.76530167068E+02  0.14208475491E+03  0.80941171092E+03  0.83029742440E+03  0.90562415697E+02 0.  0.
          5    1    1    2  502    0  0.12768057850E+03 -0.14908946180E+03 -0.10232010591E+03  0.22139754791E+03  0.41800000000E+01 0. -1.
         -5    1    1    2    0  502 -0.51150411433E+02  0.70047068893E+01 -0.41063472532E+02  0.66099256310E+02  0.41800000000E+01 0.  1.
        -11    1    3    3    0    0  0.10307597065E+01  0.54537534017E+02  0.13141547559E+03  0.14228644456E+03  0.00000000000E+00 0.  1.
         11    1    3    3    0    0 -0.77560926774E+02  0.87547220890E+02  0.67799623533E+03  0.68801097984E+03  0.00000000000E+00 0. -1.
</event>
<event>
 7    1  0.6145388E-006  0.1053907E+03  0.7561462E-02  0.1269352E+00
         -1   -1    0    0    0  501 -0.00000000000E+00  0.00000000000E+00  0.46123480810E+02  0.46123480810E+02  0.00000000000E+00 0.  1.
          1   -1    0    0  501    0  0.00000000000E+00 -0.00000000000E+00 -0.35835943308E+03  0.35835943308E+03  0.00000000000E+00 0. -1.
         23    2    1    2    0    0  0.64128139669E+02 -0.94031186936E+00 -0.17719738042E+03  0.20955882042E+03  0.91666161166E+02 0.  0.
          5    1    1    2  502    0  0.27190574108E+02  0.31654306158E+02 -0.25933247312E+02  0.49308499621E+02  0.41800000000E+01 0.  1.
         -5    1    1    2    0  502 -0.91318713777E+02 -0.30713994289E+02 -0.10910532454E+03  0.14561559386E+03  0.41800000000E+01 0.  1.
        -11    1    3    3    0    0  0.26987909127E+02  0.16227649547E+02 -0.41776484572E+01  0.31766910386E+02  0.00000000000E+00 0.  1.
         11    1    3    3    0    0  0.37140230542E+02 -0.17167961416E+02 -0.17301973196E+03  0.17779191003E+03  0.00000000000E+00 0. -1.
</event>
<event>
 7    1  0.6145388E-006  0.9134282E+02  0.7561462E-02  0.1299632E+00
          2   -1    0    0  501    0  0.00000000000E+00  0.00000000000E+00  0.14333729743E+03  0.14333729743E+03  0.00000000000E+00 0. -1.
         -2   -1    0    0    0  501 -0.00000000000E+00 -0.00000000000E+00 -0.10690542916E+03  0.10690542916E+03  0.00000000000E+00 0.  1.
         23    2    1    2    0    0 -0.52956012945E+02  0.16935718758E+02  0.36777417045E+02  0.11335114596E+03  0.91677401841E+02 0.  0.
          5    1    1    2  502    0  0.82718999613E+02  0.51235400402E+01  0.30595038563E+02  0.88443271899E+02  0.41800000000E+01 0. -1.
         -5    1    1    2    0  502 -0.29762986668E+02 -0.22059258798E+02 -0.30940587336E+02  0.48448308730E+02  0.41800000000E+01 0. -1.
        -11    1    3    3    0    0 -0.68841443798E+01  0.14773360992E+02 -0.28851061336E+02  0.33136496180E+02  0.00000000000E+00 0.  1.
         11    1    3    3    0    0 -0.46071868565E+02  0.21623577663E+01  0.65628478382E+02  0.80214649777E+02  0.00000000000E+00 0. -1.
</event>
<event>
 7    1  0.6145388E-006  0.1473344E+03  0.7561462E-02  0.1203787E+00
         -1   -1    0    0    0  501 -0.00000000000E+00  0.00000000000E+00  0.45814875534E+02  0.45814875534E+02  0.00000000000E+00 0. -1.
          1   -1    0    0  501    0  0.00000000000E+00 -0.00000000000E+00 -0.72367463429E+03  0.72367463429E+03  0.00000000000E+00 0.  1.
         23    2    1    2    0    0  0.97592565153E+02  0.86232203658E+02 -0.45643606893E+03  0.48376782926E+03  0.93472594321E+02 0.  0.
          5    1    1    2  502    0  0.84776975554E+01  0.10819629065E+02 -0.89197683636E+02  0.90347301537E+02  0.41800000000E+01 0. -1.
         -5    1    1    2    0  502 -0.10607026271E+03 -0.97051832723E+02 -0.13222600619E+03  0.19537437903E+03  0.41800000000E+01 0. -1.
        -11    1    3    3    0    0  0.67344038930E+02  0.32424423894E+02 -0.37047705361E+03  0.37794154322E+03  0.00000000000E+00 0.  1.
         11    1    3    3    0    0  0.30248526224E+02  0.53807779764E+02 -0.85959015320E+02  0.10582628604E+03  0.00000000000E+00 0. -1.
</event>
<event>
 7    1  0.6145388E-006  0.1159277E+03  0.7561462E-02  0.1249970E+00
          2   -1    0    0  501    0  0.00000000000E+00  0.00000000000E+00  0.30358375849E+03  0.30358375849E+03  0.00000000000E+00 0. -1.
         -2   -1    0    0    0  501 -0.00000000000E+00 -0.00000000000E+00 -0.89520980702E+02  0.89520980702E+02  0.00000000000E+00 0.  1.
         23    2    1    2    0    0  0.81332374153E+02 -0.66271571231E+02  0.17818832598E+03  0.22594677899E+03  0.91071352132E+02 0.  0.
          5    1    1    2  502    0 -0.69222490118E+01 -0.76967100642E+01 -0.37455657652E+02  0.39083955370E+02  0.41800000000E+01 0.  1.
         -5    1    1    2    0  502 -0.74410125141E+02  0.73968281296E+02  0.73330109455E+02  0.12807400483E+03  0.41800000000E+01 0.  1.
        -11    1    3    3    0    0  0.77721733100E+02 -0.36794578018E+02  0.17634304923E+03  0.19619220112E+03  0.00000000000E+00 0. -1.
         11    1    3    3    0    0  0.36106410521E+01 -0.29476993213E+02  0.18452767500E+01  0.29754577866E+02  0.00000000000E+00 0.  1.
</event>
<event>
 7    1  0.6145388E-006  0.1140134E+03  0.7561462E-02  0.1253313E+00
         -3   -1    0    0    0  501 -0.00000000000E+00  0.00000000000E+00  0.25588914151E+03  0.25588914151E+03  0.00000000000E+00 0.  1.
          3   -1    0    0  501    0  0.00000000000E+00 -0.00000000000E+00 -0.55623889756E+02  0.55623889756E+02  0.00000000000E+00 0. -1.
         23    2    1    2    0    0  0.57505798912E-01  0.46993648521E+02  0.70463217533E+02  0.12521771128E+03  0.92227999467E+02 0.  0.
          5    1    1    2  502    0  0.42702484171E+02 -0.66262992009E+02  0.49413373495E+02  0.93131305931E+02  0.41800000000E+01 0.  1.
         -5    1    1    2    0  502 -0.42759989970E+02  0.19269343488E+02  0.80388660725E+02  0.93164014049E+02  0.41800000000E+01 0.  1.
        -11    1    3    3    0    0 -0.15157075649E+02 -0.24551385657E+02  0.10738638586E+02  0.30786780257E+02  0.00000000000E+00 0.  1.
         11    1    3    3    0    0  0.15214581448E+02  0.71545034178E+02  0.59724578947E+02  0.94430931026E+02  0.00000000000E+00 0. -1.
</event>
<event>
 7    1  0.6145388E-006  0.1509597E+03  0.7561462E-02  0.1199299E+00
          2   -1    0    0  501    0  0.00000000000E+00  0.00000000000E+00  0.62058182219E+03  0.62058182219E+03  0.00000000000E+00 0. -1.
         -2   -1    0    0    0  501 -0.00000000000E+00 -0.00000000000E+00 -0.45746977600E+02  0.45746977600E+02  0.00000000000E+00 0.  1.
         23    2    1    2    0    0  0.66644903927E+02  0.60297043872E+02  0.33013805525E+03  0.35413532354E+03  0.91342296538E+02 0.  0.
          5    1    1    2  502    0 -0.90849579209E+02  0.32575678802E+02  0.10529431627E+03  0.14289571838E+03  0.41800000000E+01 0. -1.
         -5    1    1    2    0  502  0.24204675283E+02 -0.92872722673E+02  0.13940247308E+03  0.16929775788E+03  0.41800000000E+01 0.  1.
        -11    1    3    3    0    0  0.62828057260E+01 -0.12915113782E+02  0.46467739233E+01  0.15095241624E+02  0.00000000000E+00 0.  1.
         11    1    3    3    0    0  0.60362098201E+02  0.73212157653E+02  0.32549128133E+03  0.33904008192E+03  0.00000000000E+00 0. -1.
</event>
<event>
 7    1  0.6145388E-006  0.1175083E+03  0.7561462E-02  0.1247265E+00
         -2   -1    0    0    0  501 -0.00000000000E+00  0.00000000000E+00  0.44698408867E+02  0.44698408867E+02  0.00000000000E+00 0.  1.
          2   -1    0    0  501    0  0.00000000000E+00 -0.00000000000E+00 -0.46351699307E+03  0.46351699307E+03  0.00000000000E+00 0. -1.
         23    2    1    2    0    0 -0.91789549257E+02 -0.16987655486E+02 -0.17134317021E+03  0.21563114662E+03  0.91784571819E+02 0.  0.
          5    1    1    2  502    0 -0.23704961899E+02 -0.17431391016E+01 -0.10713750993E+03  0.10982204782E+03  0.41800000000E+01 0.  1.
         -5    1    1    2    0  502  0.11549451116E+03  0.18730794588E+02 -0.14033790406E+03  0.18276220750E+03  0.41800000000E+01 0.  1.
        -11    1    3    3    0    0 -0.34950909958E+02 -0.19243111903E+01 -0.55947014270E+00  0.35008314545E+02  0.00000000000E+00 0.  1.
         11    1    3    3    0    0 -0.56838639299E+02 -0.15063344296E+02 -0.17078370007E+03  0.18062283208E+03  0.00000000000E+00 0. -1.
</event>
<event>
 7    1  0.6145388E-006  0.1464904E+03  0.7561462E-02  0.1204853E+00
         -1   -1    0    0    0  501 -0.00000000000E+00  0.00000000000E+00  0.30973206589E+02  0.30973206589E+02  0.00000000000E+00 0.  1.
          1   -1    0    0  501    0  0.00000000000E+00 -0.00000000000E+00 -0.86567320837E+03  0.86567320837E+03  0.00000000000E+00 0. -1.
         23    2    1    2    0    0 -0.14964940088E+02 -0.12104844665E+03 -0.41794753685E+03  0.44475348532E+03  0.90823142816E+02 0.  0.
          5    1    1    2  502    0 -0.27755609912E+02  0.79066563608E+02 -0.10496247503E+03  0.13437443554E+03  0.41800000000E+01 0. -1.
         -5    1    1    2    0  502  0.42720550000E+02  0.41981883047E+02 -0.31178998990E+03  0.31751849411E+03  0.41800000000E+01 0. -1.
        -11    1    3    3    0    0  0.27052605731E+02 -0.76615907438E+01 -0.48980033441E+02  0.56476429822E+02  0.00000000000E+00 0.  1.
         11    1    3    3    0    0 -0.42017545819E+02 -0.11338685591E+03 -0.36896750341E+03  0.38827705549E+03  0.00000000000E+00 0. -1.
</event>
<event>
 7    1  0.6145388E-006  0.1623537E+03  0.7561462E-02  0.1186065E+00
         -1   -1    0    0    0  501 -0.00000000000E+00  0.00000000000E+00  0.41222568356E+02  0.41222568356E+02  0.00000000000E+00 0. -1.
          1   -1    0    0  501    0  0.00000000000E+00 -0.00000000000E+00 -0.77940213071E+03  0.77940213071E+03  0.00000000000E+00 0.  1.
         23    2    1    2    0    0  0.16766111664E+02 -0.14029674856E+03 -0.39322724964E+03  0.42742637862E+03  0.90007550380E+02 0.  0.
          5    1    1    2  502    0 -0.32568781347E+02 -0.51109964082E+01 -0.25695986807E+02  0.42007189155E+02  0.41800000000E+01 0.  1.
         -5    1    1    2    0  502  0.15802669683E+02  0.14540774497E+03 -0.31925632591E+03  0.35119113129E+03  0.41800000000E+01 0.  1.
        -11    1    3    3    0    0  0.26688742268E+02 -0.11297406127E+03 -0.37627785843E+03  0.39377716316E+03  0.00000000000E+00 0.  1.
         11    1    3    3    0    0 -0.99226306038E+01 -0.27322687283E+02 -0.16949391210E+02  0.33649215457E+02  0.00000000000E+00 0. -1.
</event>
<event>
 7    1  0.6145388E-006  0.9604306E+02  0.7561462E-02  0.1288844E+00
         -2   -1    0    0    0  501 -0.00000000000E+00  0.00000000000E+00  0.72331470120E+02  0.72331470120E+02  0.00000000000E+00 0.  1.
          2   -1    0    0  501    0  0.00000000000E+00 -0.00000000000E+00 -0.15400801049E+03  0.15400801049E+03  0.00000000000E+00 0. -1.
         23    2    1    2    0    0 -0.17695516892E+01 -0.25747404097E+02 -0.44524221471E+02  0.93320280016E+02  0.77847339285E+02 0.  0.
          5    1    1    2  502    0 -0.59407375604E+02  0.10621463835E+01 -0.29521953010E+02  0.66478436659E+02  0.41800000000E+01 0.  1.
         -5    1    1    2    0  502  0.61176927294E+02  0.24685257713E+02 -0.76303658893E+01  0.66540763935E+02  0.41800000000E+01 0.  1.
        -11    1    3    3    0    0  0.22141824818E+02  0.92815906083E+01 -0.44889602547E+02  0.50906627735E+02  0.00000000000E+00 0. -1.
         11    1    3    3    0    0 -0.23911376507E+02 -0.35028994705E+02  0.36538107587E+00  0.42413652281E+02  0.00000000000E+00 0.  1.
</event>
<event>
 7    1  0.6145388E-006  0.1126792E+03  0.7561462E-02  0.1255687E+00
         -3   -1    0    0    0  501 -0.00000000000E+00  0.00000000000E+00  0.11304866333E+03  0.11304866333E+03  0.00000000000E+00 0.  1.
          3   -1    0    0  501    0  0.00000000000E+00 -0.00000000000E+00 -0.16991575172E+03  0.16991575172E+03  0.00000000000E+00 0. -1.
         23    2    1    2    0    0  0.64322728844E+02  0.53921095828E+02 -0.37958509786E+02  0.13114280687E+03  0.93341787579E+02 0.  0.
          5    1    1    2  502    0 -0.38111570012E+02 -0.89200583482E+02 -0.37280346653E+02  0.10400256011E+03  0.41800000000E+01 0. -1.
         -5    1    1    2    0  502 -0.26211158832E+02  0.35279487654E+02  0.18371768052E+02  0.47819048065E+02  0.41800000000E+01 0. -1.
        -11    1    3    3    0    0  0.46243346475E+02  0.35415714932E+02  0.24765120726E+02  0.63293215765E+02  0.00000000000E+00 0.  1.
         11    1    3    3    0    0  0.18079382370E+02  0.18505380897E+02 -0.62723630512E+02  0.67849591109E+02  0.00000000000E+00 0. -1.
</event>
<event>
 7    1  0.6145388E-006  0.1333719E+03  0.7561462E-02  0.1222536E+00
          1   -1    0    0  501    0  0.00000000000E+00  0.00000000000E+00  0.97805126520E+02  0.97805126520E+02  0.00000000000E+00 0. -1.
         -1   -1    0    0    0  501 -0.00000000000E+00 -0.00000000000E+00 -0.21187195333E+03  0.21187195333E+03  0.00000000000E+00 0.  1.
         23    2    1    2    0    0  0.80343055873E+02 -0.33297831373E+02 -0.25030898900E+02  0.13321466019E+03  0.97754015716E+02 0.  0.
          5    1    1    2  502    0 -0.14757626516E+02  0.64619098980E+02 -0.70009056679E+01  0.66782487027E+02  0.41800000000E+01 0. -1.
         -5    1    1    2    0  502 -0.65585429357E+02 -0.31321267606E+02 -0.82035022247E+02  0.10967993264E+03  0.41800000000E+01 0. -1.
        -11    1    3    3    0    0  0.26686752186E+02 -0.61407051336E+02 -0.27987242124E+02  0.72569238784E+02  0.00000000000E+00 0.  1.
         11    1    3    3    0    0  0.53656303687E+02  0.28109219962E+02  0.29563432243E+01  0.60645421406E+02  0.00000000000E+00 0. -1.
</event>
<event>
 7    1  0.6145388E-006  0.6311321E+02  0.7561462E-02  0.1385213E+00
         -1   -1    0    0    0  501 -0.00000000000E+00  0.00000000000E+00  0.27239470023E+04  0.27239470023E+04  0.00000000000E+00 0.  1.
          1   -1    0    0  501    0  0.00000000000E+00 -0.00000000000E+00 -0.24250234932E+02  0.24250234932E+02  0.00000000000E+00 0. -1.
         23    2    1    2    0    0 -0.16413326858E+02  0.63837158237E+01  0.82360902666E+02  0.12759870234E+03  0.95853854509E+02 0.  0.
          5    1    1    2  502    0 -0.25449394474E+02  0.33034101232E+01  0.11551121673E+03  0.11840142646E+03  0.41800000000E+01 0. -1.
         -5    1    1    2    0  502  0.41862721332E+02 -0.96871259469E+01  0.25018246480E+04  0.25021971085E+04  0.41800000000E+01 0.  1.
        -11    1    3    3    0    0  0.17482448909E+02 -0.91905487541E+01  0.87717378055E+02  0.89913517443E+02  0.00000000000E+00 0.  1.
         11    1    3    3    0    0 -0.33895775767E+02  0.15574264578E+02 -0.53564753884E+01  0.37685184895E+02  0.00000000000E+00 0. -1.
</event>
<event>
 7    1  0.6145388E-006  0.1179689E+03  0.7561462E-02  0.1246486E+00
         -1   -1    0    0    0  501 -0.00000000000E+00  0.00000000000E+00  0.99315148988E+02  0.99315148988E+02  0.00000000000E+00 0.  1.
          1   -1    0    0  501    0  0.00000000000E+00 -0.00000000000E+00 -0.21036505700E+03  0.21036505700E+03  0.00000000000E+00 0. -1.
         23    2    1    2    0    0  0.43843060870E+02  0.68782175559E+02 -0.10391918529E+03  0.16017562913E+03  0.90575015508E+02 0.  0.
          5    1    1    2  502    0 -0.48563252194E+02  0.24201020358E+02  0.82668836552E+01  0.55044460352E+02  0.41800000000E+01 0. -1.
         -5    1    1    2    0  502  0.47201913242E+01 -0.92983195916E+02 -0.15397606380E+02  0.94460116510E+02  0.41800000000E+01 0. -1.
        -11    1    3    3    0    0  0.48149621107E+02  0.51468507446E+02 -0.11800087406E+03  0.13744671531E+03  0.00000000000E+00 0. -1.
         11    1    3    3    0    0 -0.43065602373E+01  0.17313668112E+02  0.14081688770E+02  0.22728913815E+02  0.00000000000E+00 0.  1.
</event>
<event>
 7    1  0.6145388E-006  0.1203493E+03  0.7561462E-02  0.1242522E+00
          1   -1    0    0  501    0  0.00000000000E+00  0.00000000000E+00  0.59505265386E+03  0.59505265386E+03  0.00000000000E+00 0. -1.
         -1   -1    0    0    0  501 -0.00000000000E+00 -0.00000000000E+00 -0.28498254636E+02  0.28498254636E+02  0.00000000000E+00 0.  1.
         23    2    1    2    0    0  0.44311463496E+02  0.34497802591E+02  0.36097138518E+03  0.37643415195E+03  0.90822495304E+02 0.  0.
          5    1    1    2  502    0 -0.72583815296E+02  0.18888376788E+02  0.13140762347E+03  0.15136253475E+03  0.41800000000E+01 0. -1.
         -5    1    1    2    0  502  0.28272351801E+02 -0.53386179379E+02  0.74175390578E+02  0.95754221799E+02  0.41800000000E+01 0. -1.
        -11    1    3    3    0    0 -0.11725952299E+02 -0.22326887719E+02  0.60524317819E+02  0.65568139519E+02  0.00000000000E+00 0.  1.
         11    1    3    3    0    0  0.56037415794E+02  0.56824690310E+02  0.30044706737E+03  0.31086601243E+03  0.00000000000E+00 0. -1.
</event>
<event>
 7    1  0.6145388E-006  0.1639461E+03  0.7561462E-02  0.1184312E+00
         -1   -1    0    0    0  501 -0.00000000000E+00  0.00000000000E+00  0.39096958215E+02  0.39096958215E+02  0.00000000000E+00 0.  1.
          1   -1    0    0  501    0  0.00000000000E+00 -0.00000000000E+00 -0.81499945290E+03  0.81499945290E+03  0.00000000000E+00 0. -1.
         23    2    1    2    0    0 -0.34383690273E+02 -0.13033823223E+03 -0.46430578656E+03  0.49227867703E+03  0.92672215266E+02 0.  0.
          5    1    1    2  502    0  0.92082511760E+01 -0.24307436114E+02 -0.57972635073E+02  0.63670575287E+02  0.41800000000E+01 0.  1.
         -5    1    1    2    0  502  0.25175439097E+02  0.15464566834E+03 -0.25362407305E+03  0.29814715880E+03  0.41800000000E+01 0.  1.
        -11    1    3    3    0    0 -0.40375584041E+02 -0.49999847570E+02 -0.32553841510E+03  0.33182138606E+03  0.00000000000E+00 0. -1.
         11    1    3    3    0    0  0.59918937682E+01 -0.80338384659E+02 -0.13876737147E+03  0.16045729097E+03  0.00000000000E+00 0.  1.
</event>
<event>
 7    1  0.6145388E-006  0.8849052E+02  0.7561462E-02  0.1306549E+00
          4   -1    0    0  501    0  0.00000000000E+00  0.00000000000E+00  0.45855914108E+02  0.45855914108E+02  0.00000000000E+00 0. -1.
         -4   -1    0    0    0  501 -0.00000000000E+00 -0.00000000000E+00 -0.31961127028E+03  0.31961127028E+03  0.00000000000E+00 0.  1.
         23    2    1    2    0    0 -0.84175281407E+01 -0.21559965987E+02 -0.50511427121E+02  0.10852077886E+03  0.93218390147E+02 0.  0.
          5    1    1    2  502    0 -0.17757614562E+02 -0.26940592107E+02 -0.18931830629E+03  0.19209378406E+03  0.41800000000E+01 0. -1.
         -5    1    1    2    0  502  0.26175142703E+02  0.48500558094E+02 -0.33925622755E+02  0.64852621460E+02  0.41800000000E+01 0. -1.
        -11    1    3    3    0    0  0.11576752366E+02  0.30918766346E+02 -0.39171185907E+02  0.51228635675E+02  0.00000000000E+00 0.  1.
         11    1    3    3    0    0 -0.19994280507E+02 -0.52478732332E+02 -0.11340241213E+02  0.57292143187E+02  0.00000000000E+00 0. -1.
</event>
<event>
 7    1  0.6145388E-006  0.1359583E+03  0.7561462E-02  0.1218873E+00
          3   -1    0    0  501    0  0.00000000000E+00  0.00000000000E+00  0.23951660247E+03  0.23951660247E+03  0.00000000000E+00 0. -1.
         -3   -1    0    0    0  501 -0.00000000000E+00 -0.00000000000E+00 -0.15959738360E+03  0.15959738360E+03  0.00000000000E+00 0.  1.
         23    2    1    2    0    0  0.37107188107E+02 -0.12425117665E+03  0.13728140951E+03  0.21002098985E+03  0.91909370979E+02 0.  0.
          5    1    1    2  502    0 -0.24552982883E+02  0.95224961575E+02  0.24332366056E+02  0.10139121616E+03  0.41800000000E+01 0. -1.
         -5    1    1    2    0  502 -0.12554205223E+02  0.29026215072E+02 -0.81694556705E+02  0.87701780059E+02  0.41800000000E+01 0. -1.
        -11    1    3    3    0    0  0.47625413382E+02 -0.60603858007E+02  0.25912132478E+02  0.81316949123E+02  0.00000000000E+00 0.  1.
         11    1    3    3    0    0 -0.10518225275E+02 -0.63647318641E+02  0.11136927704E+03  0.12870404073E+03  0.00000000000E+00 0. -1.
</event>
<event>
 7    1  0.6145388E-006  0.1067508E+03  0.7561462E-02  0.1266708E+00
          4   -1    0    0  501    0  0.00000000000E+00  0.00000000000E+00  0.21514056349E+02  0.21514056349E+02  0.00000000000E+00 0. -1.
         -4   -1    0    0    0  501 -0.00000000000E+00 -0.00000000000E+00 -0.81641920301E+03  0.81641920301E+03  0.00000000000E+00 0.  1.
         23    2    1    2    0    0 -0.58113626005E+02 -0.28465620143E+02 -0.23649430908E+03  0.26203251532E+03  0.92433737356E+02 0.  0.
          5    1    1    2  502    0  0.34877236917E+02  0.73986236591E+02 -0.24511555969E+03  0.25843663607E+03  0.41800000000E+01 0.  1.
         -5    1    1    2    0  502  0.23236389088E+02 -0.45520616448E+02 -0.31329527788E+03  0.31746410796E+03  0.41800000000E+01 0.  1.
        -11    1    3    3    0    0  0.18575708558E+01 -0.19612311587E+02 -0.19680540102E+01  0.19798145667E+02  0.00000000000E+00 0. -1.
         11    1    3    3    0    0 -0.59971196861E+02 -0.88533085561E+01 -0.23452625507E+03  0.24223436966E+03  0.00000000000E+00 0.  1.
</event>
<event>
 7    1  0.6145388E-006  0.7482210E+02  0.7561462E-02  0.1344423E+00
          3   -1    0    0  501    0  0.00000000000E+00  0.00000000000E+00  0.20312500858E+03  0.20312500858E+03  0.00000000000E+00 0. -1.
         -3   -1    0    0    0  501 -0.00000000000E+00 -0.00000000000E+00 -0.69117232730E+02  0.69117232730E+02  0.00000000000E+00 0.  1.
         23    2    1    2    0    0  0.50371065337E+02 -0.20403202726E+02  0.41384164142E+02  0.10737778799E+03  0.82848086317E+02 0.  0.
          5    1    1    2  502    0 -0.68593988078E+02  0.26527146081E+02  0.36630146846E+01  0.73754421943E+02  0.41800000000E+01 0. -1.
         -5    1    1    2    0  502  0.18222922740E+02 -0.61239433552E+01  0.88960597021E+02  0.91110031378E+02  0.41800000000E+01 0. -1.
        -11    1    3    3    0    0  0.67743131851E+01 -0.89618308044E+01 -0.24844577620E+02  0.27266440318E+02  0.00000000000E+00 0.  1.
         11    1    3    3    0    0  0.43596752152E+02 -0.11441371921E+02  0.66228741762E+02  0.80111347667E+02  0.00000000000E+00 0. -1.
</event>
<event>
 7    1  0.6145388E-006  0.1500048E+03  0.7561462E-02  0.1200467E+00
          2   -1    0    0  501    0  0.00000000000E+00  0.00000000000E+00  0.67615737313E+02  0.67615737313E+02  0.00000000000E+00 0. -1.
         -2   -1    0    0    0  501 -0.00000000000E+00 -0.00000000000E+00 -0.45232070519E+03  0.45232070519E+03  0.00000000000E+00 0.  1.
         23    2    1    2    0    0 -0.21211342567E+01  0.12958652760E+03 -0.11495870208E+03  0.19557889884E+03  0.90765825857E+02 0.  0.
          5    1    1    2  502    0  0.52888407676E+02 -0.93515820319E+02 -0.21879551648E+03  0.24378544409E+03  0.41800000000E+01 0.  1.
         -5    1    1    2    0  502 -0.50767273419E+02 -0.36070707278E+02 -0.50950749317E+02  0.80572099575E+02  0.41800000000E+01 0.  1.
        -11    1    3    3    0    0 -0.44874157965E+01  0.21498751231E+02 -0.78451802133E+02  0.81467898359E+02  0.00000000000E+00 0.  1.
         11    1    3    3    0    0  0.23662815398E+01  0.10808777637E+03 -0.36506899950E+02  0.11411100049E+03  0.00000000000E+00 0. -1.
</event>
<event>
 7    1  0.6145388E-006  0.1257531E+03  0.7561462E-02  0.1233897E+00
         -1   -1    0    0    0  501 -0.00000000000E+00  0.00000000000E+00  0.27228417297E+03  0.27228417297E+03  0.00000000000E+00 0.  1.
          1   -1    0    0  501    0  0.00000000000E+00 -0.00000000000E+00 -0.93534108663E+02  0.93534108663E+02  0.00000000000E+00 0. -1.
         23    2    1    2    0    0 -0.33077438282E+02  0.58273895335E+02 -0.27433596353E+02  0.11552057999E+03  0.90013545602E+02 0.  0.
          5    1    1    2  502    0 -0.15191614980E+02 -0.83707114623E+02  0.14540116908E+03  0.16851302197E+03  0.41800000000E+01 0.  1.
         -5    1    1    2    0  502  0.48269053262E+02  0.25433219288E+02  0.60782491584E+02  0.81784679674E+02  0.41800000000E+01 0.  1.
        -11    1    3    3    0    0 -0.57855674372E+02  0.63900377170E+02 -0.16067534695E+02  0.87685249220E+02  0.00000000000E+00 0.  1.
         11    1    3    3    0    0  0.24778236090E+02 -0.56264818351E+01 -0.11366061658E+02  0.27835330772E+02  0.00000000000E+00 0. -1.
</event>
<event>
 7    1  0.6145388E-006  0.1848389E+03  0.7561462E-02  0.1163200E+00
         -2   -1    0    0    0  501 -0.00000000000E+00  0.00000000000E+00  0.42145346679E+02  0.42145346679E+02  0.00000000000E+00 0. -1.
          2   -1    0    0  501    0  0.00000000000E+00 -0.00000000000E+00 -0.82256464905E+03  0.82256464905E+03  0.00000000000E+00 0.  1.
         23    2    1    2    0    0  0.39072417158E+02  0.14462862098E+03 -0.36012295672E+03  0.40130761720E+03  0.94420166656E+02 0.  0.
          5    1    1    2  502    0  0.37250595211E+02 -0.95833864488E+02 -0.19378139404E+03  0.21940929219E+03  0.41800000000E+01 0. -1.
         -5    1    1    2    0  502 -0.76323012368E+02 -0.48794756492E+02 -0.22651495161E+03  0.24399308634E+03  0.41800000000E+01 0. -1.
        -11    1    3    3    0    0  0.68255943054E+02  0.11930877051E+03 -0.26234306541E+03  0.29617113372E+03  0.00000000000E+00 0. -1.
         11    1    3    3    0    0 -0.29183525896E+02  0.25319850470E+02 -0.97779891317E+02  0.10513648348E+03  0.00000000000E+00 0.  1.
</event>
<event>
 6    1  0.6145388E-006  0.2072674E+03  0.7561462E-02  0.1143748E+00
         -1   -1    0    0    0  501 -0.00000000000E+00  0.00000000000E+00  0.65036127303E+02  0.65036127303E+02  0.00000000000E+00 0.  1.
          1   -1    0    0  501    0  0.00000000000E+00 -0.00000000000E+00 -0.11770505107E+04  0.11770505107E+04  0.00000000000E+00 0. -1.
          5    1    1    2  502    0 -0.51583831089E+02  0.31846695811E+02 -0.15541098115E+03  0.16686865831E+03  0.41800000000E+01 0.  1.
         -5    1    1    2    0  502 -0.12081440387E+03  0.71207919842E+01 -0.48128704190E+02  0.13030990150E+03  0.41800000000E+01 0.  1.
        -11    1    1    2    0    0  0.56222572811E+02  0.58417998116E+02 -0.14138508550E+03  0.16298276780E+03  0.00000000000E+00 0.  1.
         11    1    1    2    0    0  0.11617566215E+03 -0.97385485911E+02 -0.76708961253E+03  0.78192531037E+03  0.00000000000E+00 0. -1.
</event>
<event>
 7    1  0.6145388E-006  0.2193296E+03  0.7561462E-02  0.1134384E+00
         -1   -1    0    0    0  501 -0.00000000000E+00  0.00000000000E+00  0.75798464482E+02  0.75798464482E+02  0.00000000000E+00 0.  1.
          1   -1    0    0  501    0  0.00000000000E+00 -0.00000000000E+00 -0.74769862593E+03  0.74769862593E+03  0.00000000000E+00 0. -1.
         23    2    1    2    0    0 -0.20799424454E+03  0.31179922696E+02 -0.37123320720E+03  0.43583530954E+03  0.88907421359E+02 0.  0.
          5    1    1    2  502    0  0.11787839447E+02  0.19793069400E+02 -0.98831489197E+02  0.10156699470E+03  0.41800000000E+01 0.  1.
         -5    1    1    2    0  502  0.19620640509E+03 -0.50972992097E+02 -0.20183546505E+03  0.28609478618E+03  0.41800000000E+01 0.  1.
        -11    1    3    3    0    0 -0.10363446139E+03  0.24441540818E+00 -0.10190710480E+03  0.14534517307E+03  0.00000000000E+00 0.  1.
         11    1    3    3    0    0 -0.10435978315E+03  0.30935507288E+02 -0.26932610240E+03  0.29049013647E+03  0.00000000000E+00 0. -1.
</event>
<event>
 7    1  0.6145388E-006  0.7423494E+02  0.7561462E-02  0.1346257E+00
          1   -1    0    0  501    0  0.00000000000E+00  0.00000000000E+00  0.71395172228E+02  0.71395172228E+02  0.00000000000E+00 0. -1.
         -1   -1    0    0    0  501 -0.00000000000E+00 -0.00000000000E+00 -0.19352156003E+03  0.19352156003E+03  0.00000000000E+00 0.  1.
         23    2    1    2    0    0  0.25697014397E+02 -0.17721443499E+02 -0.10021772285E+02  0.94066894420E+02  0.88168920814E+02 0.  0.
          5    1    1    2  502    0  0.75335765524E+01  0.44216056609E+02  0.58282652639E+01  0.45423072482E+02  0.41800000000E+01 0. -1.
         -5    1    1    2    0  502 -0.33230590949E+02 -0.26494613110E+02 -0.11793288078E+03  0.12542676536E+03  0.41800000000E+01 0. -1.
        -11    1    3    3    0    0 -0.11573632489E+01  0.16878879107E+02 -0.38342622760E+02  0.41909339887E+02  0.00000000000E+00 0.  1.
         11    1    3    3    0    0  0.26854377646E+02 -0.34600322606E+02  0.28320850475E+02  0.52157554533E+02  0.00000000000E+00 0. -1.
</event>
<event>
 7    1  0.6145388E-006  0.1407213E+03  0.7561462E-02  0.1212362E+00
          1   -1    0    0  501    0  0.00000000000E+00  0.00000000000E+00  0.15447276896E+03  0.15447276896E+03  0.00000000000E+00 0. -1.
         -1   -1    0    0    0  501 -0.00000000000E+00 -0.00000000000E+00 -0.16334803779E+03  0.16334803779E+03  0.00000000000E+00 0.  1.
         23    2    1    2    0    0  0.27386653625E+02 -0.10978806761E+03  0.19425638675E+02  0.14679481255E+03  0.91476297298E+02 0.  0.
          5    1    1    2  502    0 -0.47558567478E+02  0.31943179743E+02  0.36161802931E+02  0.67877333948E+02  0.41800000000E+01 0. -1.
         -5    1    1    2    0  502  0.20171913853E+02  0.77844887867E+02 -0.64462710438E+02  0.10314866026E+03  0.41800000000E+01 0. -1.
        -11    1    3    3    0    0  0.58318524621E+02 -0.52971862038E+02 -0.15147338807E+01  0.78799510788E+02  0.00000000000E+00 0.  1.
         11    1    3    3    0    0 -0.30931870996E+02 -0.56816205572E+02  0.20940372556E+02  0.67995301762E+02  0.00000000000E+00 0. -1.
</event>
<event>
 7    1  0.6145388E-006  0.8972409E+02  0.7561462E-02  0.1303521E+00
         -1   -1    0    0    0  501 -0.00000000000E+00  0.00000000000E+00  0.42561807271E+02  0.42561807271E+02  0.00000000000E+00 0.  1.
          1   -1    0    0  501    0  0.00000000000E+00 -0.00000000000E+00 -0.27770677247E+03  0.27770677247E+03  0.00000000000E+00 0. -1.
         23    2    1    2    0    0 -0.48135116996E+01  0.13175646214E+02 -0.10839816366E+03  0.14163556870E+03  0.90076106077E+02 0.  0.
          5    1    1    2  502    0  0.49966393862E+02 -0.46625164098E+02 -0.57913705689E+02  0.89677288927E+02  0.41800000000E+01 0.  1.
         -5    1    1    2    0  502 -0.45152882162E+02  0.33449517883E+02 -0.68833095850E+02  0.88955722124E+02  0.41800000000E+01 0.  1.
        -11    1    3    3    0    0  0.23046155492E+02 -0.15884625730E+01 -0.10764578301E+03  0.11009660801E+03  0.00000000000E+00 0. -1.
         11    1    3    3    0    0 -0.27859667192E+02  0.14764108787E+02 -0.75238065484E+00  0.31538960683E+02  0.00000000000E+00 0.  1.
</event>
<event>
 7    1  0.6145388E-006  0.1076935E+03  0.7561462E-02  0.1264902E+00
         -2   -1    0    0    0  501 -0.00000000000E+00  0.00000000000E+00  0.93593677240E+02  0.93593677240E+02  0.00000000000E+00 0.  1.
          2   -1    0    0  501    0  0.00000000000E+00 -0.00000000000E+00 -0.13878174727E+03  0.13878174727E+03  0.00000000000E+00 0. -1.
         23    2    1    2    0    0  0.22844734053E+02  0.26849479462E+02 -0.76653242310E+01  0.97106031730E+02  0.90155686351E+02 0.  0.
          5    1    1    2  502    0  0.32943061426E+01 -0.71104196879E+02 -0.43234199830E+02  0.83386615842E+02  0.41800000000E+01 0. -1.
         -5    1    1    2    0  502 -0.26139040196E+02  0.44254717417E+02  0.57114540268E+01  0.51882776941E+02  0.41800000000E+01 0. -1.
        -11    1    3    3    0    0  0.52288128596E+02 -0.55792322142E+00  0.98876140560E+01  0.53217709291E+02  0.00000000000E+00 0.  1.
         11    1    3    3    0    0 -0.29443394543E+02  0.27407402683E+02 -0.17552938287E+02  0.43888322440E+02  0.00000000000E+00 0. -1.
</event>
<event>
 6    1  0.6145388E-006  0.1677327E+03  0.7561462E-02  0.1180233E+00
         -2   -1    0    0    0  501 -0.00000000000E+00  0.00000000000E+00  0.20778754501E+03  0.20778754501E+03  0.00000000000E+00 0.  1.
          2   -1    0    0  501    0  0.00000000000E+00 -0.00000000000E+00 -0.14623476004E+03  0.14623476004E+03  0.00000000000E+00 0. -1.
          5    1    1    2  502    0  0.40152486550E+02 -0.57793447971E+02  0.52649150217E+02  0.87986988942E+02  0.41800000000E+01 0.  1.
         -5    1    1    2    0  502 -0.18791193944E+02  0.46477732709E+02  0.12027263547E+01  0.50321044885E+02  0.41800000000E+01 0.  1.
        -11    1    1    2    0    0 -0.74962033434E+02 -0.79462149561E+02 -0.60051923258E+01  0.10940567629E+03  0.00000000000E+00 0. -1.
         11    1    1    2    0    0  0.53600740828E+02  0.90777864823E+02  0.13706100726E+02  0.10630859493E+03  0.00000000000E+00 0.  1.
</event>
<event>
 7    1  0.6145388E-006  0.1307239E+03  0.7561462E-02  0.1226386E+00
         -1   -1    0    0    0  501 -0.00000000000E+00  0.00000000000E+00  0.27651955439E+03  0.27651955439E+03  0.00000000000E+00 0.  1.
          1   -1    0    0  501    0  0.00000000000E+00 -0.00000000000E+00 -0.79051308858E+02  0.79051308858E+02  0.00000000000E+00 0. -1.
         23    2    1    2    0    0 -0.17349696690E+02 -0.79896491292E+02  0.21432834325E+02  0.12465875421E+03  0.91629565746E+02 0.  0.
          5    1    1    2  502    0  0.31399354881E+02 -0.23722182752E+02  0.23811305307E+02  0.46185626572E+02  0.41800000000E+01 0.  1.
         -5    1    1    2    0  502 -0.14049658190E+02  0.10361867404E+03  0.15222410590E+03  0.18472648246E+03  0.41800000000E+01 0.  1.
        -11    1    3    3    0    0 -0.36819548003E+02 -0.88562631031E+02  0.31684834082E+02  0.10100964034E+03  0.00000000000E+00 0.  1.
         11    1    3    3    0    0  0.19469851312E+02  0.86661397398E+01 -0.10251999756E+02  0.23649113876E+02  0.00000000000E+00 0. -1.
</event>
<event>
 7    1  0.6145388E-006  0.1101128E+03  0.7561462E-02  0.1260361E+00
          3   -1    0    0  501    0  0.00000000000E+00  0.00000000000E+00  0.31876591313E+02  0.31876591313E+02  0.00000000000E+00 0. -1.
         -3   -1    0    0    0  501 -0.00000000000E+00 -0.00000000000E+00 -0.49405183941E+03  0.49405183941E+03  0.00000000000E+00 0.  1.
         23    2    1    2    0    0  0.47053821437E+02  0.36388148716E+02 -0.15491009538E+03  0.18887632605E+03  0.90216236969E+02 0.  0.
          5    1    1    2  502    0 -0.84621720580E+02 -0.45167111345E+02 -0.25069049777E+03  0.26844757703E+03  0.41800000000E+01 0. -1.
         -5    1    1    2    0  502  0.37567899143E+02  0.87789626288E+01 -0.56574654952E+02  0.68604527647E+02  0.41800000000E+01 0. -1.
        -11    1    3    3    0    0  0.39770750231E+02 -0.78802703227E+01 -0.13281792223E+03  0.13886832504E+03  0.00000000000E+00 0.  1.
         11    1    3    3    0    0  0.72830712062E+01  0.44268419039E+02 -0.22092173149E+02  0.50008001008E+02  0.00000000000E+00 0. -1.
</event>
<event>
 7    1  0.6145388E-006  0.6384176E+02  0.7561462E-02  0.1382382E+00
          1   -1    0    0  501    0  0.00000000000E+00  0.00000000000E+00  0.45871680522E+03  0.45871680522E+03  0.00000000000E+00 0.  1.
         -1   -1    0    0    0  501 -0.00000000000E+00 -0.00000000000E+00 -0.32946479745E+02  0.32946479745E+02  0.00000000000E+00 0. -1.
         23    2    1    2    0    0 -0.18671866353E+02 -0.10162345086E+00  0.29576040021E+03  0.31028575791E+03  0.91947747709E+02 0.  0.
          5    1    1    2  502    0 -0.32068082414E+01  0.16406217612E+02  0.14762800069E+03  0.14863023442E+03  0.41800000000E+01 0. -1.
         -5    1    1    2    0  502  0.21878674595E+02 -0.16304594161E+02 -0.17618075431E+02  0.32747292631E+02  0.41800000000E+01 0. -1.
        -11    1    3    3    0    0  0.30935428538E+02 -0.94938072787E+01  0.51204491787E+02  0.60572544066E+02  0.00000000000E+00 0. -1.
         11    1    3    3    0    0 -0.49607294891E+02  0.93921838279E+01  0.24455590842E+03  0.24971321384E+03  0.00000000000E+00 0.  1.
</event>
<event>
 7    1  0.6145388E-006  0.7865957E+02  0.7561462E-02  0.1332899E+00
          1   -1    0    0  501    0  0.00000000000E+00  0.00000000000E+00  0.18112241194E+03  0.18112241194E+03  0.00000000000E+00 0. -1.
         -1   -1    0    0    0  501 -0.00000000000E+00 -0.00000000000E+00 -0.95930570996E+02  0.95930570996E+02  0.00000000000E+00 0.  1.
         23    2    1    2    0    0 -0.41461841575E+02 -0.30492773827E+02  0.96074707530E+02  0.14135102128E+03  0.90004823354E+02 0.  0.
          5    1    1    2  502    0  0.16324101752E+00 -0.17905900501E+02 -0.55114459238E+02  0.58100980521E+02  0.41800000000E+01 0. -1.
         -5    1    1    2    0  502  0.41298600558E+02  0.48398674327E+02  0.44231592653E+02  0.77600981136E+02  0.41800000000E+01 0. -1.
        -11    1    3    3    0    0 -0.42993936191E+02  0.16163656522E+01  0.32834889270E+01  0.43149420467E+02  0.00000000000E+00 0.  1.
         11    1    3    3    0    0  0.15320946160E+01 -0.32109139479E+02  0.92791218603E+02  0.98201600811E+02  0.00000000000E+00 0. -1.
</event>
<event>
 6    1  0.6145388E-006  0.1083698E+03  0.7561462E-02  0.1263619E+00
         -2   -1    0    0    0  501 -0.00000000000E+00  0.00000000000E+00  0.35119062784E+02  0.35119062784E+02  0.00000000000E+00 0.  1.
          2   -1    0    0  501    0  0.00000000000E+00 -0.00000000000E+00 -0.64608699288E+03  0.64608699288E+03  0.00000000000E+00 0. -1.
          5    1    1    2  502    0  0.38749950129E+02  0.24009495550E+02 -0.15368373597E+03  0.16035640808E+03  0.41800000000E+01 0.  1.
         -5    1    1    2    0  502 -0.58168874240E+01 -0.33941670098E+02  0.70810004582E+01  0.35404605856E+02  0.41800000000E+01 0.  1.
        -11    1    1    2    0    0 -0.79978396414E+01 -0.60774873626E+02 -0.27561263923E+03  0.28234708712E+03  0.00000000000E+00 0.  1.
         11    1    1    2    0    0 -0.24935223063E+02  0.70707048174E+02 -0.18875255535E+03  0.20309795460E+03  0.00000000000E+00 0. -1.
</event>
<event>
 7    1  0.6145388E-006  0.2375335E+03  0.7561462E-02  0.1121447E+00
         -2   -1    0    0    0  501 -0.00000000000E+00  0.00000000000E+00  0.30159658398E+02  0.30159658398E+02  0.00000000000E+00 0.  1.
          2   -1    0    0  501    0  0.00000000000E+00 -0.00000000000E+00 -0.19932038693E+04  0.19932038693E+04  0.00000000000E+00 0. -1.
         23    2    1    2    0    0  0.16826571732E+03  0.14022538946E+03 -0.90946497708E+03  0.94001074790E+03  0.92288407416E+02 0.  0.
          5    1    1    2  502    0 -0.17901126782E+03 -0.14682117460E+03 -0.10345404370E+04  0.10601381418E+04  0.41800000000E+01 0. -1.
         -5    1    1    2    0  502  0.10745550502E+02  0.65957851347E+01 -0.19038796765E+02  0.23214638041E+02  0.41800000000E+01 0. -1.
        -11    1    3    3    0    0  0.50561344732E+02  0.87923033209E+02 -0.52003453251E+03  0.52983282679E+03  0.00000000000E+00 0.  1.
         11    1    3    3    0    0  0.11770437258E+03  0.52302356253E+02 -0.38943044458E+03  0.41017792110E+03  0.00000000000E+00 0. -1.
</event>
<event>
 7    1  0.6145388E-006  0.6647563E+02  0.7561462E-02  0.1372505E+00
         -1   -1    0    0    0  501 -0.00000000000E+00  0.00000000000E+00  0.38835182231E+02  0.38835182231E+02  0.00000000000E+00 0.  1.
          1   -1    0    0  501    0  0.00000000000E+00 -0.00000000000E+00 -0.29739220914E+03  0.29739220914E+03  0.00000000000E+00 0. -1.
         23    2    1    2    0    0 -0.40638127999E+01  0.17054618934E+01 -0.97527377093E+02  0.13226913027E+03  0.89241864421E+02 0.  0.
          5    1    1    2  502    0  0.17117212810E+02  0.24109165182E+02  0.91928810505E+01  0.31244716068E+02  0.41800000000E+01 0.  1.
         -5    1    1    2    0  502 -0.13053400010E+02 -0.25814627076E+02 -0.17022253086E+03  0.17271354503E+03  0.41800000000E+01 0.  1.
        -11    1    3    3    0    0  0.79159779593E+00  0.37616101434E+02 -0.86599821411E+02  0.94419949071E+02  0.00000000000E+00 0. -1.
         11    1    3    3    0    0 -0.48554105958E+01 -0.35910639541E+02 -0.10927555682E+02  0.37849181200E+02  0.00000000000E+00 0.  1.
</event>
<event>
 7    1  0.6145388E-006  0.8229488E+02  0.7561462E-02  0.1322662E+00
         -2   -1    0    0    0  501 -0.00000000000E+00  0.00000000000E+00  0.11655476114E+03  0.11655476114E+03  0.00000000000E+00 0.  1.
          2   -1    0    0  501    0  0.00000000000E+00 -0.00000000000E+00 -0.13684441036E+03  0.13684441036E+03  0.00000000000E+00 0. -1.
         23    2    1    2    0    0  0.11319001911E+02  0.83734349577E+01 -0.71486825183E+02  0.11750592553E+03  0.92190249712E+02 0.  0.
          5    1    1    2  502    0  0.46420051488E+01 -0.47924662027E+02 -0.20393178724E+02  0.52456416010E+02  0.41800000000E+01 0. -1.
         -5    1    1    2    0  502 -0.15961007060E+02  0.39551227069E+02  0.71590354689E+02  0.83436829959E+02  0.41800000000E+01 0. -1.
        -11    1    3    3    0    0  0.12583729584E+02 -0.31287841268E+02 -0.70111807342E+02  0.77800673456E+02  0.00000000000E+00 0. -1.
         11    1    3    3    0    0 -0.12647276735E+01  0.39661276226E+02 -0.13750178414E+01  0.39705252071E+02  0.00000000000E+00 0.  1.
</event>
<event>
 7    1  0.6145388E-006  0.1392083E+03  0.7561462E-02  0.1214398E+00
         -2   -1    0    0    0  501 -0.00000000000E+00  0.00000000000E+00  0.29180919500E+03  0.29180919500E+03  0.00000000000E+00 0.  1.
          2   -1    0    0  501    0  0.00000000000E+00 -0.00000000000E+00 -0.92540266804E+02  0.92540266804E+02  0.00000000000E+00 0. -1.
         23    2    1    2    0    0 -0.11644556983E+03 -0.38180293384E+02  0.87545519534E+02  0.17663141688E+03  0.92288319433E+02 0.  0.
          5    1    1    2  502    0  0.82071929869E+02 -0.23440833054E+01 -0.18776864508E+01  0.82233171564E+02  0.41800000000E+01 0. -1.
         -5    1    1    2    0  502  0.34373639963E+02  0.40524376689E+02  0.11360109511E+03  0.12548487335E+03  0.41800000000E+01 0. -1.
        -11    1    3    3    0    0 -0.50460967546E+02 -0.55168102505E+02  0.77627823520E+02  0.10777712078E+03  0.00000000000E+00 0.  1.
         11    1    3    3    0    0 -0.65984602286E+02  0.16987809121E+02  0.99176960140E+01  0.68854296102E+02  0.00000000000E+00 0. -1.
</event>
<event>
 7    1  0.6145388E-006  0.8566345E+02  0.7561462E-02  0.1313707E+00
          3   -1    0    0  501    0  0.00000000000E+00  0.00000000000E+00  0.57892985415E+02  0.57892985415E+02  0.00000000000E+00 0. -1.
         -3   -1    0    0    0  501 -0.00000000000E+00 -0.00000000000E+00 -0.32220453374E+03  0.32220453374E+03  0.00000000000E+00 0.  1.
         23    2    1    2    0    0  0.23940473523E+01 -0.37387456448E+02 -0.34051896179E+02  0.10323729988E+03  0.89971412636E+02 0.  0.
          5    1    1    2  502    0 -0.33067994074E+02  0.17683498545E+02  0.56159345765E+01  0.38147207946E+02  0.41800000000E+01 0. -1.
         -5    1    1    2    0  502  0.30673946722E+02  0.19703957904E+02 -0.23587558672E+03  0.23871301133E+03  0.41800000000E+01 0.  1.
        -11    1    3    3    0    0  0.31337315935E+02 -0.54795971002E+02 -0.27395537698E+02  0.68812362943E+02  0.00000000000E+00 0. -1.
         11    1    3    3    0    0 -0.28943268582E+02  0.17408514553E+02 -0.66563584808E+01  0.34424936941E+02  0.00000000000E+00 0.  1.
</event>
<event>
 6    1  0.6145388E-006  0.1540739E+03  0.7561462E-02  0.1195555E+00
         -1   -1    0    0    0  501 -0.00000000000E+00  0.00000000000E+00  0.41867456028E+02  0.41867456028E+02  0.00000000000E+00 0.  1.
          1   -1    0    0  501    0  0.00000000000E+00 -0.00000000000E+00 -0.68179881783E+03  0.68179881783E+03  0.00000000000E+00 0. -1.
          5    1    1    2  502    0 -0.23076946638E+01 -0.24470966934E+02 -0.94455849935E+02  0.97691011175E+02  0.41800000000E+01 0.  1.
         -5    1    1    2    0  502  0.14870688275E+02  0.12469653719E+03 -0.16244004027E+03  0.20536456081E+03  0.41800000000E+01 0.  1.
        -11    1    1    2    0    0 -0.34645483425E+02  0.16779565540E+02 -0.18957434607E+03  0.19344326307E+03  0.00000000000E+00 0. -1.
         11    1    1    2    0    0  0.22082489813E+02 -0.11700513579E+03 -0.19346112552E+03  0.22716743879E+03  0.00000000000E+00 0.  1.
</event>
<event>
 7    1  0.6145388E-006  0.9059787E+02  0.7561462E-02  0.1301410E+00
          2   -1    0    0  501    0  0.00000000000E+00  0.00000000000E+00  0.19269481010E+03  0.19269481010E+03  0.00000000000E+00 0. -1.
         -2   -1    0    0    0  501 -0.00000000000E+00 -0.00000000000E+00 -0.67015416493E+02  0.67015416493E+02  0.00000000000E+00 0.  1.
         23    2    1    2    0    0 -0.20423447573E+02  0.18898451747E+02  0.73409156187E+02  0.12131314787E+03  0.92486252729E+02 0.  0.
          5    1    1    2  502    0  0.27630167148E+02 -0.62839985015E+02  0.62036251433E+02  0.92618889786E+02  0.41800000000E+01 0.  1.
         -5    1    1    2    0  502 -0.72067195748E+01  0.43941533268E+02 -0.97660140135E+01  0.45778188940E+02  0.41800000000E+01 0.  1.
        -11    1    3    3    0    0 -0.13605359689E+02 -0.22200308670E+02 -0.10148667404E+02  0.27945571516E+02  0.00000000000E+00 0.  1.
         11    1    3    3    0    0 -0.68180878847E+01  0.41098760417E+02  0.83557823591E+02  0.93367576350E+02  0.00000000000E+00 0. -1.
</event>
<event>
 7    1  0.6145388E-006  0.1135380E+03  0.7561462E-02  0.1254155E+00
         -1   -1    0    0    0  501 -0.00000000000E+00  0.00000000000E+00  0.22844483635E+02  0.22844483635E+02  0.00000000000E+00 0.  1.
          1   -1    0    0  501    0  0.00000000000E+00 -0.00000000000E+00 -0.63585611078E+03  0.63585611078E+03  0.00000000000E+00 0. -1.
         23    2    1    2    0    0 -0.38448723758E+01  0.28794175557E+02 -0.26033055260E+03  0.27842336727E+03  0.94359351607E+02 0.  0.
          5    1    1    2  502    0 -0.62067033331E+02  0.41893489420E+01 -0.10803075046E+03  0.12473164280E+03  0.41800000000E+01 0. -1.
         -5    1    1    2    0  502  0.65911905707E+02 -0.32983524499E+02 -0.24465032408E+03  0.25554558434E+03  0.41800000000E+01 0.  1.
        -11    1    3    3    0    0  0.22695183928E+02 -0.23246163751E+02 -0.15109806920E+03  0.15455122781E+03  0.00000000000E+00 0. -1.
         11    1    3    3    0    0 -0.26540056304E+02  0.52040339308E+02 -0.10923248340E+03  0.12387213945E+03  0.00000000000E+00 0.  1.
</event>
<event>
 7    1  0.6145388E-006  0.8120038E+02  0.7561462E-02  0.1325679E+00
         -1   -1    0    0    0  501 -0.00000000000E+00  0.00000000000E+00  0.14824154822E+03  0.14824154822E+03  0.00000000000E+00 0.  1.
          1   -1    0    0  501    0  0.00000000000E+00 -0.00000000000E+00 -0.11772223024E+03  0.11772223024E+03  0.00000000000E+00 0. -1.
         23    2    1    2    0    0 -0.91932124645E+01  0.44718397538E+02 -0.46530585574E+02  0.11211738349E+03  0.91219307455E+02 0.  0.
          5    1    1    2  502    0  0.24747387834E+02 -0.16564744646E+02 -0.29707249324E+02  0.42270758595E+02  0.41800000000E+01 0. -1.
         -5    1    1    2    0  502 -0.15554175369E+02 -0.28153652892E+02  0.10675715288E+03  0.11157563638E+03  0.41800000000E+01 0. -1.
        -11    1    3    3    0    0 -0.10011138469E+02  0.71953596683E+02 -0.43567348514E+02  0.84709248760E+02  0.00000000000E+00 0.  1.
         11    1    3    3    0    0  0.81792600406E+00 -0.27235199144E+02 -0.29632370606E+01  0.27408134728E+02  0.00000000000E+00 0. -1.
</event>
<event>
 7    1  0.6145388E-006  0.1046162E+03  0.7561462E-02  0.1270878E+00
          1   -1    0    0  501    0  0.00000000000E+00  0.00000000000E+00  0.43043250532E+03  0.43043250532E+03  0.00000000000E+00 0. -1.
         -1   -1    0    0    0  501 -0.00000000000E+00 -0.00000000000E+00 -0.45856339822E+02  0.45856339822E+02  0.00000000000E+00 0.  1.
         23    2    1    2    0    0  0.69481023070E+02 -0.55485743139E+02  0.20851624833E+03  0.24272827458E+03  0.86785420460E+02 0.  0.
          5    1    1    2  502    0 -0.13595609893E+02  0.53083463921E+02  0.16816215517E+03  0.17691432271E+03  0.41800000000E+01 0.  1.
         -5    1    1    2    0  502 -0.55885413176E+02  0.24022792185E+01  0.78977620075E+01  0.56646247855E+02  0.41800000000E+01 0.  1.
        -11    1    3    3    0    0  0.19911979649E+02 -0.42512611497E+02  0.17574297502E+03  0.18190492664E+03  0.00000000000E+00 0. -1.
         11    1    3    3    0    0  0.49569043420E+02 -0.12973131643E+02  0.32773273309E+02  0.60823347931E+02  0.00000000000E+00 0.  1.
</event>
<event>
 7    1  0.6145388E-006  0.1167943E+03  0.7561462E-02  0.1248481E+00
         -2   -1    0    0    0  501 -0.00000000000E+00  0.00000000000E+00  0.66041700567E+02  0.66041700567E+02  0.00000000000E+00 0. -1.
          2   -1    0    0  501    0  0.00000000000E+00 -0.00000000000E+00 -0.49133839925E+03  0.49133839925E+03  0.00000000000E+00 0.  1.
         23    2    1    2    0    0 -0.72693485800E+01 -0.78019436153E+02 -0.38737799744E+03  0.40498383259E+03  0.88375991727E+02 0.  0.
          5    1    1    2  502    0  0.46445634705E+01 -0.18179822221E+02 -0.51636303247E+02  0.55098621751E+02  0.41800000000E+01 0.  1.
         -5    1    1    2    0  502  0.26247851095E+01  0.96199258374E+02  0.13717602011E+02  0.97297645468E+02  0.41800000000E+01 0.  1.
        -11    1    3    3    0    0  0.37472545105E+02 -0.57931664980E+02 -0.21942736433E+03  0.23001877676E+03  0.00000000000E+00 0.  1.
         11    1    3    3    0    0 -0.44741893685E+02 -0.20087771173E+02 -0.16795063311E+03  0.17496505583E+03  0.00000000000E+00 0. -1.
</event>
<event>
 7    1  0.6145388E-006  0.1057570E+03  0.7561462E-02  0.1268635E+00
          2   -1    0    0  501    0  0.00000000000E+00  0.00000000000E+00  0.33477548470E+03  0.33477548470E+03  0.00000000000E+00 0. -1.
         -2   -1    0    0    0  501 -0.00000000000E+00 -0.00000000000E+00 -0.46932926235E+02  0.46932926235E+02  0.00000000000E+00 0.  1.
         23    2    1    2    0    0 -0.12641855350E+02  0.38033275716E+02  0.19978607939E+03  0.22356716616E+03  0.91986160370E+02 0.  0.
          5    1    1    2  502    0  0.17345495037E+02  0.34256230687E+02  0.75072692912E+02  0.84425927060E+02  0.41800000000E+01 0. -1.
         -5    1    1    2    0  502 -0.47036396869E+01 -0.72289506403E+02  0.12983786163E+02  0.73715317713E+02  0.41800000000E+01 0. -1.
        -11    1    3    3    0    0  0.36642127892E+02  0.35436830791E+02  0.99819328579E+02  0.11208172407E+03  0.00000000000E+00 0.  1.
         11    1    3    3    0    0 -0.49283983242E+02  0.25964449254E+01  0.99966750808E+02  0.11148544209E+03  0.00000000000E+00 0. -1.
</event>
<event>
 7    1  0.6145388E-006  0.2625187E+03  0.7561462E-02  0.1105639E+00
          1   -1    0    0  501    0  0.00000000000E+00  0.00000000000E+00  0.57006410261E+03  0.57006410261E+03  0.00000000000E+00 0. -1.
         -1   -1    0    0    0  501 -0.00000000000E+00 -0.00000000000E+00 -0.21864661620E+03  0.21864661620E+03  0.00000000000E+00 0.  1.
         23    2    1    2    0    0  0.25513335975E+03  0.34212019959E+02  0.41397968823E+03  0.49575108294E+03  0.90146882405E+02 0.  0.
          5    1    1    2  502    0 -0.15916716853E+03  0.14527632792E+02 -0.87690696771E+02  0.18235232478E+03  0.41800000000E+01 0. -1.
         -5    1    1    2    0  502 -0.95966191214E+02 -0.48739652752E+02  0.25128494949E+02  0.11060731108E+03  0.41800000000E+01 0. -1.
        -11    1    3    3    0    0  0.86293050547E+02  0.13173077366E+02  0.69638667308E+02  0.11166720434E+03  0.00000000000E+00 0.  1.
         11    1    3    3    0    0  0.16884030920E+03  0.21038942593E+02  0.34434102092E+03  0.38408387860E+03  0.00000000000E+00 0. -1.
</event>
<event>
 7    1  0.6145388E-006  0.1265263E+03  0.7561462E-02  0.1232703E+00
         -3   -1    0    0    0  501 -0.00000000000E+00  0.00000000000E+00  0.17413866674E+03  0.17413866674E+03  0.00000000000E+00 0.  1.
          3   -1    0    0  501    0  0.00000000000E+00 -0.00000000000E+00 -0.15945661325E+03  0.15945661325E+03  0.00000000000E+00 0. -1.
         23    2    1    2    0    0 -0.60029347562E+02  0.51834613692E+02 -0.89332255065E+02  0.15260608523E+03  0.94963233454E+02 0.  0.
          5    1    1    2  502    0 -0.35666214501E+02 -0.36321498462E+02  0.36492394910E+02  0.62773381250E+02  0.41800000000E+01 0.  1.
         -5    1    1    2    0  502  0.95695562063E+02 -0.15513115230E+02  0.67521913645E+02  0.11821581351E+03  0.41800000000E+01 0.  1.
        -11    1    3    3    0    0 -0.23547400723E+02  0.62617930858E+02 -0.14196850895E+02  0.68388858165E+02  0.00000000000E+00 0.  1.
         11    1    3    3    0    0 -0.36481946839E+02 -0.10783317166E+02 -0.75135404171E+02  0.84217227063E+02  0.00000000000E+00 0. -1.
</event>
<event>
 7    1  0.6145388E-006  0.8910361E+02  0.7561462E-02  0.1305037E+00
          1   -1    0    0  501    0  0.00000000000E+00  0.00000000000E+00  0.21001637091E+03  0.21001637091E+03  0.00000000000E+00 0. -1.
         -1   -1    0    0    0  501 -0.00000000000E+00 -0.00000000000E+00 -0.65136439358E+02  0.65136439358E+02  0.00000000000E+00 0.  1.
         23    2    1    2    0    0 -0.15273723813E+02  0.59385219330E+01  0.11273299923E+03  0.14495268194E+03  0.89632573344E+02 0.  0.
          5    1    1    2  502    0  0.48488427080E+02  0.38027834939E+02 -0.74590470150E+01  0.62212165797E+02  0.41800000000E+01 0. -1.
         -5    1    1    2    0  502 -0.33214703266E+02 -0.43966356872E+02  0.39605979331E+02  0.67987962526E+02  0.41800000000E+01 0. -1.
        -11    1    3    3    0    0 -0.27144302294E+02  0.26183639495E+02  0.11533074047E+03  0.12134074263E+03  0.00000000000E+00 0. -1.
         11    1    3    3    0    0  0.11870578481E+02 -0.20245117562E+02 -0.25977412373E+01  0.23611939313E+02  0.00000000000E+00 0.  1.
</event>
<event>
 7    1  0.6145388E-006  0.1429269E+03  0.7561462E-02  0.1209444E+00
          2   -1    0    0  501    0  0.00000000000E+00  0.00000000000E+00  0.71358825764E+03  0.71358825764E+03  0.00000000000E+00 0.  1.
         -2   -1    0    0    0  501 -0.00000000000E+00 -0.00000000000E+00 -0.29876535361E+02  0.29876535361E+02  0.00000000000E+00 0. -1.
         23    2    1    2    0    0  0.43976297368E+02  0.85665155615E+02  0.34040558032E+03  0.36560473309E+03  0.92295331005E+02 0.  0.
          5    1    1    2  502    0 -0.72948848108E+02 -0.96952629704E+02  0.30545694707E+03  0.32869859409E+03  0.41800000000E+01 0.  1.
         -5    1    1    2    0  502  0.28972550740E+02  0.11287474089E+02  0.37849194889E+02  0.49161465819E+02  0.41800000000E+01 0.  1.
        -11    1    3    3    0    0 -0.28549792760E+02  0.17147151945E+02  0.74857193167E+02  0.81931159245E+02  0.00000000000E+00 0. -1.
         11    1    3    3    0    0  0.72526090128E+02  0.68518003671E+02  0.26554838716E+03  0.28367357385E+03  0.00000000000E+00 0.  1.
</event>
<event>
 7    1  0.6145388E-006  0.1225952E+03  0.7561462E-02  0.1238876E+00
          1   -1    0    0  501    0  0.00000000000E+00  0.00000000000E+00  0.64182005956E+02  0.64182005956E+02  0.00000000000E+00 0. -1.
         -1   -1    0    0    0  501 -0.00000000000E+00 -0.00000000000E+00 -0.29671099374E+03  0.29671099374E+03  0.00000000000E+00 0.  1.
         23    2    1    2    0    0  0.45753906109E+02  0.44260140062E+02 -0.30218816587E+02  0.11732493382E+03  0.93806094142E+02 0.  0.
          5    1    1    2  502    0  0.31954743574E+02 -0.46445545904E+02 -0.10168526133E+03  0.11634285171E+03  0.41800000000E+01 0. -1.
         -5    1    1    2    0  502 -0.77708649683E+02  0.21854058416E+01 -0.10062490987E+03  0.12722521417E+03  0.41800000000E+01 0.  1.
        -11    1    3    3    0    0  0.44435222474E+02 -0.18428551018E+02 -0.91756365017E+00  0.48113848443E+02  0.00000000000E+00 0. -1.
         11    1    3    3    0    0  0.13186836350E+01  0.62688691080E+02 -0.29301252937E+02  0.69211085380E+02  0.00000000000E+00 0.  1.
</event>
<event>
 7    1  0.6145388E-006  0.1098022E+03  0.7561462E-02  0.1260937E+00
          2   -1    0    0  501    0  0.00000000000E+00  0.00000000000E+00  0.48014232642E+03  0.48014232642E+03  0.00000000000E+00 0. -1.
         -2   -1    0    0    0  501 -0.00000000000E+00 -0.00000000000E+00 -0.39043826667E+02  0.39043826667E+02  0.00000000000E+00 0.  1.
         23    2    1    2    0    0  0.61215112553E+02 -0.52283620138E+02  0.24032371674E+03  0.26930755526E+03  0.91050554941E+02 0.  0.
          5    1    1    2  502    0  0.29894828217E+02  0.31117170652E+02  0.23293028161E+02  0.49213988097E+02  0.41800000000E+01 0. -1.
         -5    1    1    2    0  502 -0.91109940770E+02  0.21166449486E+02  0.17748175486E+03  0.20066460973E+03  0.41800000000E+01 0. -1.
        -11    1    3    3    0    0  0.37570553814E+02 -0.19871408282E+02  0.23028749078E+02  0.48339866208E+02  0.00000000000E+00 0.  1.
         11    1    3    3    0    0  0.23644558739E+02 -0.32412211856E+02  0.21729496766E+03  0.22096768905E+03  0.00000000000E+00 0. -1.
</event>
<event>
 7    1  0.6145388E-006  0.1078510E+03  0.7561462E-02  0.1264602E+00
         -3   -1    0    0    0  501 -0.00000000000E+00  0.00000000000E+00  0.24297133922E+03  0.24297133922E+03  0.00000000000E+00 0.  1.
          3   -1    0    0  501    0  0.00000000000E+00 -0.00000000000E+00 -0.72178192365E+02  0.72178192365E+02  0.00000000000E+00 0. -1.
         23    2    1    2    0    0 -0.53490191109E+02 -0.19165451272E+02  0.15526345622E+02  0.10782166259E+03  0.90310179089E+02 0.  0.
          5    1    1    2  502    0 -0.38933124632E+02 -0.99509560379E+01  0.46027453684E+02  0.61243845505E+02  0.41800000000E+01 0.  1.
         -5    1    1    2    0  502  0.92423315740E+02  0.29116407310E+02  0.10923934755E+03  0.14608402349E+03  0.41800000000E+01 0.  1.
        -11    1    3    3    0    0 -0.11832489142E+02 -0.32485788547E+02 -0.29208237801E+02  0.45259865359E+02  0.00000000000E+00 0. -1.
         11    1    3    3    0    0 -0.41657701967E+02  0.13320337275E+02  0.44734583423E+02  0.62561797227E+02  0.00000000000E+00 0.  1.
</event>
<event>
 7    1  0.6145388E-006  0.1556805E+03  0.7561462E-02  0.1193662E+00
          1   -1    0    0  501    0  0.00000000000E+00  0.00000000000E+00  0.38258607384E+02  0.38258607384E+02  0.00000000000E+00 0. -1.
         -1   -1    0    0    0  501 -0.00000000000E+00 -0.00000000000E+00 -0.80363522294E+03  0.80363522294E+03  0.00000000000E+00 0.  1.
         23    2    1    2    0    0 -0.40438960102E+02  0.12888374412E+03 -0.29428797080E+03  0.33610806994E+03  0.90093817382E+02 0.  0.
          5    1    1    2  502    0  0.14724131505E+02  0.10209532563E+02 -0.19191020032E+03  0.19279012420E+03  0.41800000000E+01 0. -1.
         -5    1    1    2    0  502  0.25714828597E+02 -0.13909327668E+03 -0.27917844444E+03  0.31299563618E+03  0.41800000000E+01 0. -1.
        -11    1    3    3    0    0 -0.27717271831E+02  0.65810454821E+01 -0.11655461991E+03  0.11998556888E+03  0.00000000000E+00 0.  1.
         11    1    3    3    0    0 -0.12721688271E+02  0.12230269864E+03 -0.17773335089E+03  0.21612250106E+03  0.00000000000E+00 0. -1.
</event>
<event>
 7    1  0.6145388E-006  0.1665606E+03  0.7561462E-02  0.1181483E+00
          1   -1    0    0  501    0  0.00000000000E+00  0.00000000000E+00  0.55999633881E+03  0.55999633881E+03  0.00000000000E+00 0. -1.
         -1   -1    0    0    0  501 -0.00000000000E+00 -0.00000000000E+00 -0.57287681052E+02  0.57287681052E+02  0.00000000000E+00 0.  1.
         23    2    1    2    0    0  0.13927110581E+03 -0.31265598779E+02  0.23293196606E+03  0.28743398247E+03  0.89370100630E+02 0.  0.
          5    1    1    2  502    0 -0.98697669265E+02  0.60913318481E+02  0.10149664105E+03  0.15417750430E+03  0.41800000000E+01 0.  1.
         -5    1    1    2    0  502 -0.40573436548E+02 -0.29647719702E+02  0.16828005064E+03  0.17567253309E+03  0.41800000000E+01 0.  1.
        -11    1    3    3    0    0  0.39606024760E+02 -0.51472767887E+02  0.71053141113E+02  0.96263346572E+02  0.00000000000E+00 0. -1.
         11    1    3    3    0    0  0.99665081053E+02  0.20207169108E+02  0.16187882495E+03  0.19117063590E+03  0.00000000000E+00 0.  1.
</event>
<event>
 7    1  0.6145388E-006  0.1982478E+03  0.7561462E-02  0.1151226E+00
         -2   -1    0    0    0  501 -0.00000000000E+00  0.00000000000E+00  0.14636480277E+03  0.14636480277E+03  0.00000000000E+00 0.  1.
          2   -1    0    0  501    0  0.00000000000E+00 -0.00000000000E+00 -0.31176601502E+03  0.31176601502E+03  0.00000000000E+00 0. -1.
         23    2    1    2    0    0  0.15222674025E+03  0.96230724214E+02 -0.11996249945E+03  0.23419763066E+03  0.89577877877E+02 0.  0.
          5    1    1    2  502    0 -0.72167712695E+02 -0.10352587304E+03 -0.63646157842E+02  0.14140046306E+03  0.41800000000E+01 0.  1.
         -5    1    1    2    0  502 -0.80059027554E+02  0.72951488250E+01  0.18207445039E+02  0.82532724080E+02  0.41800000000E+01 0.  1.
        -11    1    3    3    0    0  0.70075655519E+02  0.79348080927E+02 -0.27520754318E+02  0.10938056208E+03  0.00000000000E+00 0.  1.
         11    1    3    3    0    0  0.82151084730E+02  0.16882643288E+02 -0.92441745128E+02  0.12481706858E+03  0.00000000000E+00 0. -1.
</event>
<event>
 7    1  0.6145388E-006  0.1036711E+03  0.7561462E-02  0.1272760E+00
          2   -1    0    0  501    0  0.00000000000E+00  0.00000000000E+00  0.17993925914E+03  0.17993925914E+03  0.00000000000E+00 0.  1.
         -2   -1    0    0    0  501 -0.00000000000E+00 -0.00000000000E+00 -0.94563972428E+02  0.94563972428E+02  0.00000000000E+00 0. -1.
         23    2    1    2    0    0  0.42272552486E+02  0.11047611843E+02  0.98677894365E+02  0.14133509401E+03  0.91264799033E+02 0.  0.
          5    1    1    2  502    0  0.12014716410E+02  0.33767396039E+02 -0.43445929523E+02  0.56476646835E+02  0.41800000000E+01 0. -1.
         -5    1    1    2    0  502 -0.54287268896E+02 -0.44815007882E+02  0.30143321875E+02  0.76691490723E+02  0.41800000000E+01 0. -1.
        -11    1    3    3    0    0  0.15060805453E+02  0.50564069736E+02  0.58276368762E+02  0.78610992649E+02  0.00000000000E+00 0. -1.
         11    1    3    3    0    0  0.27211747033E+02 -0.39516457893E+02  0.40401525603E+02  0.62724101365E+02  0.00000000000E+00 0.  1.
</event>
<event>
 7    1  0.6145388E-006  0.8988779E+02  0.7561462E-02  0.1303124E+00
          1   -1    0    0  501    0  0.00000000000E+00  0.00000000000E+00  0.31206201580E+03  0.31206201580E+03  0.00000000000E+00 0. -1.
         -1   -1    0    0    0  501 -0.00000000000E+00 -0.00000000000E+00 -0.38386912511E+02  0.38386912511E+02  0.00000000000E+00 0.  1.
         23    2    1    2    0    0 -0.17848978335E+02  0.97532296204E+01  0.14214017362E+03  0.16779260041E+03  0.86814839056E+02 0.  0.
          5    1    1    2  502    0 -0.27995902121E+02 -0.34707005756E+02  0.12129757608E+03  0.12930166723E+03  0.41800000000E+01 0. -1.
         -5    1    1    2    0  502  0.45844880456E+02  0.24953776136E+02  0.10237353592E+02  0.53354660678E+02  0.41800000000E+01 0. -1.
        -11    1    3    3    0    0 -0.72542944354E+00 -0.34845404970E+02  0.92732238692E+02  0.99065617589E+02  0.00000000000E+00 0. -1.
         11    1    3    3    0    0 -0.17123548892E+02  0.44598634591E+02  0.49407934929E+02  0.68726982823E+02  0.00000000000E+00 0.  1.
</event>
<event>
 7    1  0.6145388E-006  0.1253861E+03  0.7561462E-02  0.1234467E+00
         -3   -1    0    0    0  501 -0.00000000000E+00  0.00000000000E+00  0.12441646678E+03  0.12441646678E+03  0.00000000000E+00 0.  1.
          3   -1    0    0  501    0  0.00000000000E+00 -0.00000000000E+00 -0.17155615948E+03  0.17155615948E+03  0.00000000000E+00 0. -1.
         23    2    1    2    0    0 -0.21340770357E+02 -0.76334526399E+02 -0.79024361162E+02  0.14449543666E+03  0.91387598489E+02 0.  0.
          5    1    1    2  502    0  0.63309036536E+02  0.64129491413E+02 -0.10041135307E+02  0.90768510918E+02  0.41800000000E+01 0. -1.
         -5    1    1    2    0  502 -0.41968266179E+02  0.12205034986E+02  0.41925803772E+02  0.60708678679E+02  0.41800000000E+01 0. -1.
        -11    1    3    3    0    0  0.18356525791E+02  0.10520413281E+02 -0.10072295177E+01  0.21181493008E+02  0.00000000000E+00 0.  1.
         11    1    3    3    0    0 -0.39697296148E+02 -0.86854939680E+02 -0.78017131645E+02  0.12331394365E+03  0.00000000000E+00 0. -1.
</event>
<event>
 7    1  0.6145388E-006  0.1071365E+03  0.7561462E-02  0.1265966E+00
         -1   -1    0    0    0  501 -0.00000000000E+00  0.00000000000E+00  0.47918252789E+03  0.47918252789E+03  0.00000000000E+00 0.  1.
          1   -1    0    0  501    0  0.00000000000E+00 -0.00000000000E+00 -0.30043448618E+02  0.30043448618E+02  0.00000000000E+00 0. -1.
         23    2    1    2    0    0  0.35485894024E+02  0.34101375850E+02  0.14303953682E+03  0.17491054587E+03  0.87813651861E+02 0.  0.
          5    1    1    2  502    0 -0.33444445127E+02 -0.77177957092E+02  0.24751437256E+03  0.26144943105E+03  0.41800000000E+01 0.  1.
         -5    1    1    2    0  502 -0.20414488963E+01  0.43076581242E+02  0.58585169888E+02  0.72865999587E+02  0.41800000000E+01 0.  1.
        -11    1    3    3    0    0  0.12569929246E+02 -0.22439886488E+02  0.83401421130E+01  0.27039038394E+02  0.00000000000E+00 0. -1.
         11    1    3    3    0    0  0.22915964778E+02  0.56541262338E+02  0.13469939471E+03  0.14787150748E+03  0.00000000000E+00 0.  1.
</event>
<event>
 7    1  0.6145388E-006  0.9242809E+02  0.7561462E-02  0.1297076E+00
         -2   -1    0    0    0  501 -0.00000000000E+00  0.00000000000E+00  0.10825202813E+03  0.10825202813E+03  0.00000000000E+00 0. -1.
          2   -1    0    0  501    0  0.00000000000E+00 -0.00000000000E+00 -0.18292087941E+03  0.18292087941E+03  0.00000000000E+00 0.  1.
         23    2    1    2    0    0  0.46021312033E+01  0.12104036551E+02 -0.13104786169E+03  0.16210500332E+03  0.94534664186E+02 0.  0.
          5    1    1    2  502    0  0.49447843005E+02 -0.78880231646E+01 -0.67654519863E+00  0.50251768135E+02  0.41800000000E+01 0. -1.
         -5    1    1    2    0  502 -0.54049974208E+02 -0.42160133868E+01  0.57055555614E+02  0.78816136084E+02  0.41800000000E+01 0.  1.
        -11    1    3    3    0    0  0.39420753409E+02  0.20478173419E+02 -0.26806860337E+02  0.51884093391E+02  0.00000000000E+00 0. -1.
         11    1    3    3    0    0 -0.34818622206E+02 -0.83741368671E+01 -0.10424100136E+03  0.11022090992E+03  0.00000000000E+00 0.  1.
</event>
<event>
 7    1  0.6145388E-006  0.9834615E+02  0.7561462E-02  0.1283813E+00
          1   -1    0    0  501    0  0.00000000000E+00  0.00000000000E+00  0.18510286557E+02  0.18510286557E+02  0.00000000000E+00 0. -1.
         -1   -1    0    0    0  501 -0.00000000000E+00 -0.00000000000E+00 -0.15128256647E+04  0.15128256647E+04  0.00000000000E+00 0.  1.
         23    2    1    2    0    0 -0.73906417959E+01  0.28084051114E+02 -0.12820872918E+03  0.15920565096E+03  0.89808827784E+02 0.  0.
          5    1    1    2  502    0  0.67235316927E+01  0.49069536846E+02 -0.63871978541E+03  0.64065081128E+03  0.41800000000E+01 0. -1.
         -5    1    1    2    0  502  0.66711010319E+00 -0.77153587961E+02 -0.72738686350E+03  0.73147948896E+03  0.41800000000E+01 0. -1.
        -11    1    3    3    0    0 -0.80325135745E+01  0.48566398600E+02 -0.12963200179E+03  0.13866388223E+03  0.00000000000E+00 0.  1.
         11    1    3    3    0    0  0.64187177865E+00 -0.20482347486E+02  0.14232726074E+01  0.20541768736E+02  0.00000000000E+00 0. -1.
</event>
<event>
 7    1  0.6145388E-006  0.6518367E+02  0.7561462E-02  0.1377282E+00
          1   -1    0    0  501    0  0.00000000000E+00  0.00000000000E+00  0.44648757098E+03  0.44648757098E+03  0.00000000000E+00 0. -1.
         -1   -1    0    0    0  501 -0.00000000000E+00 -0.00000000000E+00 -0.31478602479E+02  0.31478602479E+02  0.00000000000E+00 0.  1.
         23    2    1    2    0    0  0.68402311752E+01 -0.18923269735E+01  0.27916192857E+03  0.29317050878E+03  0.89259146285E+02 0.  0.
          5    1    1    2  502    0 -0.10104243754E+02  0.26001201264E+02 -0.14996464829E+02  0.31945650195E+02  0.41800000000E+01 0.  1.
         -5    1    1    2    0  502  0.32640125784E+01 -0.24108874291E+02  0.15084350476E+03  0.15285001448E+03  0.41800000000E+01 0.  1.
        -11    1    3    3    0    0  0.42139991052E+02 -0.34340017459E+00  0.22203985515E+03  0.22600352662E+03  0.00000000000E+00 0. -1.
         11    1    3    3    0    0 -0.35299759876E+02 -0.15489267989E+01  0.57122073414E+02  0.67166982162E+02  0.00000000000E+00 0.  1.
</event>
<event>
 7    1  0.6145388E-006  0.1123133E+03  0.7561462E-02  0.1256345E+00
          1   -1    0    0  501    0  0.00000000000E+00  0.00000000000E+00  0.15836429488E+02  0.15836429488E+02  0.00000000000E+00 0. -1.
         -1   -1    0    0    0  501 -0.00000000000E+00 -0.00000000000E+00 -0.97234356569E+03  0.97234356569E+03  0.00000000000E+00 0.  1.
         23    2    1    2    0    0  0.17979137737E+02 -0.37954078492E+02 -0.23890211264E+03  0.25854426042E+03  0.89482700582E+02 0.  0.
          5    1    1    2  502    0 -0.45584976559E+02  0.73189514582E+02 -0.50557690230E+03  0.51289391853E+03  0.41800000000E+01 0.  1.
         -5    1    1    2    0  502  0.27605838822E+02 -0.35235436090E+02 -0.21202812126E+03  0.21674181622E+03  0.41800000000E+01 0.  1.
        -11    1    3    3    0    0 -0.13252479608E+01  0.26258836483E+02 -0.34188716948E+02  0.43129469533E+02  0.00000000000E+00 0. -1.
         11    1    3    3    0    0  0.19304385698E+02 -0.64212914975E+02 -0.20471339569E+03  0.21541479089E+03  0.00000000000E+00 0.  1.
</event>
<event>
 7    1  0.6145388E-006  0.9594551E+02  0.7561462E-02  0.1289061E+00
         -1   -1    0    0    0  501 -0.00000000000E+00  0.00000000000E+00  0.90009334861E+02  0.90009334861E+02  0.00000000000E+00 0.  1.
          1   -1    0    0  501    0  0.00000000000E+00 -0.00000000000E+00 -0.15612885106E+03  0.15612885106E+03  0.00000000000E+00 0. -1.
         23    2    1    2    0    0 -0.49563313581E+02 -0.38015664105E+02 -0.26117050759E+02  0.11145498192E+03  0.88534738296E+02 0.  0.
          5    1    1    2  502    0 -0.14350610252E+02  0.40719007755E+02 -0.53799920110E+02  0.69107752177E+02  0.41800000000E+01 0. -1.
         -5    1    1    2    0  502  0.63913923833E+02 -0.27033436502E+01  0.13797454666E+02  0.65575451823E+02  0.41800000000E+01 0.  1.
        -11    1    3    3    0    0 -0.57506672073E+02 -0.14103503601E+02 -0.49426988609E+02  0.77129458379E+02  0.00000000000E+00 0. -1.
         11    1    3    3    0    0  0.79433584927E+01 -0.23912160504E+02  0.23309937850E+02  0.34325523546E+02  0.00000000000E+00 0.  1.
</event>
<event>
 7    1  0.6145388E-006  0.1792654E+03  0.7561462E-02  0.1168516E+00
         -2   -1    0    0    0  501 -0.00000000000E+00  0.00000000000E+00  0.55508607517E+02  0.55508607517E+02  0.00000000000E+00 0.  1.
          2   -1    0    0  501    0  0.00000000000E+00 -0.00000000000E+00 -0.91990348353E+03  0.91990348353E+03  0.00000000000E+00 0. -1.
         23    2    1    2    0    0  0.21156448598E+02 -0.16724740533E+03 -0.63852936290E+03  0.66705826146E+03  0.93955771419E+02 0.  0.
          5    1    1    2  502    0 -0.40788933500E+01 -0.88324854772E+01  0.92689806653E+01  0.14072546793E+02  0.41800000000E+01 0. -1.
         -5    1    1    2    0  502 -0.17077555248E+02  0.17607989081E+03 -0.23513449378E+03  0.29428128280E+03  0.41800000000E+01 0. -1.
        -11    1    3    3    0    0 -0.29494182715E+01 -0.90376566263E+02 -0.48819261570E+03  0.49649637745E+03  0.00000000000E+00 0. -1.
         11    1    3    3    0    0  0.24105866869E+02 -0.76870839069E+02 -0.15033674720E+03  0.17056188401E+03  0.00000000000E+00 0.  1.
</event>
<event>
 7    1  0.6145388E-006  0.1139489E+03  0.7561462E-02  0.1253427E+00
          1   -1    0    0  501    0  0.00000000000E+00  0.00000000000E+00  0.49803644978E+03  0.49803644978E+03  0.00000000000E+00 0. -1.
         -1   -1    0    0    0  501 -0.00000000000E+00 -0.00000000000E+00 -0.26961179507E+02  0.26961179507E+02  0.00000000000E+00 0.  1.
         23    2    1    2    0    0 -0.44167142107E+02  0.16607074881E+02  0.22056695590E+03  0.24105172758E+03  0.85027183634E+02 0.  0.
          5    1    1    2  502    0  0.38003423034E+02 -0.69043338546E+02  0.12649014777E+03  0.14909216158E+03  0.41800000000E+01 0. -1.
         -5    1    1    2    0  502  0.61637190735E+01  0.52436263666E+02  0.12401816660E+03  0.13485374013E+03  0.41800000000E+01 0. -1.
        -11    1    3    3    0    0 -0.13024862457E+02 -0.34102014212E+02  0.65960910908E+02  0.75388567987E+02  0.00000000000E+00 0. -1.
         11    1    3    3    0    0 -0.31142279650E+02  0.50709089093E+02  0.15460604499E+03  0.16566315959E+03  0.00000000000E+00 0.  1.
</event>
<event>
 7    1  0.6145388E-006  0.9349254E+02  0.7561462E-02  0.1294608E+00
          1   -1    0    0  501    0  0.00000000000E+00  0.00000000000E+00  0.18602822063E+03  0.18602822063E+03  0.00000000000E+00 0. -1.
         -1   -1    0    0    0  501 -0.00000000000E+00 -0.00000000000E+00 -0.12913701146E+03  0.12913701146E+03  0.00000000000E+00 0.  1.
         23    2    1    2    0    0 -0.18866295761E+02 -0.45093988361E+01  0.13106759587E+03  0.16845817656E+03  0.10403446914E+03 0.  0.
          5    1    1    2  502    0 -0.45356778866E+01  0.48134348859E+02 -0.83098607435E+02  0.96230654532E+02  0.41800000000E+01 0.  1.
         -5    1    1    2    0  502  0.23401973648E+02 -0.43624950023E+02  0.89222207317E+01  0.50476401000E+02  0.41800000000E+01 0.  1.
        -11    1    3    3    0    0 -0.46538512295E+02  0.21075424908E+02  0.11797455488E+03  0.12856127823E+03  0.00000000000E+00 0. -1.
         11    1    3    3    0    0  0.27672216534E+02 -0.25584823744E+02  0.13093040993E+02  0.39896898330E+02  0.00000000000E+00 0.  1.
</event>
<event>
 7    1  0.6145388E-006  0.3243814E+03  0.7561462E-02  0.1073650E+00
         -2   -1    0    0    0  501 -0.00000000000E+00  0.00000000000E+00  0.75451350697E+02  0.75451350697E+02  0.00000000000E+00 0.  1.
          2   -1    0    0  501    0  0.00000000000E+00 -0.00000000000E+00 -0.14728215632E+04  0.14728215632E+04  0.00000000000E+00 0. -1.
         23    2    1    2    0    0  0.12902853583E+03  0.28758850959E+03 -0.67969916832E+03  0.75451384085E+03  0.89132837453E+02 0.  0.
          5    1    1    2  502    0 -0.83156166980E+02 -0.10973202240E+03 -0.18751090496E+03  0.23266687930E+03  0.41800000000E+01 0. -1.
         -5    1    1    2    0  502 -0.45872368849E+02 -0.17785648719E+03 -0.53016013922E+03  0.56109219374E+03  0.41800000000E+01 0. -1.
        -11    1    3    3    0    0  0.64364070703E+02  0.23586106999E+03 -0.52084621060E+03  0.57537288173E+03  0.00000000000E+00 0. -1.
         11    1    3    3    0    0  0.64664465126E+02  0.51727439595E+02 -0.15885295773E+03  0.17914095912E+03  0.00000000000E+00 0.  1.
</event>
<event>
 7    1  0.6145388E-006  0.1571079E+03  0.7561462E-02  0.1192001E+00
         -1   -1    0    0    0  501 -0.00000000000E+00  0.00000000000E+00  0.84904730675E+02  0.84904730675E+02  0.00000000000E+00 0.  1.
          1   -1    0    0  501    0  0.00000000000E+00 -0.00000000000E+00 -0.50965790070E+03  0.50965790070E+03  0.00000000000E+00 0. -1.
         23    2    1    2    0    0 -0.60132957507E+02  0.11086756475E+03 -0.35529803099E+03  0.38894819038E+03  0.95584593355E+02 0.  0.
          5    1    1    2  502    0 -0.43068304139E+02 -0.55156903317E+02 -0.17391174150E+01  0.70126027510E+02  0.41800000000E+01 0. -1.
         -5    1    1    2    0  502  0.10320126165E+03 -0.55710661435E+02 -0.67716021619E+02  0.13548841348E+03  0.41800000000E+01 0.  1.
        -11    1    3    3    0    0 -0.10138027479E+02  0.30185034919E+02 -0.14154336826E+02  0.34846250662E+02  0.00000000000E+00 0.  1.
         11    1    3    3    0    0 -0.49994930028E+02  0.80682529833E+02 -0.34114369416E+03  0.35410193972E+03  0.00000000000E+00 0. -1.
</event>
<event>
 7    1  0.6145388E-006  0.1213821E+03  0.7561462E-02  0.1240834E+00
          3   -1    0    0  501    0  0.00000000000E+00  0.00000000000E+00  0.31037762202E+03  0.31037762202E+03  0.00000000000E+00 0. -1.
         -3   -1    0    0    0  501 -0.00000000000E+00 -0.00000000000E+00 -0.81429256427E+02  0.81429256427E+02  0.00000000000E+00 0.  1.
         23    2    1    2    0    0  0.53242086773E+01  0.11007994150E+03  0.15311840032E+03  0.20865676524E+03  0.89142921456E+02 0.  0.
          5    1    1    2  502    0 -0.99470317806E+01 -0.40426795889E+01 -0.30652460223E+02  0.32746487097E+02  0.41800000000E+01 0. -1.
         -5    1    1    2    0  502  0.46228231032E+01 -0.10603726191E+03  0.10648242550E+03  0.15040362611E+03  0.41800000000E+01 0. -1.
        -11    1    3    3    0    0  0.32251587789E+02  0.63416943274E+02  0.35989360192E+02  0.79731472181E+02  0.00000000000E+00 0.  1.
         11    1    3    3    0    0 -0.26927379112E+02  0.46662998226E+02  0.11712904013E+03  0.12892529306E+03  0.00000000000E+00 0. -1.
</event>
<event>
 7    1  0.6145388E-006  0.9448016E+02  0.7561462E-02  0.1292351E+00
         -4   -1    0    0    0  501 -0.00000000000E+00  0.00000000000E+00  0.40917783720E+03  0.40917783720E+03  0.00000000000E+00 0.  1.
          4   -1    0    0  501    0  0.00000000000E+00 -0.00000000000E+00 -0.36410168823E+02  0.36410168823E+02  0.00000000000E+00 0. -1.
         23    2    1    2    0    0 -0.30260407266E+02 -0.66980406267E+01  0.69353680196E+02  0.11882030471E+03  0.91366163637E+02 0.  0.
          5    1    1    2  502    0  0.52692921019E+02  0.29242744956E+02  0.75906876281E+02  0.97010351638E+02  0.41800000000E+01 0. -1.
         -5    1    1    2    0  502 -0.22432513753E+02 -0.22544704330E+02  0.22750711190E+03  0.22975734968E+03  0.41800000000E+01 0.  1.
        -11    1    3    3    0    0 -0.63245508576E+02 -0.36981643344E+01  0.44972408175E+02  0.77692910046E+02  0.00000000000E+00 0. -1.
         11    1    3    3    0    0  0.32985101309E+02 -0.29998762924E+01  0.24381272021E+02  0.41127394660E+02  0.00000000000E+00 0.  1.
</event>
<event>
 7    1  0.6145388E-006  0.6859265E+02  0.7561462E-02  0.1364945E+00
          1   -1    0    0  501    0  0.00000000000E+00  0.00000000000E+00  0.22532468266E+03  0.22532468266E+03  0.00000000000E+00 0.  1.
         -1   -1    0    0    0  501 -0.00000000000E+00 -0.00000000000E+00 -0.63876357281E+02  0.63876357281E+02  0.00000000000E+00 0. -1.
         23    2    1    2    0    0 -0.19925997602E+02  0.41602309453E+02  0.10049072233E+03  0.14260315959E+03  0.90052641926E+02 0.  0.
          5    1    1    2  502    0 -0.33216034402E+01 -0.15482876498E+02  0.95722277254E+02  0.97113229154E+02  0.41800000000E+01 0. -1.
         -5    1    1    2    0  502  0.23247601042E+02 -0.26119432955E+02 -0.34764674202E+02  0.49484651201E+02  0.41800000000E+01 0. -1.
        -11    1    3    3    0    0  0.18677910977E+02  0.43085272074E+02  0.91637838003E+02  0.10296940508E+03  0.00000000000E+00 0.  1.
         11    1    3    3    0    0 -0.38603908579E+02 -0.14829626213E+01  0.88528843269E+01  0.39633754510E+02  0.00000000000E+00 0. -1.
</event>
<event>
 7    1  0.6145388E-006  0.9866424E+02  0.7561462E-02  0.1283130E+00
          2   -1    0    0  501    0  0.00000000000E+00  0.00000000000E+00  0.55083248792E+02  0.55083248792E+02  0.00000000000E+00 0. -1.
         -2   -1    0    0    0  501 -0.00000000000E+00 -0.00000000000E+00 -0.26591548083E+03  0.26591548083E+03  0.00000000000E+00 0.  1.
         23    2    1    2    0    0  0.16882355754E+02  0.46197688816E+02 -0.63010050269E+02  0.12118938477E+03  0.91089846621E+02 0.  0.
          5    1    1    2  502    0  0.29492734092E+02 -0.64120948432E+02 -0.40558337126E+02  0.81509315434E+02  0.41800000000E+01 0. -1.
         -5    1    1    2    0  502 -0.46375089846E+02  0.17923259616E+02 -0.10726384464E+03  0.11830002942E+03  0.41800000000E+01 0. -1.
        -11    1    3    3    0    0  0.38451355735E+02  0.36737639545E+02  0.78425666348E+00  0.53186238594E+02  0.00000000000E+00 0. -1.
         11    1    3    3    0    0 -0.21568999981E+02  0.94600492713E+01 -0.63794306933E+02  0.68003146173E+02  0.00000000000E+00 0.  1.
</event>
<event>
 7    1  0.6145388E-006  0.1058909E+03  0.7561462E-02  0.1268374E+00
         -1   -1    0    0    0  501 -0.00000000000E+00  0.00000000000E+00  0.49559871774E+03  0.49559871774E+03  0.00000000000E+00 0.  1.
          1   -1    0    0  501    0  0.00000000000E+00 -0.00000000000E+00 -0.49652571563E+02  0.49652571563E+02  0.00000000000E+00 0. -1.
         23    2    1    2    0    0 -0.55459491915E+02  0.65344776701E+02  0.79049835445E+02  0.14825525117E+03  0.91569907336E+02 0.  0.
          5    1    1    2  502    0  0.26000799471E+02 -0.65923982511E+02  0.35934987768E+03  0.36629471745E+03  0.41800000000E+01 0.  1.
         -5    1    1    2    0  502  0.29458692444E+02  0.57920580996E+00  0.75464330483E+01  0.30701320682E+02  0.41800000000E+01 0.  1.
        -11    1    3    3    0    0 -0.59493753298E+01  0.61047697037E+02  0.84468192220E+01  0.61915790678E+02  0.00000000000E+00 0. -1.
         11    1    3    3    0    0 -0.49510116585E+02  0.42970796637E+01  0.70603016223E+02  0.86339460490E+02  0.00000000000E+00 0.  1.
</event>
<event>
 7    1  0.6145388E-006  0.1188659E+03  0.7561462E-02  0.1244980E+00
         -1   -1    0    0    0  501 -0.00000000000E+00  0.00000000000E+00  0.49631842772E+02  0.49631842772E+02  0.00000000000E+00 0.  1.
          1   -1    0    0  501    0  0.00000000000E+00 -0.00000000000E+00 -0.30699456081E+03  0.30699456081E+03  0.00000000000E+00 0. -1.
         23    2    1    2    0    0 -0.26153570685E+02  0.32321122083E+02 -0.10455602308E+03  0.15481369587E+03  0.10633275259E+03 0.  0.
          5    1    1    2  502    0 -0.46008998039E+02 -0.20381174989E+02 -0.98255660515E+02  0.11047111576E+03  0.41800000000E+01 0.  1.
         -5    1    1    2    0  502  0.72162568724E+02 -0.11939947094E+02 -0.54551034446E+02  0.91341591953E+02  0.41800000000E+01 0.  1.
        -11    1    3    3    0    0 -0.30455099942E+02  0.69849554861E+02 -0.74132700252E+02  0.10631147950E+03  0.00000000000E+00 0.  1.
         11    1    3    3    0    0  0.43015292570E+01 -0.37528432779E+02 -0.30423322827E+02  0.48502216368E+02  0.00000000000E+00 0. -1.
</event>
<event>
 7    1  0.6145388E-006  0.1904022E+03  0.7561462E-02  0.1158099E+00
          1   -1    0    0  501    0  0.00000000000E+00  0.00000000000E+00  0.74675222315E+02  0.74675222315E+02  0.00000000000E+00 0. -1.
         -1   -1    0    0    0  501 -0.00000000000E+00 -0.00000000000E+00 -0.69262613768E+03  0.69262613768E+03  0.00000000000E+00 0.  1.
         23    2    1    2    0    0  0.15300827282E+03  0.80252178316E+02 -0.11148089685E+03  0.21774520096E+03  0.71645226658E+02 0.  0.
          5    1    1    2  502    0 -0.82609501105E+01 -0.44845118039E+02 -0.43429339494E+02  0.63110283136E+02  0.41800000000E+01 0. -1.
         -5    1    1    2    0  502 -0.14474732271E+03 -0.35407060277E+02 -0.46304067903E+03  0.48644587590E+03  0.41800000000E+01 0. -1.
        -11    1    3    3    0    0  0.40687100834E+02  0.58932558224E+02 -0.54579114485E+02  0.90040914762E+02  0.00000000000E+00 0.  1.
         11    1    3    3    0    0  0.11232117199E+03  0.21319620092E+02 -0.56901782360E+02  0.12770428620E+03  0.00000000000E+00 0. -1.
</event>
<event>
 7    1  0.6145388E-006  0.1080010E+03  0.7561462E-02  0.1264317E+00
          3   -1    0    0  501    0  0.00000000000E+00  0.00000000000E+00  0.36880871762E+02  0.36880871762E+02  0.00000000000E+00 0. -1.
         -3   -1    0    0    0  501 -0.00000000000E+00 -0.00000000000E+00 -0.79315613855E+03  0.79315613855E+03  0.00000000000E+00 0.  1.
         23    2    1    2    0    0  0.60771703834E+02 -0.25354024252E+02 -0.76529242207E+02  0.13574761700E+03  0.90745049863E+02 0.  0.
          5    1    1    2  502    0 -0.63044693159E+02  0.54901529008E+02 -0.63477589485E+03  0.64027081794E+03  0.41800000000E+01 0. -1.
         -5    1    1    2    0  502  0.22729893248E+01 -0.29547504755E+02 -0.44970129734E+02  0.54018575380E+02  0.41800000000E+01 0. -1.
        -11    1    3    3    0    0  0.71923026125E+02  0.29141816443E+01 -0.76932606330E+02  0.10535672764E+03  0.00000000000E+00 0.  1.
         11    1    3    3    0    0 -0.11151322290E+02 -0.28268205897E+02  0.40336412361E+00  0.30390889359E+02  0.00000000000E+00 0. -1.
</event>
<event>
 7    1  0.6145388E-006  0.1264606E+03  0.7561462E-02  0.1232804E+00
         -2   -1    0    0    0  501 -0.00000000000E+00  0.00000000000E+00  0.16431953450E+03  0.16431953450E+03  0.00000000000E+00 0.  1.
          2   -1    0    0  501    0  0.00000000000E+00 -0.00000000000E+00 -0.13910820162E+03  0.13910820162E+03  0.00000000000E+00 0. -1.
         23    2    1    2    0    0  0.94176678065E+02  0.25298404577E+01 -0.34550956716E+02  0.13581627841E+03  0.91524019181E+02 0.  0.
          5    1    1    2  502    0 -0.92273251091E+02 -0.52596063697E+02  0.39144213918E+02  0.11327153511E+03  0.41800000000E+01 0.  1.
         -5    1    1    2    0  502 -0.19034269740E+01  0.50066223240E+02  0.20618075680E+02  0.54339922603E+02  0.41800000000E+01 0.  1.
        -11    1    3    3    0    0  0.78636047990E+02  0.97088522840E+01 -0.63933581425E+02  0.10181057258E+03  0.00000000000E+00 0.  1.
         11    1    3    3    0    0  0.15540630075E+02 -0.71790118263E+01  0.29382624709E+02  0.34005705826E+02  0.00000000000E+00 0. -1.
</event>
<event>
 7    1  0.6145388E-006  0.1002145E+03  0.7561462E-02  0.1279846E+00
          2   -1    0    0  501    0  0.00000000000E+00  0.00000000000E+00  0.68304282061E+02  0.68304282061E+02  0.00000000000E+00 0. -1.
         -2   -1    0    0    0  501 -0.00000000000E+00 -0.00000000000E+00 -0.30029520877E+03  0.30029520877E+03  0.00000000000E+00 0.  1.
         23    2    1    2    0    0 -0.61853252357E+02 -0.69857679424E+02 -0.88319710226E+02  0.15647159613E+03  0.89314438806E+02 0.  0.
          5    1    1    2  502    0  0.65460123315E+02  0.42743324887E+02 -0.13994725370E+02  0.79532033200E+02  0.41800000000E+01 0. -1.
         -5    1    1    2    0  502 -0.36068709584E+01  0.27114354537E+02 -0.12967649111E+03  0.13259586150E+03  0.41800000000E+01 0. -1.
        -11    1    3    3    0    0 -0.16528775598E+02 -0.29325394065E+02  0.14790140013E+02  0.36768565398E+02  0.00000000000E+00 0. -1.
         11    1    3    3    0    0 -0.45324476759E+02 -0.40532285359E+02 -0.10310985024E+03  0.11970303073E+03  0.00000000000E+00 0.  1.
</event>
<event>
 7    1  0.6145388E-006  0.9618207E+02  0.7561462E-02  0.1288536E+00
         -1   -1    0    0    0  501 -0.00000000000E+00  0.00000000000E+00  0.15527139045E+03  0.15527139045E+03  0.00000000000E+00 0.  1.
          1   -1    0    0  501    0  0.00000000000E+00 -0.00000000000E+00 -0.10716289625E+03  0.10716289625E+03  0.00000000000E+00 0. -1.
         23    2    1    2    0    0 -0.29870557448E+02 -0.14732800999E+02 -0.48029030672E+02  0.11089055935E+03  0.94237056078E+02 0.  0.
          5    1    1    2  502    0  0.23000490364E+02 -0.47559894476E+02  0.32694659073E+02  0.62268605664E+02  0.41800000000E+01 0. -1.
         -5    1    1    2    0  502  0.68700670844E+01  0.62292695474E+02  0.63442865794E+02  0.89275121682E+02  0.41800000000E+01 0.  1.
        -11    1    3    3    0    0  0.83157334298E+01  0.22033676818E+02  0.15467265316E+02  0.28175709981E+02  0.00000000000E+00 0.  1.
         11    1    3    3    0    0 -0.38186290878E+02 -0.36766477817E+02 -0.63496295987E+02  0.82714849369E+02  0.00000000000E+00 0. -1.
</event>
<event>
 7    1  0.6145388E-006  0.8638212E+02  0.7561462E-02  0.1311857E+00
         -3   -1    0    0    0  501 -0.00000000000E+00  0.00000000000E+00  0.96779204885E+02  0.96779204885E+02  0.00000000000E+00 0.  1.
          3   -1    0    0  501    0  0.00000000000E+00 -0.00000000000E+00 -0.17424370798E+03  0.17424370798E+03  0.00000000000E+00 0. -1.
         23    2    1    2    0    0 -0.65214093178E+01 -0.41183816853E+02 -0.92205888015E+02  0.13834445689E+03  0.94332536362E+02 0.  0.
          5    1    1    2  502    0 -0.20159781331E+01  0.68299652670E+02 -0.33741260113E+02  0.76320716432E+02  0.41800000000E+01 0. -1.
         -5    1    1    2    0  502  0.85373874509E+01 -0.27115835817E+02  0.48482645037E+02  0.56357739543E+02  0.41800000000E+01 0. -1.
        -11    1    3    3    0    0 -0.58208287264E+01 -0.58226279930E+02 -0.16581625757E+02  0.60820490251E+02  0.00000000000E+00 0.  1.
         11    1    3    3    0    0 -0.70058059134E+00  0.17042463077E+02 -0.75624262258E+02  0.77523966636E+02  0.00000000000E+00 0. -1.
</event>
<event>
 7    1  0.6145388E-006  0.7143382E+02  0.7561462E-02  0.1355284E+00
          2   -1    0    0  501    0  0.00000000000E+00  0.00000000000E+00  0.39393705304E+03  0.39393705304E+03  0.00000000000E+00 0. -1.
         -2   -1    0    0    0  501 -0.00000000000E+00 -0.00000000000E+00 -0.40225172417E+02  0.40225172417E+02  0.00000000000E+00 0.  1.
         23    2    1    2    0    0 -0.63418166498E+02  0.10583472839E+02  0.19916910021E+03  0.22520449772E+03  0.83155646685E+02 0.  0.
          5    1    1    2  502    0  0.17555920690E+01 -0.11806839957E+02 -0.20071802139E+02  0.23724106188E+02  0.41800000000E+01 0. -1.
         -5    1    1    2    0  502  0.61662574429E+02  0.12233671188E+01  0.17461458255E+03  0.18523362155E+03  0.41800000000E+01 0. -1.
        -11    1    3    3    0    0 -0.19910584373E+02  0.14631544420E+02  0.37883879456E+01  0.24997306763E+02  0.00000000000E+00 0.  1.
         11    1    3    3    0    0 -0.43507582125E+02 -0.40480715813E+01  0.19538071226E+03  0.20020719096E+03  0.00000000000E+00 0. -1.
</event>
<event>
 7    1  0.6145388E-006  0.1171884E+03  0.7561462E-02  0.1247809E+00
          2   -1    0    0  501    0  0.00000000000E+00  0.00000000000E+00  0.27940407673E+03  0.27940407673E+03  0.00000000000E+00 0. -1.
         -2   -1    0    0    0  501 -0.00000000000E+00 -0.00000000000E+00 -0.83971404435E+02  0.83971404435E+02  0.00000000000E+00 0.  1.
         23    2    1    2    0    0  0.79125508714E+02  0.64392718091E+02  0.13125199444E+03  0.18966826553E+03  0.91321939492E+02 0.  0.
          5    1    1    2  502    0  0.29805431948E+01 -0.48271984603E+02  0.74890367636E+02  0.89247452064E+02  0.41800000000E+01 0.  1.
         -5    1    1    2    0  502 -0.82106051909E+02 -0.16120733488E+02 -0.10709689774E+02  0.84459763576E+02  0.41800000000E+01 0.  1.
        -11    1    3    3    0    0  0.23959741513E+02  0.21176508784E+02 -0.87107646514E+01  0.33141984830E+02  0.00000000000E+00 0.  1.
         11    1    3    3    0    0  0.55165767201E+02  0.43216209307E+02  0.13996275909E+03  0.15652628070E+03  0.00000000000E+00 0. -1.
</event>
<event>
 7    1  0.6145388E-006  0.1457118E+03  0.7561462E-02  0.1205844E+00
         -3   -1    0    0    0  501 -0.00000000000E+00  0.00000000000E+00  0.23895092185E+03  0.23895092185E+03  0.00000000000E+00 0.  1.
          3   -1    0    0  501    0  0.00000000000E+00 -0.00000000000E+00 -0.10359730013E+03  0.10359730013E+03  0.00000000000E+00 0. -1.
         23    2    1    2    0    0 -0.13135516880E+02  0.10700018380E+03  0.23770968941E+02  0.14325084912E+03  0.91291651711E+02 0.  0.
          5    1    1    2  502    0 -0.12168344482E+02 -0.12187544272E+03  0.52763636804E+02  0.13342850488E+03  0.41800000000E+01 0. -1.
         -5    1    1    2    0  502  0.25303861362E+02  0.14875258920E+02  0.58819015977E+02  0.65868867975E+02  0.41800000000E+01 0. -1.
        -11    1    3    3    0    0 -0.47931718346E+02  0.35308775524E+02  0.22225370793E+02  0.63546253702E+02  0.00000000000E+00 0.  1.
         11    1    3    3    0    0  0.34796201466E+02  0.71691408277E+02  0.15455981475E+01  0.79704595418E+02  0.00000000000E+00 0. -1.
</event>
<event>
 7    1  0.6145388E-006  0.7911195E+02  0.7561462E-02  0.1331591E+00
          1   -1    0    0  501    0  0.00000000000E+00  0.00000000000E+00  0.27441724914E+03  0.27441724914E+03  0.00000000000E+00 0. -1.
         -1   -1    0    0    0  501 -0.00000000000E+00 -0.00000000000E+00 -0.43376086879E+02  0.43376086879E+02  0.00000000000E+00 0.  1.
         23    2    1    2    0    0 -0.32120438167E+00  0.57282037778E+01  0.11739990220E+03  0.14869024150E+03  0.91066653565E+02 0.  0.
          5    1    1    2  502    0  0.53700303974E+02  0.10401009458E+02  0.16968081173E+02  0.57422049975E+02  0.41800000000E+01 0.  1.
         -5    1    1    2    0  502 -0.53379099593E+02 -0.16129213236E+02  0.96673178884E+02  0.11168104454E+03  0.41800000000E+01 0.  1.
        -11    1    3    3    0    0  0.88905518017E+01 -0.19044235187E+02 -0.65026231299E+01  0.22000202562E+02  0.00000000000E+00 0.  1.
         11    1    3    3    0    0 -0.92117561833E+01  0.24772438965E+02  0.12390252533E+03  0.12669003894E+03  0.00000000000E+00 0. -1.
</event>
<event>
 7    1  0.6145388E-006  0.7765424E+02  0.7561462E-02  0.1335843E+00
          3   -1    0    0  501    0  0.00000000000E+00  0.00000000000E+00  0.18011302698E+03  0.18011302698E+03  0.00000000000E+00 0. -1.
         -3   -1    0    0    0  501 -0.00000000000E+00 -0.00000000000E+00 -0.55310570097E+02  0.55310570097E+02  0.00000000000E+00 0.  1.
         23    2    1    2    0    0  0.57098272274E+01 -0.12415978627E+02  0.88381591923E+02  0.10443967261E+03  0.53940529952E+02 0.  0.
          5    1    1    2  502    0  0.35593080093E+02  0.46103423567E+02  0.48807218482E+02  0.76105256002E+02  0.41800000000E+01 0.  1.
         -5    1    1    2    0  502 -0.41302907320E+02 -0.33687444940E+02 -0.12386353518E+02  0.54878668471E+02  0.41800000000E+01 0.  1.
        -11    1    3    3    0    0  0.14305813913E+02 -0.24649610992E+02  0.20953718016E+02  0.35373972529E+02  0.00000000000E+00 0. -1.
         11    1    3    3    0    0 -0.85959866855E+01  0.12233632365E+02  0.67427873907E+02  0.69065700080E+02  0.00000000000E+00 0.  1.
</event>
<event>
 7    1  0.6145388E-006  0.7536560E+02  0.7561462E-02  0.1342743E+00
          2   -1    0    0  501    0  0.00000000000E+00  0.00000000000E+00  0.39464956726E+03  0.39464956726E+03  0.00000000000E+00 0. -1.
         -2   -1    0    0    0  501 -0.00000000000E+00 -0.00000000000E+00 -0.32880857996E+02  0.32880857996E+02  0.00000000000E+00 0.  1.
         23    2    1    2    0    0  0.12660930306E+02  0.39143470063E+01  0.21978097448E+03  0.23783387531E+03  0.89920265965E+02 0.  0.
          5    1    1    2  502    0  0.12378931094E+02  0.23358645757E+02 -0.13380669740E+02  0.29922884041E+02  0.41800000000E+01 0. -1.
         -5    1    1    2    0  502 -0.25039861401E+02 -0.27272992763E+02  0.15536840453E+03  0.15977366591E+03  0.41800000000E+01 0. -1.
        -11    1    3    3    0    0  0.17922226170E+02 -0.39289442130E+02  0.14516597359E+03  0.15145304996E+03  0.00000000000E+00 0.  1.
         11    1    3    3    0    0 -0.52612958636E+01  0.43203789136E+02  0.74615000894E+02  0.86380825351E+02  0.00000000000E+00 0. -1.
</event>
<event>
 7    1  0.6145388E-006  0.9876796E+02  0.7561462E-02  0.1282908E+00
         -1   -1    0    0    0  501 -0.00000000000E+00  0.00000000000E+00  0.62497349454E+02  0.62497349454E+02  0.00000000000E+00 0. -1.
          1   -1    0    0  501    0  0.00000000000E+00 -0.00000000000E+00 -0.24448616942E+03  0.24448616942E+03  0.00000000000E+00 0.  1.
         23    2    1    2    0    0  0.19860372386E+02 -0.53901293407E+02 -0.11545004587E+03  0.15409899241E+03  0.84368255568E+02 0.  0.
          5    1    1    2  502    0 -0.47181288541E+02  0.80252379442E+02 -0.66866259524E+02  0.11469562963E+03  0.41800000000E+01 0. -1.
         -5    1    1    2    0  502  0.27320916156E+02 -0.26351086035E+02  0.32748542367E+00  0.38188896836E+02  0.41800000000E+01 0. -1.
        -11    1    3    3    0    0 -0.59611969841E+01 -0.31244652920E+02 -0.11544487422E+03  0.11974674605E+03  0.00000000000E+00 0.  1.
         11    1    3    3    0    0  0.25821569370E+02 -0.22656640487E+02 -0.51716450842E-02  0.34352246355E+02  0.00000000000E+00 0. -1.
</event>
<event>
 7    1  0.6145388E-006  0.8435077E+02  0.7561462E-02  0.1317139E+00
          3   -1    0    0  501    0  0.00000000000E+00  0.00000000000E+00  0.35024128056E+03  0.35024128056E+03  0.00000000000E+00 0. -1.
         -3   -1    0    0    0  501 -0.00000000000E+00 -0.00000000000E+00 -0.45732044282E+02  0.45732044282E+02  0.00000000000E+00 0.  1.
         23    2    1    2    0    0 -0.22867446842E+02  0.24383039221E+02  0.22462652853E+03  0.24383522461E+03  0.88775484884E+02 0.  0.
          5    1    1    2  502    0 -0.23135672502E+02 -0.69970963389E+01  0.96880039021E+02  0.99937145546E+02  0.41800000000E+01 0.  1.
         -5    1    1    2    0  502  0.46003119343E+02 -0.17385942882E+02 -0.16997331273E+02  0.52200954681E+02  0.41800000000E+01 0.  1.
        -11    1    3    3    0    0  0.13787465400E+01 -0.32735414952E+02  0.81211186294E+02  0.87571485732E+02  0.00000000000E+00 0. -1.
         11    1    3    3    0    0 -0.24246193382E+02  0.57118454173E+02  0.14341534223E+03  0.15626373888E+03  0.00000000000E+00 0.  1.
</event>
<event>
 7    1  0.6145388E-006  0.2010532E+03  0.7561462E-02  0.1148853E+00
         -3   -1    0    0    0  501 -0.00000000000E+00  0.00000000000E+00  0.14072025108E+03  0.14072025108E+03  0.00000000000E+00 0.  1.
          3   -1    0    0  501    0  0.00000000000E+00 -0.00000000000E+00 -0.35253510862E+03  0.35253510862E+03  0.00000000000E+00 0. -1.
         23    2    1    2    0    0 -0.17829987776E+03 -0.16657685116E+02 -0.18561101310E+03  0.27325583883E+03  0.90271703127E+02 0.  0.
          5    1    1    2  502    0  0.15853565945E+03  0.52522685651E+02  0.68585633884E+01  0.16720257210E+03  0.41800000000E+01 0.  1.
         -5    1    1    2    0  502  0.19764218312E+02 -0.35865000535E+02 -0.33062407827E+02  0.52796948777E+02  0.41800000000E+01 0.  1.
        -11    1    3    3    0    0 -0.51466803297E+02  0.29007221574E+02 -0.26590626812E+02  0.64786666678E+02  0.00000000000E+00 0.  1.
         11    1    3    3    0    0 -0.12683307447E+03 -0.45664906690E+02 -0.15902038629E+03  0.20846917215E+03  0.00000000000E+00 0. -1.
</event>
<event>
 7    1  0.6145388E-006  0.1540079E+03  0.7561462E-02  0.1195633E+00
         -1   -1    0    0    0  501 -0.00000000000E+00  0.00000000000E+00  0.27924943919E+02  0.27924943919E+02  0.00000000000E+00 0.  1.
          1   -1    0    0  501    0  0.00000000000E+00 -0.00000000000E+00 -0.93027178375E+03  0.93027178375E+03  0.00000000000E+00 0. -1.
         23    2    1    2    0    0 -0.67914133757E+02  0.98650286004E+02 -0.44014995451E+03  0.46461905275E+03  0.88287446629E+02 0.  0.
          5    1    1    2  502    0  0.23904206934E+02 -0.11994411052E+03 -0.29630611584E+03  0.32058195121E+03  0.41800000000E+01 0.  1.
         -5    1    1    2    0  502  0.44009926823E+02  0.21293824519E+02 -0.16589076948E+03  0.17299572371E+03  0.41800000000E+01 0.  1.
        -11    1    3    3    0    0 -0.62690015878E+02  0.33246571098E+02 -0.31947129122E+03  0.32725720541E+03  0.00000000000E+00 0. -1.
         11    1    3    3    0    0 -0.52241178794E+01  0.65403714906E+02 -0.12067866329E+03  0.13736184734E+03  0.00000000000E+00 0.  1.
</event>
<event>
 7    1  0.6145388E-006  0.9351336E+02  0.7561462E-02  0.1294560E+00
          2   -1    0    0  501    0  0.00000000000E+00  0.00000000000E+00  0.24274268254E+03  0.24274268254E+03  0.00000000000E+00 0.  1.
         -2   -1    0    0    0  501 -0.00000000000E+00 -0.00000000000E+00 -0.83309448225E+02  0.83309448225E+02  0.00000000000E+00 0. -1.
         23    2    1    2    0    0 -0.82468021486E+02 -0.17787346776E+02  0.11234722787E+03  0.16799527169E+03  0.92104003325E+02 0.  0.
          5    1    1    2  502    0  0.89123695079E+02  0.10270841385E+02 -0.18398000947E+02  0.91675962205E+02  0.41800000000E+01 0.  1.
         -5    1    1    2    0  502 -0.66556735927E+01  0.75165053906E+01  0.65484007393E+02  0.66380896865E+02  0.41800000000E+01 0.  1.
        -11    1    3    3    0    0 -0.20339141005E+02 -0.12756422236E+02  0.10202791345E+03  0.10481460818E+03  0.00000000000E+00 0.  1.
         11    1    3    3    0    0 -0.62128880482E+02 -0.50309245399E+01  0.10319314415E+02  0.63180663511E+02  0.00000000000E+00 0. -1.
</event>
<event>
 7    1  0.6145388E-006  0.1464281E+03  0.7561462E-02  0.1204932E+00
         -2   -1    0    0    0  501 -0.00000000000E+00  0.00000000000E+00  0.34721273080E+02  0.34721273080E+02  0.00000000000E+00 0.  1.
          2   -1    0    0  501    0  0.00000000000E+00 -0.00000000000E+00 -0.77467165671E+03  0.77467165671E+03  0.00000000000E+00 0. -1.
         23    2    1    2    0    0 -0.11197299133E+03  0.50570208043E+02 -0.36738418047E+03  0.39762900773E+03  0.89679401197E+02 0.  0.
          5    1    1    2  502    0  0.77054724684E+02  0.12768011730E+02 -0.86294253703E+02  0.11646726296E+03  0.41800000000E+01 0. -1.
         -5    1    1    2    0  502  0.34918266646E+02 -0.63338219773E+02 -0.28627194946E+03  0.29529665910E+03  0.41800000000E+01 0. -1.
        -11    1    3    3    0    0 -0.34740271067E+02  0.54755676055E+02 -0.23995872827E+03  0.24856641320E+03  0.00000000000E+00 0. -1.
         11    1    3    3    0    0 -0.77232720264E+02 -0.41854680117E+01 -0.12742545220E+03  0.14906259454E+03  0.00000000000E+00 0.  1.
</event>
<event>
 7    1  0.6145388E-006  0.9712252E+02  0.7561462E-02  0.1286466E+00
          2   -1    0    0  501    0  0.00000000000E+00  0.00000000000E+00  0.19454432882E+03  0.19454432882E+03  0.00000000000E+00 0. -1.
         -2   -1    0    0    0  501 -0.00000000000E+00 -0.00000000000E+00 -0.96932584229E+02  0.96932584229E+02  0.00000000000E+00 0.  1.
         23    2    1    2    0    0 -0.55063280101E+02 -0.99525306168E+01  0.10910361975E+03  0.15394084966E+03  0.93076139102E+02 0.  0.
          5    1    1    2  502    0  0.73316587794E+02 -0.40052059082E+02 -0.61473720004E+01  0.83873428838E+02  0.41800000000E+01 0.  1.
         -5    1    1    2    0  502 -0.18253307693E+02  0.50004589699E+02 -0.53445031614E+01  0.53662634549E+02  0.41800000000E+01 0.  1.
        -11    1    3    3    0    0 -0.41877497375E+02 -0.22660390278E+01  0.12503335712E+03  0.13187949087E+03  0.00000000000E+00 0. -1.
         11    1    3    3    0    0 -0.13185782727E+02 -0.76864915890E+01 -0.15929737369E+02  0.22061358791E+02  0.00000000000E+00 0.  1.
</event>
<event>
 7    1  0.6145388E-006  0.9963298E+02  0.7561462E-02  0.1281070E+00
          2   -1    0    0  501    0  0.00000000000E+00  0.00000000000E+00  0.17194004228E+03  0.17194004228E+03  0.00000000000E+00 0. -1.
         -2   -1    0    0    0  501 -0.00000000000E+00 -0.00000000000E+00 -0.10520771754E+03  0.10520771754E+03  0.00000000000E+00 0.  1.
         23    2    1    2    0    0 -0.35347520573E+02  0.52817617883E+02  0.79693155906E+02  0.13624357639E+03  0.90400027871E+02 0.  0.
          5    1    1    2  502    0 -0.93957482437E+00 -0.59601982771E+02  0.43080960694E+02  0.73666279432E+02  0.41800000000E+01 0.  1.
         -5    1    1    2    0  502  0.36287095398E+02  0.67843648878E+01 -0.56041791861E+02  0.67237904000E+02  0.41800000000E+01 0.  1.
        -11    1    3    3    0    0 -0.23864814158E+02  0.74278834542E+02  0.80213996591E+02  0.11189798865E+03  0.00000000000E+00 0. -1.
         11    1    3    3    0    0 -0.11482706416E+02 -0.21461216659E+02 -0.52084068473E+00  0.24345587734E+02  0.00000000000E+00 0.  1.
</event>
<event>
 7    1  0.6145388E-006  0.1006867E+03  0.7561462E-02  0.1278859E+00
         -1   -1    0    0    0  501 -0.00000000000E+00  0.00000000000E+00  0.11421270316E+03  0.11421270316E+03  0.00000000000E+00 0.  1.
          1   -1    0    0  501    0  0.00000000000E+00 -0.00000000000E+00 -0.13290940354E+03  0.13290940354E+03  0.00000000000E+00 0. -1.
         23    2    1    2    0    0  0.86512704876E+01 -0.23954124030E+02 -0.60915030750E+02  0.11265759701E+03  0.91282247203E+02 0.  0.
          5    1    1    2  502    0  0.42151445735E+02 -0.19672564339E+02 -0.11978240948E+02  0.48215192848E+02  0.41800000000E+01 0.  1.
         -5    1    1    2    0  502 -0.50802716223E+02  0.43626688369E+02  0.54196571319E+02  0.86249316846E+02  0.41800000000E+01 0.  1.
        -11    1    3    3    0    0 -0.32717455220E+02 -0.31622442045E+02 -0.99630093277E+01  0.46579741003E+02  0.00000000000E+00 0.  1.
         11    1    3    3    0    0  0.41368725708E+02  0.76683180151E+01 -0.50952021423E+02  0.66077856010E+02  0.00000000000E+00 0. -1.
</event>
<event>
 7    1  0.6145388E-006  0.2435191E+03  0.7561462E-02  0.1117470E+00
          1   -1    0    0  501    0  0.00000000000E+00  0.00000000000E+00  0.26645119225E+03  0.26645119225E+03  0.00000000000E+00 0. -1.
         -1   -1    0    0    0  501 -0.00000000000E+00 -0.00000000000E+00 -0.26706458472E+03  0.26706458472E+03  0.00000000000E+00 0.  1.
         23    2    1    2    0    0 -0.92259886029E+02  0.19751838487E+03  0.10771179989E+03  0.25982443489E+03  0.91550566346E+02 0.  0.
          5    1    1    2  502    0  0.98935152371E+02 -0.64698443758E+02 -0.51598670220E+02  0.12905017694E+03  0.41800000000E+01 0.  1.
         -5    1    1    2    0  502 -0.66752663424E+01 -0.13281994111E+03 -0.56726522138E+02  0.14464116514E+03  0.41800000000E+01 0.  1.
        -11    1    3    3    0    0 -0.28269928785E+02  0.15795833930E+03  0.63583151216E+02  0.17260603392E+03  0.00000000000E+00 0. -1.
         11    1    3    3    0    0 -0.63989957243E+02  0.39560045573E+02  0.44128648678E+02  0.87218400971E+02  0.00000000000E+00 0.  1.
</event>
<event>
 7    1  0.6145388E-006  0.1340629E+03  0.7561462E-02  0.1221549E+00
         -1   -1    0    0    0  501 -0.00000000000E+00  0.00000000000E+00  0.46915464896E+03  0.46915464896E+03  0.00000000000E+00 0.  1.
          1   -1    0    0  501    0  0.00000000000E+00 -0.00000000000E+00 -0.41661823096E+02  0.41661823096E+02  0.00000000000E+00 0. -1.
         23    2    1    2    0    0  0.59882237724E+02  0.59135444233E+02  0.15436732211E+03  0.19884179498E+03  0.92875756448E+02 0.  0.
          5    1    1    2  502    0 -0.17499062648E+02  0.37468934580E+02  0.11076780794E+03  0.11830941606E+03  0.41800000000E+01 0. -1.
         -5    1    1    2    0  502 -0.42383175076E+02 -0.96604378812E+02  0.16235769582E+03  0.19366526102E+03  0.41800000000E+01 0. -1.
        -11    1    3    3    0    0  0.74531862448E+02  0.17097024000E+02  0.12128177645E+03  0.14337564664E+03  0.00000000000E+00 0.  1.
         11    1    3    3    0    0 -0.14649624724E+02  0.42038420233E+02  0.33085545654E+02  0.55466148338E+02  0.00000000000E+00 0. -1.
</event>
<event>
 7    1  0.6145388E-006  0.1096647E+03  0.7561462E-02  0.1261192E+00
          3   -1    0    0  501    0  0.00000000000E+00  0.00000000000E+00  0.16668775584E+03  0.16668775584E+03  0.00000000000E+00 0. -1.
         -3   -1    0    0    0  501 -0.00000000000E+00 -0.00000000000E+00 -0.92044103418E+02  0.92044103418E+02  0.00000000000E+00 0.  1.
         23    2    1    2    0    0  0.27621933409E+02 -0.44674037500E+02  0.63611124499E+02  0.12261167105E+03  0.90711112254E+02 0.  0.
          5    1    1    2  502    0 -0.23018771423E+02 -0.35413873780E+02  0.31935182532E+02  0.53116236475E+02  0.41800000000E+01 0. -1.
         -5    1    1    2    0  502 -0.46031619862E+01  0.80087911280E+02 -0.20902654608E+02  0.83003951732E+02  0.41800000000E+01 0. -1.
        -11    1    3    3    0    0 -0.27560139412E+02 -0.36605260274E+01  0.42321327367E+02  0.50636503486E+02  0.00000000000E+00 0.  1.
         11    1    3    3    0    0  0.55182072821E+02 -0.41013511473E+02  0.21289797132E+02  0.71975167566E+02  0.00000000000E+00 0. -1.
</event>
<event>
 7    1  0.6145388E-006  0.1659826E+03  0.7561462E-02  0.1182103E+00
          2   -1    0    0  501    0  0.00000000000E+00  0.00000000000E+00  0.57857036151E+03  0.57857036151E+03  0.00000000000E+00 0. -1.
         -2   -1    0    0    0  501 -0.00000000000E+00 -0.00000000000E+00 -0.62161335535E+02  0.62161335535E+02  0.00000000000E+00 0.  1.
         23    2    1    2    0    0  0.89571612066E+02 -0.12586326877E+03  0.26215803724E+03  0.31799942702E+03  0.92369708132E+02 0.  0.
          5    1    1    2  502    0 -0.69252887484E+02  0.54197800091E+02  0.41598549133E+02  0.97371842180E+02  0.41800000000E+01 0.  1.
         -5    1    1    2    0  502 -0.20318724582E+02  0.71665468683E+02  0.21265243960E+03  0.22536042785E+03  0.41800000000E+01 0.  1.
        -11    1    3    3    0    0  0.45530192721E+02 -0.11779550580E+02  0.12851490262E+03  0.13684968563E+03  0.00000000000E+00 0. -1.
         11    1    3    3    0    0  0.44041419345E+02 -0.11408371819E+03  0.13364313462E+03  0.18114974139E+03  0.00000000000E+00 0.  1.
</event>
<event>
 7    1  0.6145388E-006  0.2046319E+03  0.7561462E-02  0.1145889E+00
         -2   -1    0    0    0  501 -0.00000000000E+00  0.00000000000E+00  0.19556873247E+03  0.19556873247E+03  0.00000000000E+00 0.  1.
          2   -1    0    0  501    0  0.00000000000E+00 -0.00000000000E+00 -0.34915409376E+03  0.34915409376E+03  0.00000000000E+00 0. -1.
         23    2    1    2    0    0 -0.29572718773E+02  0.19080690213E+03 -0.21866591145E+03  0.30563447152E+03  0.91191171466E+02 0.  0.
          5    1    1    2  502    0  0.26269999539E+02 -0.23876245931E+02  0.62562610718E+02  0.72053734500E+02  0.41800000000E+01 0.  1.
         -5    1    1    2    0  502  0.33027192332E+01 -0.16693065620E+03  0.25179394434E+01  0.16703462022E+03  0.41800000000E+01 0.  1.
        -11    1    3    3    0    0 -0.31848488648E+02  0.24501223481E+02 -0.15491711150E+02  0.43065407180E+02  0.00000000000E+00 0.  1.
         11    1    3    3    0    0  0.22757698756E+01  0.16630567865E+03 -0.20317420030E+03  0.26256906434E+03  0.00000000000E+00 0. -1.
</event>
<event>
 7    1  0.6145388E-006  0.1105624E+03  0.7561462E-02  0.1259532E+00
          1   -1    0    0  501    0  0.00000000000E+00  0.00000000000E+00  0.31666592611E+03  0.31666592611E+03  0.00000000000E+00 0. -1.
         -1   -1    0    0    0  501 -0.00000000000E+00 -0.00000000000E+00 -0.40099333813E+02  0.40099333813E+02  0.00000000000E+00 0.  1.
         23    2    1    2    0    0 -0.21431260161E+02  0.19260438637E+02  0.14152223350E+03  0.17044738645E+03  0.90517984761E+02 0.  0.
          5    1    1    2  502    0  0.66227440598E+02 -0.39271961096E+02  0.65904403095E+02  0.10143581007E+03  0.41800000000E+01 0.  1.
         -5    1    1    2    0  502 -0.44796180437E+02  0.20011522459E+02  0.69139955696E+02  0.84882063397E+02  0.41800000000E+01 0.  1.
        -11    1    3    3    0    0  0.35642765306E+02  0.54875037533E+01  0.59538162951E+02  0.69608277264E+02  0.00000000000E+00 0.  1.
         11    1    3    3    0    0 -0.57074025467E+02  0.13772934884E+02  0.81984070551E+02  0.10083910919E+03  0.00000000000E+00 0. -1.
</event>
<event>
 7    1  0.6145388E-006  0.9091590E+02  0.7561462E-02  0.1300649E+00
          1   -1    0    0  501    0  0.00000000000E+00  0.00000000000E+00  0.44057969875E+02  0.44057969875E+02  0.00000000000E+00 0. -1.
         -1   -1    0    0    0  501 -0.00000000000E+00 -0.00000000000E+00 -0.36882752456E+03  0.36882752456E+03  0.00000000000E+00 0.  1.
         23    2    1    2    0    0  0.37606192574E+02  0.13066974791E+02 -0.71541201000E+02  0.12276723567E+03  0.91480485145E+02 0.  0.
          5    1    1    2  502    0 -0.82746696432E+02 -0.22686388124E+02 -0.20939052308E+03  0.22632620602E+03  0.41800000000E+01 0. -1.
         -5    1    1    2    0  502  0.45140503858E+02  0.96194133332E+01 -0.43837830603E+02  0.63792052745E+02  0.41800000000E+01 0.  1.
        -11    1    3    3    0    0  0.28016785998E+02 -0.56274582327E+01  0.15992683432E+02  0.32747129754E+02  0.00000000000E+00 0. -1.
         11    1    3    3    0    0  0.95894065762E+01  0.18694433024E+02 -0.87533884432E+02  0.90020105911E+02  0.00000000000E+00 0.  1.
</event>
<event>
 7    1  0.6145388E-006  0.1417082E+03  0.7561462E-02  0.1211049E+00
          2   -1    0    0  501    0  0.00000000000E+00  0.00000000000E+00  0.10172079015E+04  0.10172079015E+04  0.00000000000E+00 0.  1.
         -2   -1    0    0    0  501 -0.00000000000E+00 -0.00000000000E+00 -0.21399603753E+02  0.21399603753E+02  0.00000000000E+00 0. -1.
         23    2    1    2    0    0 -0.94961077450E+02 -0.25876978005E+02  0.50927099868E+03  0.52669590117E+03  0.91457082815E+02 0.  0.
          5    1    1    2  502    0 -0.23689049495E+02 -0.84379901629E+01  0.32215852017E+02  0.41081677974E+02  0.41800000000E+01 0.  1.
         -5    1    1    2    0  502  0.11865012695E+03  0.34314968168E+02  0.45432144702E+03  0.47082992607E+03  0.41800000000E+01 0.  1.
        -11    1    3    3    0    0 -0.36156272622E+02 -0.57234288174E+02  0.25267406211E+03  0.26158597336E+03  0.00000000000E+00 0.  1.
         11    1    3    3    0    0 -0.58804804828E+02  0.31357310169E+02  0.25659693657E+03  0.26510992782E+03  0.00000000000E+00 0. -1.
</event>
<event>
 7    1  0.6145388E-006  0.1647041E+03  0.7561462E-02  0.1183486E+00
          1   -1    0    0  501    0  0.00000000000E+00  0.00000000000E+00  0.56884413520E+03  0.56884413520E+03  0.00000000000E+00 0. -1.
         -1   -1    0    0    0  501 -0.00000000000E+00 -0.00000000000E+00 -0.51517617150E+02  0.51517617150E+02  0.00000000000E+00 0.  1.
         23    2    1    2    0    0 -0.11615742705E+03  0.32989426262E+02  0.32226031877E+03  0.35905869900E+03  0.10242356259E+03 0.  0.
          5    1    1    2  502    0  0.62970288918E+02  0.46234592351E+02  0.83071437486E+02  0.11411060837E+03  0.41800000000E+01 0.  1.
         -5    1    1    2    0  502  0.53187138135E+02 -0.79224018613E+02  0.11199476180E+03  0.14719244498E+03  0.41800000000E+01 0.  1.
        -11    1    3    3    0    0 -0.69902840338E+02  0.68100067772E+02  0.23250192555E+03  0.25215307197E+03  0.00000000000E+00 0. -1.
         11    1    3    3    0    0 -0.46254586714E+02 -0.35110641511E+02  0.89758393218E+02  0.10690562704E+03  0.00000000000E+00 0.  1.
</event>
<event>
 7    1  0.6145388E-006  0.1520584E+03  0.7561462E-02  0.1197966E+00
         -1   -1    0    0    0  501 -0.00000000000E+00  0.00000000000E+00  0.29098515474E+03  0.29098515474E+03  0.00000000000E+00 0.  1.
          1   -1    0    0  501    0  0.00000000000E+00 -0.00000000000E+00 -0.10959623849E+03  0.10959623849E+03  0.00000000000E+00 0. -1.
         23    2    1    2    0    0  0.76194975223E+02 -0.11018138114E+03  0.29116325762E+02  0.16229761313E+03  0.86874298867E+02 0.  0.
          5    1    1    2  502    0 -0.24869632162E+02 -0.15061250121E+02 -0.60067243961E+01  0.29981544274E+02  0.41800000000E+01 0. -1.
         -5    1    1    2    0  502 -0.51325343061E+02  0.12524263126E+03  0.15827931488E+03  0.20830223582E+03  0.41800000000E+01 0. -1.
        -11    1    3    3    0    0  0.26182737250E+02 -0.71372783063E+02  0.55076626080E+02  0.93877817574E+02  0.00000000000E+00 0.  1.
         11    1    3    3    0    0  0.50012237974E+02 -0.38808598079E+02 -0.25960300318E+02  0.68419795561E+02  0.00000000000E+00 0. -1.
</event>
<event>
 6    1  0.6145388E-006  0.5691618E+02  0.7561462E-02  0.1411248E+00
         -2   -1    0    0    0  501 -0.00000000000E+00  0.00000000000E+00  0.61701058434E+02  0.61701058434E+02  0.00000000000E+00 0. -1.
          2   -1    0    0  501    0  0.00000000000E+00 -0.00000000000E+00 -0.11658534447E+03  0.11658534447E+03  0.00000000000E+00 0.  1.
          5    1    1    2  502    0 -0.21007392558E+02 -0.33030533963E+02  0.39701592452E+02  0.55910782137E+02  0.41800000000E+01 0.  1.
         -5    1    1    2    0  502 -0.12713551933E+02  0.37607225244E+02 -0.64839760422E+02  0.76142003683E+02  0.41800000000E+01 0.  1.
        -11    1    1    2    0    0  0.10698081523E+02 -0.42802075836E+01 -0.14907687100E+02  0.18841662875E+02  0.00000000000E+00 0.  1.
         11    1    1    2    0    0  0.23022862968E+02 -0.29648369670E+00 -0.14838430967E+02  0.27391954209E+02  0.00000000000E+00 0. -1.
</event>
<event>
 7    1  0.6145388E-006  0.9977052E+02  0.7561462E-02  0.1280779E+00
         -4   -1    0    0    0  501 -0.00000000000E+00  0.00000000000E+00  0.95503909593E+03  0.95503909593E+03  0.00000000000E+00 0.  1.
          4   -1    0    0  501    0  0.00000000000E+00 -0.00000000000E+00 -0.13870042121E+02  0.13870042121E+02  0.00000000000E+00 0. -1.
         23    2    1    2    0    0  0.24337686857E+02 -0.94844790269E+01  0.29005067423E+03  0.30536965966E+03  0.91863796315E+02 0.  0.
          5    1    1    2  502    0 -0.73494687439E+02  0.36350525802E+01  0.29984567828E+03  0.30877108976E+03  0.41800000000E+01 0. -1.
         -5    1    1    2    0  502  0.49157000582E+02  0.58494264468E+01  0.35127270130E+03  0.35476838864E+03  0.41800000000E+01 0. -1.
        -11    1    3    3    0    0  0.45139659126E+02 -0.23680077896E+02  0.26496463218E+03  0.26982325923E+03  0.00000000000E+00 0.  1.
         11    1    3    3    0    0 -0.20801972268E+02  0.14195598869E+02  0.25086042048E+02  0.35546400424E+02  0.00000000000E+00 0. -1.
</event>
<event>
 7    1  0.6145388E-006  0.1977188E+03  0.7561462E-02  0.1151678E+00
          1   -1    0    0  501    0  0.00000000000E+00  0.00000000000E+00  0.29683410989E+03  0.29683410989E+03  0.00000000000E+00 0. -1.
         -1   -1    0    0    0  501 -0.00000000000E+00 -0.00000000000E+00 -0.17219207715E+03  0.17219207715E+03  0.00000000000E+00 0.  1.
         23    2    1    2    0    0  0.18176457840E+03 -0.23456386508E+02  0.13838534481E+03  0.24670924560E+03  0.90146459595E+02 0.  0.
          5    1    1    2  502    0 -0.18631325560E+01  0.31631521105E+02  0.21827116733E+02  0.38702969075E+02  0.41800000000E+01 0. -1.
         -5    1    1    2    0  502 -0.17990144584E+03 -0.81751345967E+01 -0.35570428806E+02  0.18361397236E+03  0.41800000000E+01 0. -1.
        -11    1    3    3    0    0  0.13550145950E+03 -0.15269041701E+02  0.47494208609E+02  0.14439352137E+03  0.00000000000E+00 0.  1.
         11    1    3    3    0    0  0.46263118899E+02 -0.81873448071E+01  0.90891136205E+02  0.10231572424E+03  0.00000000000E+00 0. -1.
</event>
<event>
 7    1  0.6145388E-006  0.1314256E+03  0.7561462E-02  0.1225356E+00
          4   -1    0    0  501    0  0.00000000000E+00  0.00000000000E+00  0.50730064924E+03  0.50730064924E+03  0.00000000000E+00 0. -1.
         -4   -1    0    0    0  501 -0.00000000000E+00 -0.00000000000E+00 -0.50615218641E+02  0.50615218641E+02  0.00000000000E+00 0.  1.
         23    2    1    2    0    0  0.90025647484E+02  0.14762266969E+02  0.34159263419E+03  0.36501386569E+03  0.90703101831E+02 0.  0.
          5    1    1    2  502    0 -0.97674019374E+02  0.21122116008E+02  0.37225166648E+02  0.10672180320E+03  0.41800000000E+01 0. -1.
         -5    1    1    2    0  502  0.76483718900E+01 -0.35884382976E+02  0.77867629761E+02  0.86180198994E+02  0.41800000000E+01 0. -1.
        -11    1    3    3    0    0  0.52784891122E+01  0.37732015661E+02  0.71647614400E+02  0.81147693142E+02  0.00000000000E+00 0.  1.
         11    1    3    3    0    0  0.84747158372E+02 -0.22969748692E+02  0.26994501979E+03  0.28386617254E+03  0.00000000000E+00 0. -1.
</event>
<event>
 7    1  0.6145388E-006  0.1270335E+03  0.7561462E-02  0.1231925E+00
          1   -1    0    0  501    0  0.00000000000E+00  0.00000000000E+00  0.13936368709E+03  0.13936368709E+03  0.00000000000E+00 0. -1.
         -1   -1    0    0    0  501 -0.00000000000E+00 -0.00000000000E+00 -0.16022994045E+03  0.16022994045E+03  0.00000000000E+00 0.  1.
         23    2    1    2    0    0  0.20346697814E+02 -0.94545799701E+02  0.23673520763E+02  0.13532304753E+03  0.91646032396E+02 0.  0.
          5    1    1    2  502    0  0.14871025312E+02  0.89338318223E+02  0.17767208432E+02  0.92388465688E+02  0.41800000000E+01 0. -1.
         -5    1    1    2    0  502 -0.35217723126E+02  0.52074814781E+01 -0.62306982553E+02  0.71882114329E+02  0.41800000000E+01 0. -1.
        -11    1    3    3    0    0 -0.22902017229E+02 -0.77932760335E+02 -0.40550956333E+01  0.81329338662E+02  0.00000000000E+00 0.  1.
         11    1    3    3    0    0  0.43248715043E+02 -0.16613039366E+02  0.27728616397E+02  0.53993708866E+02  0.00000000000E+00 0. -1.
</event>
<event>
 7    1  0.6145388E-006  0.1817125E+03  0.7561462E-02  0.1166156E+00
         -3   -1    0    0    0  501 -0.00000000000E+00  0.00000000000E+00  0.46252851439E+03  0.46252851439E+03  0.00000000000E+00 0.  1.
          3   -1    0    0  501    0  0.00000000000E+00 -0.00000000000E+00 -0.12059301292E+03  0.12059301292E+03  0.00000000000E+00 0. -1.
         23    2    1    2    0    0  0.40123447779E+02  0.13643454788E+03 -0.18818143734E+02  0.16978510167E+03  0.90821700588E+02 0.  0.
          5    1    1    2  502    0 -0.83022339464E+02 -0.32596221140E+02  0.16342423467E+03  0.18622614038E+03  0.41800000000E+01 0. -1.
         -5    1    1    2    0  502  0.42898891685E+02 -0.10383832674E+03  0.19732941054E+03  0.22711028527E+03  0.41800000000E+01 0.  1.
        -11    1    3    3    0    0 -0.13171313423E+02  0.90185813357E+02  0.13562839141E+02  0.92146161254E+02  0.00000000000E+00 0.  1.
         11    1    3    3    0    0  0.53294761202E+02  0.46248734522E+02 -0.32380982875E+02  0.77638940413E+02  0.00000000000E+00 0. -1.
</event>
<event>
 7    1  0.6145388E-006  0.1061822E+03  0.7561462E-02  0.1267808E+00
          2   -1    0    0  501    0  0.00000000000E+00  0.00000000000E+00  0.50236607204E+03  0.50236607204E+03  0.00000000000E+00 0. -1.
         -2   -1    0    0    0  501 -0.00000000000E+00 -0.00000000000E+00 -0.31449554199E+02  0.31449554199E+02  0.00000000000E+00 0.  1.
         23    2    1    2    0    0 -0.22542370077E+02  0.37070637360E+02  0.30833924139E+03  0.32415897012E+03  0.90130791223E+02 0.  0.
          5    1    1    2  502    0  0.73345764909E+01  0.44326890886E+02  0.33317215786E+02  0.56090806160E+02  0.41800000000E+01 0. -1.
         -5    1    1    2    0  502  0.15207793586E+02 -0.81397528246E+02  0.12926006067E+03  0.15356584996E+03  0.41800000000E+01 0. -1.
        -11    1    3    3    0    0 -0.96683451489E+01  0.58519849229E+02  0.28062245883E+03  0.28682226910E+03  0.00000000000E+00 0. -1.
         11    1    3    3    0    0 -0.12874024928E+02 -0.21449211869E+02  0.27716782557E+02  0.37336701019E+02  0.00000000000E+00 0.  1.
</event>
<event>
 7    1  0.6145388E-006  0.1586488E+03  0.7561462E-02  0.1190231E+00
         -2   -1    0    0    0  501 -0.00000000000E+00  0.00000000000E+00  0.47339968737E+02  0.47339968737E+02  0.00000000000E+00 0.  1.
          2   -1    0    0  501    0  0.00000000000E+00 -0.00000000000E+00 -0.54991595629E+03  0.54991595629E+03  0.00000000000E+00 0. -1.
         23    2    1    2    0    0 -0.76973518888E+02  0.90229179849E+02 -0.26267794096E+03  0.30184985185E+03  0.89707329081E+02 0.  0.
          5    1    1    2  502    0  0.10921601547E+03 -0.80414645300E+02 -0.21073329823E+03  0.25064047677E+03  0.41800000000E+01 0.  1.
         -5    1    1    2    0  502 -0.32242496580E+02 -0.98145345494E+01 -0.29164748362E+02  0.44765596401E+02  0.41800000000E+01 0.  1.
        -11    1    3    3    0    0 -0.93617980919E+01  0.78459885762E+02 -0.15840661395E+03  0.17702048548E+03  0.00000000000E+00 0. -1.
         11    1    3    3    0    0 -0.67611720796E+02  0.11769294087E+02 -0.10427132701E+03  0.12482936637E+03  0.00000000000E+00 0.  1.
</event>
<event>
 7    1  0.6145388E-006  0.2806796E+03  0.7561462E-02  0.1095318E+00
          1   -1    0    0  501    0  0.00000000000E+00  0.00000000000E+00  0.44136642269E+03  0.44136642269E+03  0.00000000000E+00 0. -1.
         -1   -1    0    0    0  501 -0.00000000000E+00 -0.00000000000E+00 -0.20160929783E+03  0.20160929783E+03  0.00000000000E+00 0.  1.
         23    2    1    2    0    0  0.26056860159E+03 -0.52768071995E+02  0.20362453736E+03  0.34708811754E+03  0.91250992127E+02 0.  0.
          5    1    1    2  502    0 -0.13981337935E+03  0.88295639005E+02  0.20924111250E+01  0.16542596984E+03  0.41800000000E+01 0.  1.
         -5    1    1    2    0  502 -0.12075522224E+03 -0.35527567009E+02  0.34040176380E+02  0.13046163315E+03  0.41800000000E+01 0.  1.
        -11    1    3    3    0    0  0.11735151746E+03  0.67947859723E-01  0.41670150280E+02  0.12453025613E+03  0.00000000000E+00 0.  1.
         11    1    3    3    0    0  0.14321708413E+03 -0.52836019855E+02  0.16195438708E+03  0.22255786141E+03  0.00000000000E+00 0. -1.
</event>
<event>
 7    1  0.6145388E-006  0.1919201E+03  0.7561462E-02  0.1156741E+00
          1   -1    0    0  501    0  0.00000000000E+00  0.00000000000E+00  0.60985068051E+03  0.60985068051E+03  0.00000000000E+00 0. -1.
         -1   -1    0    0    0  501 -0.00000000000E+00 -0.00000000000E+00 -0.98240541717E+02  0.98240541717E+02  0.00000000000E+00 0.  1.
         23    2    1    2    0    0  0.28146032351E+02 -0.17819458297E+03  0.42747921417E+03  0.47299241348E+03  0.91857695010E+02 0.  0.
          5    1    1    2  502    0  0.34607667522E+02  0.55500745443E+02 -0.12516137298E+02  0.66724429476E+02  0.41800000000E+01 0.  1.
         -5    1    1    2    0  502 -0.62753699873E+02  0.12269383753E+03  0.96647061927E+02  0.16837437927E+03  0.41800000000E+01 0.  1.
        -11    1    3    3    0    0  0.24557500648E+02 -0.16088938587E+03  0.42506127182E+03  0.45515442449E+03  0.00000000000E+00 0. -1.
         11    1    3    3    0    0  0.35885317030E+01 -0.17305197096E+02  0.24179423420E+01  0.17837988997E+02  0.00000000000E+00 0.  1.
</event>
<event>
 7    1  0.6145388E-006  0.9064915E+02  0.7561462E-02  0.1301287E+00
          1   -1    0    0  501    0  0.00000000000E+00  0.00000000000E+00  0.67407906574E+03  0.67407906574E+03  0.00000000000E+00 0. -1.
         -1   -1    0    0    0  501 -0.00000000000E+00 -0.00000000000E+00 -0.24009589850E+02  0.24009589850E+02  0.00000000000E+00 0.  1.
         23    2    1    2    0    0  0.28190620075E+02 -0.59828015780E+02  0.29256628258E+03  0.31360179240E+03  0.91525690196E+02 0.  0.
          5    1    1    2  502    0  0.55909112002E+01  0.52144729748E+02  0.34247591965E+03  0.34649323092E+03  0.41800000000E+01 0.  1.
         -5    1    1    2    0  502 -0.33781531276E+02  0.76832860321E+01  0.15027273665E+02  0.37993632274E+02  0.41800000000E+01 0.  1.
        -11    1    3    3    0    0  0.23827514311E+01  0.14716070475E+02  0.54934026973E+01  0.15887658978E+02  0.00000000000E+00 0.  1.
         11    1    3    3    0    0  0.25807868644E+02 -0.74544086254E+02  0.28707287988E+03  0.29771413343E+03  0.00000000000E+00 0. -1.
</event>
<event>
 7    1  0.8884389E-006  0.2144503E+03  0.7561462E-02  0.1138090E+00
          1   -1    0    0  501    0  0.00000000000E+00  0.00000000000E+00  0.23820655901E+04  0.23820655901E+04  0.00000000000E+00 0. -1.
         -1   -1    0    0    0  501 -0.00000000000E+00 -0.00000000000E+00 -0.22779269217E+02  0.22779269217E+02  0.00000000000E+00 0.  1.
         23    2    1    2    0    0 -0.68651441083E+02  0.19273814886E+03  0.10141013986E+04  0.10384514850E+04  0.90104526041E+02 0.  0.
          5    1    1    2  502    0  0.23866207549E+01 -0.75518826232E+02  0.20952953769E+03  0.22277542198E+03  0.41800000000E+01 0.  1.
         -5    1    1    2    0  502  0.66264820328E+02 -0.11721932263E+03  0.11356553846E+04  0.11436179524E+04  0.41800000000E+01 0.  1.
        -11    1    3    3    0    0 -0.97031346495E+01  0.13712942409E+03  0.52596120637E+03  0.54363022394E+03  0.00000000000E+00 0. -1.
         11    1    3    3    0    0 -0.58948306433E+02  0.55608724770E+02  0.48814019225E+03  0.49482126105E+03  0.00000000000E+00 0.  1.
</event>
<event>
 7    1  0.6145388E-006  0.1533422E+03  0.7561462E-02  0.1196425E+00
         -2   -1    0    0    0  501 -0.00000000000E+00  0.00000000000E+00  0.34746475150E+02  0.34746475150E+02  0.00000000000E+00 0.  1.
          2   -1    0    0  501    0  0.00000000000E+00 -0.00000000000E+00 -0.82577269755E+03  0.82577269755E+03  0.00000000000E+00 0. -1.
         23    2    1    2    0    0  0.24074146350E+02 -0.11989650000E+03 -0.48440453029E+03  0.50750482874E+03  0.89211361389E+02 0.  0.
          5    1    1    2  502    0 -0.69204704620E+02  0.10746383210E+03 -0.22046085582E+03  0.25486904030E+03  0.41800000000E+01 0. -1.
         -5    1    1    2    0  502  0.45130558270E+02  0.12432667899E+02 -0.86160836290E+02  0.98145303663E+02  0.41800000000E+01 0. -1.
        -11    1    3    3    0    0 -0.15312077423E+02 -0.35713206710E+02 -0.50291525974E+02  0.63554153549E+02  0.00000000000E+00 0.  1.
         11    1    3    3    0    0  0.39386223773E+02 -0.84183293287E+02 -0.43411300431E+03  0.44395067519E+03  0.00000000000E+00 0. -1.
</event>
<event>
 7    1  0.6145388E-006  0.9693198E+02  0.7561462E-02  0.1286883E+00
          1   -1    0    0  501    0  0.00000000000E+00  0.00000000000E+00  0.38695576436E+02  0.38695576436E+02  0.00000000000E+00 0. -1.
         -1   -1    0    0    0  501 -0.00000000000E+00 -0.00000000000E+00 -0.32958723286E+03  0.32958723286E+03  0.00000000000E+00 0.  1.
         23    2    1    2    0    0 -0.15374410459E+02  0.16808946580E+02 -0.77355927140E+02  0.11975974683E+03  0.88541201222E+02 0.  0.
          5    1    1    2  502    0  0.69043968075E+02  0.29971639931E+01 -0.12820249580E+03  0.14570313946E+03  0.41800000000E+01 0. -1.
         -5    1    1    2    0  502 -0.53669557616E+02 -0.19806110574E+02 -0.85333233491E+02  0.10281992302E+03  0.41800000000E+01 0. -1.
        -11    1    3    3    0    0 -0.15392900658E+02 -0.22882006099E+02 -0.75101554707E+02  0.80004819312E+02  0.00000000000E+00 0.  1.
         11    1    3    3    0    0  0.18490199230E-01  0.39690952680E+02 -0.22543724328E+01  0.39754927513E+02  0.00000000000E+00 0. -1.
</event>
<event>
 7    1  0.6145388E-006  0.1360689E+03  0.7561462E-02  0.1218719E+00
         -1   -1    0    0    0  501 -0.00000000000E+00  0.00000000000E+00  0.75877065716E+02  0.75877065716E+02  0.00000000000E+00 0.  1.
          1   -1    0    0  501    0  0.00000000000E+00 -0.00000000000E+00 -0.28340098335E+03  0.28340098335E+03  0.00000000000E+00 0. -1.
         23    2    1    2    0    0 -0.32396560236E+02  0.83196700060E+02 -0.13744739141E+03  0.19037044591E+03  0.96839523199E+02 0.  0.
          5    1    1    2  502    0  0.71716695002E+02 -0.36485252201E+02 -0.71453124767E+02  0.10769159396E+03  0.41800000000E+01 0.  1.
         -5    1    1    2    0  502 -0.39320134767E+02 -0.46711447859E+02  0.13765985405E+01  0.61216009202E+02  0.41800000000E+01 0.  1.
        -11    1    3    3    0    0 -0.60881923350E+02  0.25474601783E+02 -0.55966520522E+02  0.86532163651E+02  0.00000000000E+00 0. -1.
         11    1    3    3    0    0  0.28485363114E+02  0.57722098277E+02 -0.81480870886E+02  0.10383828225E+03  0.00000000000E+00 0.  1.
</event>
<event>
 7    1  0.6145388E-006  0.1072942E+03  0.7561462E-02  0.1265664E+00
         -4   -1    0    0    0  501 -0.00000000000E+00  0.00000000000E+00  0.40516063328E+02  0.40516063328E+02  0.00000000000E+00 0.  1.
          4   -1    0    0  501    0  0.00000000000E+00 -0.00000000000E+00 -0.32264440460E+03  0.32264440460E+03  0.00000000000E+00 0. -1.
         23    2    1    2    0    0  0.30390318782E+02  0.16092278406E+02 -0.13959079455E+03  0.17042872190E+03  0.91530467206E+02 0.  0.
          5    1    1    2  502    0 -0.64784066000E+02 -0.43477938703E+02 -0.57841782816E+02  0.97213428088E+02  0.41800000000E+01 0. -1.
         -5    1    1    2    0  502  0.34393747218E+02  0.27385660297E+02 -0.84695763912E+02  0.95518317941E+02  0.41800000000E+01 0. -1.
        -11    1    3    3    0    0 -0.27025816340E+02  0.21621547490E+02 -0.26905684825E+02  0.43838361518E+02  0.00000000000E+00 0.  1.
         11    1    3    3    0    0  0.57416135122E+02 -0.55292690841E+01 -0.11268510972E+03  0.12659036039E+03  0.00000000000E+00 0. -1.
</event>
<event>
 7    1  0.6145388E-006  0.8216518E+02  0.7561462E-02  0.1323017E+00
         -2   -1    0    0    0  501 -0.00000000000E+00  0.00000000000E+00  0.19124040930E+03  0.19124040930E+03  0.00000000000E+00 0.  1.
          2   -1    0    0  501    0  0.00000000000E+00 -0.00000000000E+00 -0.91127641766E+02  0.91127641766E+02  0.00000000000E+00 0. -1.
         23    2    1    2    0    0  0.60671618887E+02 -0.45304053120E+02  0.65196625584E+02  0.13204013051E+03  0.86316241284E+02 0.  0.
          5    1    1    2  502    0 -0.33013675311E+02  0.12322295260E+02  0.80206940822E+02  0.87706142738E+02  0.41800000000E+01 0.  1.
         -5    1    1    2    0  502 -0.27657943577E+02  0.32981757861E+02 -0.45290798874E+02  0.62621777818E+02  0.41800000000E+01 0.  1.
        -11    1    3    3    0    0  0.30730646216E+02  0.66614756255E+00 -0.15528420222E+02  0.34437598698E+02  0.00000000000E+00 0. -1.
         11    1    3    3    0    0  0.29940972671E+02 -0.45970200683E+02  0.80725045806E+02  0.97602531810E+02  0.00000000000E+00 0.  1.
</event>
<event>
 7    1  0.6145388E-006  0.1232827E+03  0.7561462E-02  0.1237778E+00
          1   -1    0    0  501    0  0.00000000000E+00  0.00000000000E+00  0.84364355652E+02  0.84364355652E+02  0.00000000000E+00 0. -1.
         -1   -1    0    0    0  501 -0.00000000000E+00 -0.00000000000E+00 -0.19141419054E+03  0.19141419054E+03  0.00000000000E+00 0.  1.
         23    2    1    2    0    0  0.23645870806E+02  0.58526173939E+02 -0.32561258895E+02  0.11709052232E+03  0.93088745796E+02 0.  0.
          5    1    1    2  502    0 -0.32275326199E+02  0.33834938141E+02 -0.20044234005E+02  0.51046483102E+02  0.41800000000E+01 0.  1.
         -5    1    1    2    0  502  0.86294553932E+01 -0.92361112080E+02 -0.54444341986E+02  0.10764154077E+03  0.41800000000E+01 0.  1.
        -11    1    3    3    0    0 -0.32749800864E+02  0.18599669534E+02 -0.29645257108E+02  0.47930558441E+02  0.00000000000E+00 0.  1.
         11    1    3    3    0    0  0.56395671671E+02  0.39926504404E+02 -0.29160017869E+01  0.69159963878E+02  0.00000000000E+00 0. -1.
</event>
<event>
 7    1  0.6145388E-006  0.1634915E+03  0.7561462E-02  0.1184810E+00
          1   -1    0    0  501    0  0.00000000000E+00  0.00000000000E+00  0.43553419477E+03  0.43553419477E+03  0.00000000000E+00 0. -1.
         -1   -1    0    0    0  501 -0.00000000000E+00 -0.00000000000E+00 -0.12288795005E+03  0.12288795005E+03  0.00000000000E+00 0.  1.
         23    2    1    2    0    0  0.15805010380E+03 -0.26730109343E+02  0.30111256124E+03  0.35476845491E+03  0.97455364194E+02 0.  0.
          5    1    1    2  502    0 -0.48518629710E+02  0.67694843557E+01 -0.55089938362E+02  0.73839400432E+02  0.41800000000E+01 0.  1.
         -5    1    1    2    0  502 -0.10953147408E+03  0.19960624987E+02  0.66623621849E+02  0.12981428948E+03  0.41800000000E+01 0.  1.
        -11    1    3    3    0    0  0.10180403021E+03  0.48086161715E+01  0.25745749785E+03  0.27689627400E+03  0.00000000000E+00 0. -1.
         11    1    3    3    0    0  0.56246073580E+02 -0.31538725514E+02  0.43655063390E+02  0.77872180911E+02  0.00000000000E+00 0.  1.
</event>
<event>
 7    1  0.6145388E-006  0.1173407E+03  0.7561462E-02  0.1247550E+00
         -2   -1    0    0    0  501 -0.00000000000E+00  0.00000000000E+00  0.41545108006E+02  0.41545108006E+02  0.00000000000E+00 0.  1.
          2   -1    0    0  501    0  0.00000000000E+00 -0.00000000000E+00 -0.53141221380E+03  0.53141221380E+03  0.00000000000E+00 0. -1.
         23    2    1    2    0    0  0.55130769653E+02 -0.80443282003E+02 -0.27649043459E+03  0.30708462342E+03  0.91342663298E+02 0.  0.
          5    1    1    2  502    0 -0.58840551445E+02  0.78778443704E+02 -0.66265225653E+02  0.11864571723E+03  0.41800000000E+01 0.  1.
         -5    1    1    2    0  502  0.37097817919E+01  0.16648382989E+01 -0.14711144555E+03  0.14722698116E+03  0.41800000000E+01 0.  1.
        -11    1    3    3    0    0  0.55712438310E+02 -0.60519235051E+01 -0.86700193440E+02  0.10323480568E+03  0.00000000000E+00 0. -1.
         11    1    3    3    0    0 -0.58166865696E+00 -0.74391358498E+02 -0.18979024115E+03  0.20384981774E+03  0.00000000000E+00 0.  1.
</event>
<event>
 7    1  0.6145388E-006  0.1179481E+03  0.7561462E-02  0.1246521E+00
         -1   -1    0    0    0  501 -0.00000000000E+00  0.00000000000E+00  0.43319036285E+02  0.43319036285E+02  0.00000000000E+00 0.  1.
          1   -1    0    0  501    0  0.00000000000E+00 -0.00000000000E+00 -0.44306495085E+03  0.44306495085E+03  0.00000000000E+00 0. -1.
         23    2    1    2    0    0 -0.78488413441E+02  0.19552316733E+02 -0.22854599874E+03  0.25945297929E+03  0.92411313105E+02 0.  0.
          5    1    1    2  502    0 -0.22093912138E+02 -0.63187572574E+01 -0.10056838093E+03  0.10324504487E+03  0.41800000000E+01 0. -1.
         -5    1    1    2    0  502  0.10058232558E+03 -0.13233559476E+02 -0.70631534897E+02  0.12368596297E+03  0.41800000000E+01 0. -1.
        -11    1    3    3    0    0 -0.16397828066E+02  0.41915656021E+02 -0.41939039286E+02  0.61519866720E+02  0.00000000000E+00 0.  1.
         11    1    3    3    0    0 -0.62090585375E+02 -0.22363339288E+02 -0.18660695945E+03  0.19793311257E+03  0.00000000000E+00 0. -1.
</event>
<event>
 7    1  0.6145388E-006  0.1416410E+03  0.7561462E-02  0.1211138E+00
         -2   -1    0    0    0  501 -0.00000000000E+00  0.00000000000E+00  0.28329425311E+03  0.28329425311E+03  0.00000000000E+00 0. -1.
          2   -1    0    0  501    0  0.00000000000E+00 -0.00000000000E+00 -0.98389239624E+02  0.98389239624E+02  0.00000000000E+00 0.  1.
         23    2    1    2    0    0 -0.11184919984E+03  0.26665578903E+02  0.25609607204E+02  0.14878023801E+03  0.90875797868E+02 0.  0.
          5    1    1    2  502    0  0.11481353460E+03 -0.56574449457E+02  0.15680697765E+03  0.20245670327E+03  0.41800000000E+01 0. -1.
         -5    1    1    2    0  502 -0.29643347546E+01  0.29908870554E+02  0.24884286353E+01  0.30446551454E+02  0.41800000000E+01 0. -1.
        -11    1    3    3    0    0 -0.50886711058E+02 -0.12518875525E+02 -0.27264513727E+02  0.59072271968E+02  0.00000000000E+00 0.  1.
         11    1    3    3    0    0 -0.60962488787E+02  0.39184454428E+02  0.52874120930E+02  0.89707966046E+02  0.00000000000E+00 0. -1.
</event>
<event>
 7    1  0.6145388E-006  0.1112226E+03  0.7561462E-02  0.1258322E+00
         -1   -1    0    0    0  501 -0.00000000000E+00  0.00000000000E+00  0.24591897872E+02  0.24591897872E+02  0.00000000000E+00 0.  1.
          1   -1    0    0  501    0  0.00000000000E+00 -0.00000000000E+00 -0.58573920306E+03  0.58573920306E+03  0.00000000000E+00 0. -1.
         23    2    1    2    0    0  0.37425612985E+02 -0.32540534115E+02 -0.28406854349E+03  0.30230562303E+03  0.90742434661E+02 0.  0.
          5    1    1    2  502    0 -0.30090999499E+02  0.74236499844E+02 -0.23448676042E+03  0.24782663168E+03  0.41800000000E+01 0. -1.
         -5    1    1    2    0  502 -0.73346134857E+01 -0.41695965728E+02 -0.42592001284E+02  0.60198846221E+02  0.41800000000E+01 0. -1.
        -11    1    3    3    0    0 -0.17623785193E+02 -0.40406231288E+02 -0.86847683949E+02  0.97394976969E+02  0.00000000000E+00 0.  1.
         11    1    3    3    0    0  0.55049398178E+02  0.78656971732E+01 -0.19722085954E+03  0.20491064606E+03  0.00000000000E+00 0. -1.
</event>
<event>
 7    1  0.6145388E-006  0.8902056E+02  0.7561462E-02  0.1305241E+00
         -2   -1    0    0    0  501 -0.00000000000E+00  0.00000000000E+00  0.19378569756E+02  0.19378569756E+02  0.00000000000E+00 0.  1.
          2   -1    0    0  501    0  0.00000000000E+00 -0.00000000000E+00 -0.67193911445E+03  0.67193911445E+03  0.00000000000E+00 0. -1.
         23    2    1    2    0    0  0.30459716869E+02  0.28969068720E+02 -0.26275200379E+03  0.27978023054E+03  0.86437032646E+02 0.  0.
          5    1    1    2  502    0 -0.48166892318E+01 -0.58487748441E+02 -0.80332890681E+02  0.99573404773E+02  0.41800000000E+01 0. -1.
         -5    1    1    2    0  502 -0.25643027637E+02  0.29518679721E+02 -0.30947565023E+03  0.31196404889E+03  0.41800000000E+01 0. -1.
        -11    1    3    3    0    0 -0.20061943906E+02 -0.27192479065E+01 -0.15665400008E+02  0.25598450341E+02  0.00000000000E+00 0.  1.
         11    1    3    3    0    0  0.50521660775E+02  0.31688316627E+02 -0.24708660378E+03  0.25418178020E+03  0.00000000000E+00 0. -1.
</event>
<event>
 7    1  0.6145388E-006  0.1122060E+03  0.7561462E-02  0.1256538E+00
          2   -1    0    0  501    0  0.00000000000E+00  0.00000000000E+00  0.35086030102E+03  0.35086030102E+03  0.00000000000E+00 0. -1.
         -2   -1    0    0    0  501 -0.00000000000E+00 -0.00000000000E+00 -0.50708715787E+02  0.50708715787E+02  0.00000000000E+00 0.  1.
         23    2    1    2    0    0  0.27091408840E+01  0.76392532666E+02  0.14537104983E+03  0.18838548770E+03  0.92266957010E+02 0.  0.
          5    1    1    2  502    0  0.51284877292E+02 -0.44339375527E+01  0.31441341805E+02  0.60463450245E+02  0.41800000000E+01 0. -1.
         -5    1    1    2    0  502 -0.53994018176E+02 -0.71958595114E+02  0.12333919359E+03  0.15272007886E+03  0.41800000000E+01 0. -1.
        -11    1    3    3    0    0  0.16938934130E+02  0.48873899059E+02  0.14849711044E+03  0.15724813929E+03  0.00000000000E+00 0. -1.
         11    1    3    3    0    0 -0.14229793246E+02  0.27518633607E+02 -0.31260606120E+01  0.31137348416E+02  0.00000000000E+00 0.  1.
</event>
<event>
 7    1  0.6145388E-006  0.9510398E+02  0.7561462E-02  0.1290942E+00
         -1   -1    0    0    0  501 -0.00000000000E+00  0.00000000000E+00  0.39668898204E+02  0.39668898204E+02  0.00000000000E+00 0.  1.
          1   -1    0    0  501    0  0.00000000000E+00 -0.00000000000E+00 -0.27045171720E+03  0.27045171720E+03  0.00000000000E+00 0. -1.
         23    2    1    2    0    0 -0.67883925478E+01 -0.12299692644E+02 -0.13039778050E+03  0.15953552217E+03  0.90833016928E+02 0.  0.
          5    1    1    2  502    0 -0.44551629340E+02  0.34086635976E+02 -0.52891252362E+02  0.77212067745E+02  0.41800000000E+01 0. -1.
         -5    1    1    2    0  502  0.51340021888E+02 -0.21786943332E+02 -0.47493786137E+02  0.73373025485E+02  0.41800000000E+01 0.  1.
        -11    1    3    3    0    0  0.34948386044E+02 -0.94037452845E+01 -0.19722167017E+02  0.41216307262E+02  0.00000000000E+00 0.  1.
         11    1    3    3    0    0 -0.41736778591E+02 -0.28959473595E+01 -0.11067561348E+03  0.11831921491E+03  0.00000000000E+00 0. -1.
</event>
<event>
 7    1  0.6145388E-006  0.1304041E+03  0.7561462E-02  0.1226857E+00
          2   -1    0    0  501    0  0.00000000000E+00  0.00000000000E+00  0.66456633988E+02  0.66456633988E+02  0.00000000000E+00 0. -1.
         -2   -1    0    0    0  501 -0.00000000000E+00 -0.00000000000E+00 -0.31334048068E+03  0.31334048068E+03  0.00000000000E+00 0.  1.
         23    2    1    2    0    0 -0.77470944863E+01  0.93120998822E+02 -0.10063714224E+03  0.16586277046E+03  0.93011216164E+02 0.  0.
          5    1    1    2  502    0  0.15034414551E+02 -0.11780360932E+03 -0.81390280845E+02  0.14403323994E+03  0.41800000000E+01 0.  1.
         -5    1    1    2    0  502 -0.72873200651E+01  0.24682610502E+02 -0.64856423610E+02  0.69901104272E+02  0.41800000000E+01 0.  1.
        -11    1    3    3    0    0 -0.38098996294E+02  0.59036335819E+02 -0.97413470390E+02  0.12010914486E+03  0.00000000000E+00 0.  1.
         11    1    3    3    0    0  0.30351901808E+02  0.34084663004E+02 -0.32236718479E+01  0.45753625601E+02  0.00000000000E+00 0. -1.
</event>
<event>
 7    1  0.6145388E-006  0.1235484E+03  0.7561462E-02  0.1237355E+00
         -1   -1    0    0    0  501 -0.00000000000E+00  0.00000000000E+00  0.18199451843E+03  0.18199451843E+03  0.00000000000E+00 0.  1.
          1   -1    0    0  501    0  0.00000000000E+00 -0.00000000000E+00 -0.15209005539E+03  0.15209005539E+03  0.00000000000E+00 0. -1.
         23    2    1    2    0    0  0.58271045751E+02 -0.71183714859E+02 -0.72450567793E+02  0.14811033955E+03  0.90691520416E+02 0.  0.
          5    1    1    2  502    0  0.39152881164E+02  0.28670713861E+02  0.27944867598E+02  0.56154661087E+02  0.41800000000E+01 0. -1.
         -5    1    1    2    0  502 -0.97423926916E+02  0.42513000998E+02  0.74410163235E+02  0.12981957319E+03  0.41800000000E+01 0. -1.
        -11    1    3    3    0    0  0.17022104023E+02 -0.19476814275E+02 -0.77568960493E+02  0.81768220915E+02  0.00000000000E+00 0. -1.
         11    1    3    3    0    0  0.41248941728E+02 -0.51706900584E+02  0.51183927001E+01  0.66342118639E+02  0.00000000000E+00 0.  1.
</event>
<event>
 7    1  0.6145388E-006  0.3956132E+03  0.7561462E-02  0.1045309E+00
         -2   -1    0    0    0  501 -0.00000000000E+00  0.00000000000E+00  0.87698459445E+03  0.87698459445E+03  0.00000000000E+00 0.  1.
          2   -1    0    0  501    0  0.00000000000E+00 -0.00000000000E+00 -0.19126798584E+03  0.19126798584E+03  0.00000000000E+00 0. -1.
         23    2    1    2    0    0  0.34905783646E+03  0.16149716483E+03  0.45295269843E+03  0.60161405662E+03  0.94077726698E+02 0.  0.
          5    1    1    2  502    0 -0.20480795310E+03 -0.27511077844E+02  0.13412773052E+03  0.24639577422E+03  0.41800000000E+01 0.  1.
         -5    1    1    2    0  502 -0.14424988335E+03 -0.13398608699E+03  0.98636179654E+02  0.22024274946E+03  0.41800000000E+01 0.  1.
        -11    1    3    3    0    0  0.19107277421E+03  0.11465457596E+03  0.31969622686E+03  0.38969238419E+03  0.00000000000E+00 0.  1.
         11    1    3    3    0    0  0.15798506225E+03  0.46842588872E+02  0.13325647158E+03  0.21192167243E+03  0.00000000000E+00 0. -1.
</event>
<event>
 7    1  0.6145388E-006  0.1182741E+03  0.7561462E-02  0.1245972E+00
          2   -1    0    0  501    0  0.00000000000E+00  0.00000000000E+00  0.52482725005E+03  0.52482725005E+03  0.00000000000E+00 0. -1.
         -2   -1    0    0    0  501 -0.00000000000E+00 -0.00000000000E+00 -0.29334185282E+02  0.29334185282E+02  0.00000000000E+00 0.  1.
         23    2    1    2    0    0  0.14024142825E+02  0.49229714072E+02  0.29354843477E+03  0.31116062416E+03  0.89610318277E+02 0.  0.
          5    1    1    2  502    0 -0.15041778984E+01 -0.90877178053E+02  0.12656064074E+03  0.15587171721E+03  0.41800000000E+01 0.  1.
         -5    1    1    2    0  502 -0.12519964927E+02  0.41647463981E+02  0.75383989252E+02  0.87129093955E+02  0.41800000000E+01 0.  1.
        -11    1    3    3    0    0  0.48266185427E+02  0.90938133652E+01  0.11680965187E+03  0.12671549577E+03  0.00000000000E+00 0. -1.
         11    1    3    3    0    0 -0.34242042602E+02  0.40135900707E+02  0.17673878289E+03  0.18444512839E+03  0.00000000000E+00 0.  1.
</event>
<event>
 7    1  0.6145388E-006  0.1231503E+03  0.7561462E-02  0.1237989E+00
          1   -1    0    0  501    0  0.00000000000E+00  0.00000000000E+00  0.66880041451E+03  0.66880041451E+03  0.00000000000E+00 0. -1.
         -1   -1    0    0    0  501 -0.00000000000E+00 -0.00000000000E+00 -0.23932847007E+02  0.23932847007E+02  0.00000000000E+00 0.  1.
         23    2    1    2    0    0  0.11581858995E+02 -0.62040945040E+02  0.33531211616E+03  0.35294830687E+03  0.90305447010E+02 0.  0.
          5    1    1    2  502    0  0.28423578815E+02 -0.28229736946E+02  0.10896743326E+03  0.11617311131E+03  0.41800000000E+01 0.  1.
         -5    1    1    2    0  502 -0.40005437810E+02  0.90270681986E+02  0.20058801809E+03  0.22361184334E+03  0.41800000000E+01 0.  1.
        -11    1    3    3    0    0  0.31896890287E+02 -0.76084207684E+02  0.21854827261E+03  0.23360129650E+03  0.00000000000E+00 0.  1.
         11    1    3    3    0    0 -0.20315031292E+02  0.14043262644E+02  0.11676384355E+03  0.11934701037E+03  0.00000000000E+00 0. -1.
</event>
<event>
 7    1  0.6145388E-006  0.1114085E+03  0.7561462E-02  0.1257984E+00
          2   -1    0    0  501    0  0.00000000000E+00  0.00000000000E+00  0.39305401011E+02  0.39305401011E+02  0.00000000000E+00 0. -1.
         -2   -1    0    0    0  501 -0.00000000000E+00 -0.00000000000E+00 -0.34813777816E+03  0.34813777816E+03  0.00000000000E+00 0.  1.
         23    2    1    2    0    0  0.32412163225E+02  0.27902247945E+02 -0.10647996818E+03  0.14573366416E+03  0.89840043863E+02 0.  0.
          5    1    1    2  502    0  0.46351609744E+02 -0.11564114723E+02 -0.10443253866E+03  0.11491661327E+03  0.41800000000E+01 0.  1.
         -5    1    1    2    0  502 -0.78763772968E+02 -0.16338133223E+02 -0.97919870310E+02  0.12679290174E+03  0.41800000000E+01 0.  1.
        -11    1    3    3    0    0  0.31733616904E+02 -0.25621078613E+02 -0.23748689743E+02  0.47195999572E+02  0.00000000000E+00 0. -1.
         11    1    3    3    0    0  0.67854632022E+00  0.53523326559E+02 -0.82731278437E+02  0.98537664590E+02  0.00000000000E+00 0.  1.
</event>
<event>
 7    1  0.6145388E-006  0.9937192E+02  0.7561462E-02  0.1281622E+00
          1   -1    0    0  501    0  0.00000000000E+00  0.00000000000E+00  0.15931825950E+03  0.15931825950E+03  0.00000000000E+00 0. -1.
         -1   -1    0    0    0  501 -0.00000000000E+00 -0.00000000000E+00 -0.12263526906E+03  0.12263526906E+03  0.00000000000E+00 0.  1.
         23    2    1    2    0    0 -0.68033021304E+02  0.10906254646E+02  0.73010205248E+02  0.13459478751E+03  0.89653936759E+02 0.  0.
          5    1    1    2  502    0  0.71653865884E+02 -0.50343244747E+02 -0.54874829233E+02  0.10342842004E+03  0.41800000000E+01 0.  1.
         -5    1    1    2    0  502 -0.36208445807E+01  0.39436990101E+02  0.18547614426E+02  0.43930321016E+02  0.41800000000E+01 0.  1.
        -11    1    3    3    0    0 -0.47366534992E+02  0.15944803892E+02 -0.81985819524E+01  0.50646245215E+02  0.00000000000E+00 0.  1.
         11    1    3    3    0    0 -0.20666486311E+02 -0.50385492458E+01  0.81208787200E+02  0.83948542295E+02  0.00000000000E+00 0. -1.
</event>
<event>
 6    1  0.6145388E-006  0.1534520E+03  0.7561462E-02  0.1196294E+00
         -2   -1    0    0    0  501 -0.00000000000E+00  0.00000000000E+00  0.99510494803E+02  0.99510494803E+02  0.00000000000E+00 0. -1.
          2   -1    0    0  501    0  0.00000000000E+00 -0.00000000000E+00 -0.59984392496E+03  0.59984392496E+03  0.00000000000E+00 0.  1.
          5    1    1    2  502    0  0.18146432438E+02 -0.19062737413E+02  0.38107059087E+02  0.46500551827E+02  0.41800000000E+01 0.  1.
         -5    1    1    2    0  502  0.11315096178E+03  0.69787798594E+02 -0.50298703007E+02  0.14220024230E+03  0.41800000000E+01 0.  1.
        -11    1    1    2    0    0 -0.95617660313E+02 -0.15054180428E+02 -0.36402635492E+03  0.37667565940E+03  0.00000000000E+00 0.  1.
         11    1    1    2    0    0 -0.35679733908E+02 -0.35670880753E+02 -0.12411543132E+03  0.13397796624E+03  0.00000000000E+00 0. -1.
</event>
<event>
 7    1  0.6145388E-006  0.2103493E+03  0.7561462E-02  0.1141290E+00
          2   -1    0    0  501    0  0.00000000000E+00  0.00000000000E+00  0.89608876960E+03  0.89608876960E+03  0.00000000000E+00 0. -1.
         -2   -1    0    0    0  501 -0.00000000000E+00 -0.00000000000E+00 -0.64651270258E+02  0.64651270258E+02  0.00000000000E+00 0.  1.
         23    2    1    2    0    0 -0.13782702570E+03  0.15505951014E+03  0.50943392470E+03  0.55778377722E+03  0.92520688463E+02 0.  0.
          5    1    1    2  502    0  0.27333052323E+02 -0.64731101058E+02  0.21001799388E+03  0.22149998047E+03  0.41800000000E+01 0. -1.
         -5    1    1    2    0  502  0.11049397338E+03 -0.90328409085E+02  0.11198558076E+03  0.18145628217E+03  0.41800000000E+01 0. -1.
        -11    1    3    3    0    0 -0.10077316008E+03  0.10970395216E+03  0.45135617896E+03  0.47530262696E+03  0.00000000000E+00 0. -1.
         11    1    3    3    0    0 -0.37053865616E+02  0.45355557984E+02  0.58077745738E+02  0.82481150253E+02  0.00000000000E+00 0.  1.
</event>
<event>
 7    1  0.6145388E-006  0.1387289E+03  0.7561462E-02  0.1215050E+00
         -2   -1    0    0    0  501 -0.00000000000E+00  0.00000000000E+00  0.26622254244E+02  0.26622254244E+02  0.00000000000E+00 0. -1.
          2   -1    0    0  501    0  0.00000000000E+00 -0.00000000000E+00 -0.83369246214E+03  0.83369246214E+03  0.00000000000E+00 0.  1.
         23    2    1    2    0    0 -0.70897299814E+02 -0.65898816536E+02 -0.46059683095E+03  0.47944621415E+03  0.91379157628E+02 0.  0.
          5    1    1    2  502    0  0.93075788835E+02  0.12376455905E+02 -0.16006127860E+03  0.18561617503E+03  0.41800000000E+01 0.  1.
         -5    1    1    2    0  502 -0.22178489021E+02  0.53522360631E+02 -0.18641209835E+03  0.19525232719E+03  0.41800000000E+01 0.  1.
        -11    1    3    3    0    0 -0.33404869915E+02  0.14696242089E+02 -0.70912348239E+02  0.79752278954E+02  0.00000000000E+00 0. -1.
         11    1    3    3    0    0 -0.37492429899E+02 -0.80595058624E+02 -0.38968448271E+03  0.39969393520E+03  0.00000000000E+00 0.  1.
</event>
<event>
 7    1  0.6145388E-006  0.1078225E+03  0.7561462E-02  0.1264656E+00
          1   -1    0    0  501    0  0.00000000000E+00  0.00000000000E+00  0.10472183549E+03  0.10472183549E+03  0.00000000000E+00 0.  1.
         -1   -1    0    0    0  501 -0.00000000000E+00 -0.00000000000E+00 -0.14040961754E+03  0.14040961754E+03  0.00000000000E+00 0. -1.
         23    2    1    2    0    0 -0.26960618344E+02 -0.22427966968E+02  0.25707702018E+02  0.10144103059E+03  0.91648830327E+02 0.  0.
          5    1    1    2  502    0  0.73589618716E+02  0.14566049374E+02 -0.60079032176E+02  0.96200645966E+02  0.41800000000E+01 0. -1.
         -5    1    1    2    0  502 -0.46629000372E+02  0.78619175942E+01 -0.13164518995E+01  0.47489776474E+02  0.41800000000E+01 0. -1.
        -11    1    3    3    0    0 -0.23913958411E+02 -0.55183825297E+02  0.74879085335E+00  0.60147258201E+02  0.00000000000E+00 0. -1.
         11    1    3    3    0    0 -0.30466599327E+01  0.32755858329E+02  0.24958911165E+02  0.41293772389E+02  0.00000000000E+00 0.  1.
</event>
<event>
 7    1  0.6145388E-006  0.2724149E+03  0.7561462E-02  0.1099905E+00
          2   -1    0    0  501    0  0.00000000000E+00  0.00000000000E+00  0.11080260111E+04  0.11080260111E+04  0.00000000000E+00 0. -1.
         -2   -1    0    0    0  501 -0.00000000000E+00 -0.00000000000E+00 -0.70585708597E+02  0.70585708597E+02  0.00000000000E+00 0.  1.
         23    2    1    2    0    0  0.25060382216E+02  0.25513890732E+03  0.46704978222E+03  0.54086822196E+03  0.93161417269E+02 0.  0.
          5    1    1    2  502    0  0.34658333735E+02 -0.19359008378E+03  0.35477354133E+03  0.40566002842E+03  0.41800000000E+01 0. -1.
         -5    1    1    2    0  502 -0.59718715952E+02 -0.61548823539E+02  0.21561697896E+03  0.23208346931E+03  0.41800000000E+01 0. -1.
        -11    1    3    3    0    0 -0.15961486621E+02  0.11917213155E+03  0.14147707152E+03  0.18566778869E+03  0.00000000000E+00 0.  1.
         11    1    3    3    0    0  0.41021868837E+02  0.13596677577E+03  0.32557271070E+03  0.35520043326E+03  0.00000000000E+00 0. -1.
</event>
<event>
 7    1  0.6145388E-006  0.1588301E+03  0.7561462E-02  0.1190024E+00
          3   -1    0    0  501    0  0.00000000000E+00  0.00000000000E+00  0.37478961786E+03  0.37478961786E+03  0.00000000000E+00 0. -1.
         -3   -1    0    0    0  501 -0.00000000000E+00 -0.00000000000E+00 -0.92772566139E+02  0.92772566139E+02  0.00000000000E+00 0.  1.
         23    2    1    2    0    0  0.12130171338E+03  0.30676022734E+02  0.24029268208E+03  0.28578157838E+03  0.90969299425E+02 0.  0.
          5    1    1    2  502    0 -0.14664432584E+03 -0.17987173787E+02  0.29946616452E+02  0.15080573251E+03  0.41800000000E+01 0.  1.
         -5    1    1    2    0  502  0.25342612458E+02 -0.12688848947E+02  0.11777753185E+02  0.30974873105E+02  0.41800000000E+01 0.  1.
        -11    1    3    3    0    0  0.72787117516E+02  0.50721664503E+02  0.20255487625E+03  0.22113147586E+03  0.00000000000E+00 0.  1.
         11    1    3    3    0    0  0.48514595867E+02 -0.20045641769E+02  0.37737805839E+02  0.64650102518E+02  0.00000000000E+00 0. -1.
</event>
<event>
 7    1  0.6145388E-006  0.1027608E+03  0.7561462E-02  0.1274595E+00
         -1   -1    0    0    0  501 -0.00000000000E+00  0.00000000000E+00  0.19842491912E+02  0.19842491912E+02  0.00000000000E+00 0.  1.
          1   -1    0    0  501    0  0.00000000000E+00 -0.00000000000E+00 -0.66803521738E+03  0.66803521738E+03  0.00000000000E+00 0. -1.
         23    2    1    2    0    0  0.35094610924E+02  0.18241152906E+02 -0.29147575707E+03  0.30780085764E+03  0.90658036745E+02 0.  0.
          5    1    1    2  502    0  0.32997139862E+02 -0.27418351463E+02 -0.51330791485E+02  0.67029096596E+02  0.41800000000E+01 0.  1.
         -5    1    1    2    0  502 -0.68091750786E+02  0.91771985563E+01 -0.30538617691E+03  0.31304775506E+03  0.41800000000E+01 0.  1.
        -11    1    3    3    0    0  0.26512794958E+02 -0.32600871633E+02 -0.18203668239E+03  0.18682371066E+03  0.00000000000E+00 0. -1.
         11    1    3    3    0    0  0.85818159660E+01  0.50842024539E+02 -0.10943907468E+03  0.12097714698E+03  0.00000000000E+00 0.  1.
</event>
<event>
 7    1  0.6145388E-006  0.1394339E+03  0.7561462E-02  0.1214093E+00
         -2   -1    0    0    0  501 -0.00000000000E+00  0.00000000000E+00  0.79344830474E+02  0.79344830474E+02  0.00000000000E+00 0.  1.
          2   -1    0    0  501    0  0.00000000000E+00 -0.00000000000E+00 -0.28425625337E+03  0.28425625337E+03  0.00000000000E+00 0. -1.
         23    2    1    2    0    0  0.45077045668E+02  0.78878771058E+02 -0.15294902730E+03  0.20050189644E+03  0.92486782595E+02 0.  0.
          5    1    1    2  502    0 -0.32325712080E+02  0.27859901590E+02 -0.32429932459E+02  0.53761498281E+02  0.41800000000E+01 0.  1.
         -5    1    1    2    0  502 -0.12751333588E+02 -0.10673867265E+03 -0.19532463140E+02  0.10933768913E+03  0.41800000000E+01 0.  1.
        -11    1    3    3    0    0  0.42186603097E+02 -0.67580190897E+01 -0.38353839210E+02  0.57414260294E+02  0.00000000000E+00 0.  1.
         11    1    3    3    0    0  0.28904425708E+01  0.85636790147E+02 -0.11459518809E+03  0.14308763615E+03  0.00000000000E+00 0. -1.
</event>
<event>
 7    1  0.6145388E-006  0.1195568E+03  0.7561462E-02  0.1243830E+00
         -1   -1    0    0    0  501 -0.00000000000E+00  0.00000000000E+00  0.44481092379E+02  0.44481092379E+02  0.00000000000E+00 0.  1.
          1   -1    0    0  501    0  0.00000000000E+00 -0.00000000000E+00 -0.61845880896E+03  0.61845880896E+03  0.00000000000E+00 0. -1.
         23    2    1    2    0    0 -0.72091793393E+02  0.45022892196E+02 -0.45183835593E+03  0.46854328673E+03  0.90280807243E+02 0.  0.
          5    1    1    2  502    0  0.87702473653E+02 -0.54773789773E+02 -0.41365998913E+02  0.11144734271E+03  0.41800000000E+01 0.  1.
         -5    1    1    2    0  502 -0.15610680260E+02  0.97508975770E+01 -0.80773361740E+02  0.82949271898E+02  0.41800000000E+01 0.  1.
        -11    1    3    3    0    0 -0.79910104389E+02  0.96081889697E+01 -0.37548496964E+03  0.38401419831E+03  0.00000000000E+00 0. -1.
         11    1    3    3    0    0  0.78183109962E+01  0.35414703226E+02 -0.76353386286E+02  0.84529088418E+02  0.00000000000E+00 0.  1.
</event>
<event>
 7    1  0.6145388E-006  0.2585612E+03  0.7561462E-02  0.1108011E+00
          1   -1    0    0  501    0  0.00000000000E+00  0.00000000000E+00  0.18222045238E+03  0.18222045238E+03  0.00000000000E+00 0. -1.
         -1   -1    0    0    0  501 -0.00000000000E+00 -0.00000000000E+00 -0.38291887622E+03  0.38291887622E+03  0.00000000000E+00 0.  1.
         23    2    1    2    0    0  0.48055037271E+02  0.23186643510E+03 -0.55767030012E+02  0.26063279102E+03  0.93531597782E+02 0.  0.
          5    1    1    2  502    0 -0.72015494247E+02 -0.75586200934E+02 -0.29085334670E+02  0.10845706190E+03  0.41800000000E+01 0. -1.
         -5    1    1    2    0  502  0.23960456977E+02 -0.15628023417E+03 -0.11584605916E+03  0.19604947568E+03  0.41800000000E+01 0. -1.
        -11    1    3    3    0    0  0.49980326564E+02  0.43965927681E+02 -0.11078391203E+02  0.67481601877E+02  0.00000000000E+00 0.  1.
         11    1    3    3    0    0 -0.19252892929E+01  0.18790050742E+03 -0.44688638809E+02  0.19315118914E+03  0.00000000000E+00 0. -1.
</event>
<event>
 7    1  0.6145388E-006  0.7346991E+02  0.7561462E-02  0.1348676E+00
         -1   -1    0    0    0  501 -0.00000000000E+00  0.00000000000E+00  0.17454881965E+02  0.17454881965E+02  0.00000000000E+00 0.  1.
          1   -1    0    0  501    0  0.00000000000E+00 -0.00000000000E+00 -0.81907987155E+03  0.81907987155E+03  0.00000000000E+00 0. -1.
         23    2    1    2    0    0 -0.40283099493E+02 -0.24212327887E+02 -0.26379553097E+03  0.28234889538E+03  0.89016019000E+02 0.  0.
          5    1    1    2  502    0  0.33027753928E+02 -0.22064287507E+02 -0.46973720105E+03  0.47143204787E+03  0.41800000000E+01 0. -1.
         -5    1    1    2    0  502  0.72553455646E+01  0.46276615394E+02 -0.68092257568E+02  0.82753810259E+02  0.41800000000E+01 0. -1.
        -11    1    3    3    0    0 -0.42678136044E+02 -0.77983032280E+01 -0.26210927131E+03  0.26567556706E+03  0.00000000000E+00 0. -1.
         11    1    3    3    0    0  0.23950365515E+01 -0.16414024659E+02 -0.16862596616E+01  0.16673328319E+02  0.00000000000E+00 0.  1.
</event>
<event>
 7    1  0.6145388E-006  0.2708745E+03  0.7561462E-02  0.1100780E+00
          1   -1    0    0  501    0  0.00000000000E+00  0.00000000000E+00  0.12605323221E+04  0.12605323221E+04  0.00000000000E+00 0. -1.
         -1   -1    0    0    0  501 -0.00000000000E+00 -0.00000000000E+00 -0.59977673003E+02  0.59977673003E+02  0.00000000000E+00 0.  1.
         23    2    1    2    0    0 -0.16330774787E+01 -0.13878366334E+03  0.45806008621E+03  0.48801027086E+03  0.95243948518E+02 0.  0.
          5    1    1    2  502    0  0.17502587317E+03  0.54177540340E+02  0.34616567765E+03  0.39168534685E+03  0.41800000000E+01 0. -1.
         -5    1    1    2    0  502 -0.17339279570E+03  0.84606122997E+02  0.39632888528E+03  0.44081437744E+03  0.41800000000E+01 0.  1.
        -11    1    3    3    0    0 -0.43520050455E+02 -0.44048383147E+02  0.13015711660E+03  0.14413580350E+03  0.00000000000E+00 0.  1.
         11    1    3    3    0    0  0.41886972977E+02 -0.94735280190E+02  0.32790296961E+03  0.34387446735E+03  0.00000000000E+00 0. -1.
</event>
<event>
 7    1  0.6145388E-006  0.1088576E+03  0.7561462E-02  0.1262700E+00
         -1   -1    0    0    0  501 -0.00000000000E+00  0.00000000000E+00  0.62217631986E+03  0.62217631986E+03  0.00000000000E+00 0.  1.
          1   -1    0    0  501    0  0.00000000000E+00 -0.00000000000E+00 -0.27326500001E+02  0.27326500001E+02  0.00000000000E+00 0. -1.
         23    2    1    2    0    0 -0.62130563379E+02 -0.36128292551E+02  0.23925731531E+03  0.26576058472E+03  0.90659610799E+02 0.  0.
          5    1    1    2  502    0  0.67578283018E+02 -0.54434087270E+01  0.79999579311E+02  0.10494693957E+03  0.41800000000E+01 0. -1.
         -5    1    1    2    0  502 -0.54477196390E+01  0.41571701278E+02  0.27559292523E+03  0.27879529557E+03  0.41800000000E+01 0. -1.
        -11    1    3    3    0    0 -0.32084041732E+02  0.24246956897E+02  0.46137042925E+02  0.61203981753E+02  0.00000000000E+00 0. -1.
         11    1    3    3    0    0 -0.30046521647E+02 -0.60375249448E+02  0.19312027239E+03  0.20455660297E+03  0.00000000000E+00 0.  1.
</event>
<event>
 7    1  0.6145388E-006  0.9026903E+02  0.7561462E-02  0.1302202E+00
          1   -1    0    0  501    0  0.00000000000E+00  0.00000000000E+00  0.88371721426E+02  0.88371721426E+02  0.00000000000E+00 0. -1.
         -1   -1    0    0    0  501 -0.00000000000E+00 -0.00000000000E+00 -0.16351540726E+03  0.16351540726E+03  0.00000000000E+00 0.  1.
         23    2    1    2    0    0  0.43806776655E+01 -0.22412843342E+02  0.13393750042E+02  0.96940443775E+02  0.93255194041E+02 0.  0.
          5    1    1    2  502    0 -0.56532930384E+02 -0.14632689703E+02 -0.21976398759E+02  0.62534169285E+02  0.41800000000E+01 0.  1.
         -5    1    1    2    0  502  0.52152252718E+02  0.37045533045E+02 -0.66561037114E+02  0.92412515623E+02  0.41800000000E+01 0.  1.
        -11    1    3    3    0    0 -0.19783337943E+02  0.59179869270E+01 -0.32089240096E+02  0.38159171367E+02  0.00000000000E+00 0.  1.
         11    1    3    3    0    0  0.24164015609E+02 -0.28330830269E+02  0.45482990138E+02  0.58781272408E+02  0.00000000000E+00 0. -1.
</event>
<event>
 7    1  0.6145388E-006  0.8151118E+02  0.7561462E-02  0.1324817E+00
         -1   -1    0    0    0  501 -0.00000000000E+00  0.00000000000E+00  0.80988072922E+02  0.80988072922E+02  0.00000000000E+00 0.  1.
          1   -1    0    0  501    0  0.00000000000E+00 -0.00000000000E+00 -0.15867471196E+03  0.15867471196E+03  0.00000000000E+00 0. -1.
         23    2    1    2    0    0  0.18290634024E+02  0.85623608379E+01 -0.63128134753E+02  0.11212154058E+03  0.90433495726E+02 0.  0.
          5    1    1    2  502    0 -0.63503098466E+01 -0.48799347336E+02 -0.51585439494E+02  0.71415913517E+02  0.41800000000E+01 0.  1.
         -5    1    1    2    0  502 -0.11940324177E+02  0.40236986498E+02  0.37026935212E+02  0.56125330780E+02  0.41800000000E+01 0.  1.
        -11    1    3    3    0    0 -0.20033614534E+02 -0.16254013936E+02  0.85146994367E+01  0.27166869286E+02  0.00000000000E+00 0.  1.
         11    1    3    3    0    0  0.38324248558E+02  0.24816374774E+02 -0.71642834190E+02  0.84954671297E+02  0.00000000000E+00 0. -1.
</event>
<event>
 7    1  0.6145388E-006  0.2009928E+03  0.7561462E-02  0.1148904E+00
          1   -1    0    0  501    0  0.00000000000E+00  0.00000000000E+00  0.11576889882E+03  0.11576889882E+03  0.00000000000E+00 0. -1.
         -1   -1    0    0    0  501 -0.00000000000E+00 -0.00000000000E+00 -0.50582428880E+03  0.50582428880E+03  0.00000000000E+00 0.  1.
         23    2    1    2    0    0  0.13545974035E+03 -0.11991756496E+03 -0.31973689047E+02  0.20328235143E+03  0.87016285658E+02 0.  0.
          5    1    1    2  502    0 -0.40964711921E+02 -0.19550277622E+02 -0.54095935756E+02  0.70740113395E+02  0.41800000000E+01 0. -1.
         -5    1    1    2    0  502 -0.94495028426E+02  0.13946784258E+03 -0.30398576518E+03  0.34757072280E+03  0.41800000000E+01 0.  1.
        -11    1    3    3    0    0  0.26364355341E+02 -0.82460719441E+00 -0.32392369798E+02  0.41773494356E+02  0.00000000000E+00 0.  1.
         11    1    3    3    0    0  0.10909538501E+03 -0.11909295777E+03  0.41868075013E+00  0.16150885707E+03  0.00000000000E+00 0. -1.
</event>
<event>
 7    1  0.6145388E-006  0.1935649E+03  0.7561462E-02  0.1155285E+00
         -2   -1    0    0    0  501 -0.00000000000E+00  0.00000000000E+00  0.14358756985E+03  0.14358756985E+03  0.00000000000E+00 0.  1.
          2   -1    0    0  501    0  0.00000000000E+00 -0.00000000000E+00 -0.31991015561E+03  0.31991015561E+03  0.00000000000E+00 0. -1.
         23    2    1    2    0    0 -0.12224136137E+03 -0.10871563475E+03  0.12437976374E+02  0.18827657476E+03  0.92365175679E+02 0.  0.
          5    1    1    2  502    0  0.11165642867E+03  0.13226194338E+03 -0.15398555911E+03  0.23170974202E+03  0.41800000000E+01 0. -1.
         -5    1    1    2    0  502  0.10584932697E+02 -0.23546308627E+02 -0.34775003027E+02  0.43511408685E+02  0.41800000000E+01 0.  1.
        -11    1    3    3    0    0 -0.13385812632E+03 -0.11327742233E+03  0.12431398547E+02  0.17579622312E+03  0.00000000000E+00 0.  1.
         11    1    3    3    0    0  0.11616764954E+02  0.45617875759E+01  0.65778264073E-02  0.12480351644E+02  0.00000000000E+00 0. -1.
</event>
<event>
 7    1  0.6145388E-006  0.1034734E+03  0.7561462E-02  0.1273157E+00
         -1   -1    0    0    0  501 -0.00000000000E+00  0.00000000000E+00  0.59275600223E+02  0.59275600223E+02  0.00000000000E+00 0.  1.
          1   -1    0    0  501    0  0.00000000000E+00 -0.00000000000E+00 -0.46792789550E+03  0.46792789550E+03  0.00000000000E+00 0. -1.
         23    2    1    2    0    0 -0.79500670915E+02 -0.40707158420E+02 -0.33154861874E+03  0.35524448030E+03  0.91086358885E+02 0.  0.
          5    1    1    2  502    0  0.12078554155E+02 -0.17651466989E+02 -0.79726661210E+02  0.82651549683E+02  0.41800000000E+01 0.  1.
         -5    1    1    2    0  502  0.67422116760E+02  0.58358625409E+02  0.26229846708E+01  0.89307465738E+02  0.41800000000E+01 0.  1.
        -11    1    3    3    0    0 -0.21346427764E+02 -0.29895071448E+02 -0.28544187007E+02  0.46520488895E+02  0.00000000000E+00 0.  1.
         11    1    3    3    0    0 -0.58154243151E+02 -0.10812086972E+02 -0.30300443173E+03  0.30872399141E+03  0.00000000000E+00 0. -1.
</event>
<event>
 7    1  0.6145388E-006  0.1359038E+03  0.7561462E-02  0.1218949E+00
          1   -1    0    0  501    0  0.00000000000E+00  0.00000000000E+00  0.25407066619E+02  0.25407066619E+02  0.00000000000E+00 0. -1.
         -1   -1    0    0    0  501 -0.00000000000E+00 -0.00000000000E+00 -0.84759348932E+03  0.84759348932E+03  0.00000000000E+00 0.  1.
         23    2    1    2    0    0  0.26940334138E+02  0.91519745507E+02 -0.30287421151E+03  0.33038249770E+03  0.91203954749E+02 0.  0.
          5    1    1    2  502    0  0.30026334257E+02 -0.84980589380E+02 -0.21910515510E+03  0.23695531796E+03  0.41800000000E+01 0.  1.
         -5    1    1    2    0  502 -0.56966668396E+02 -0.65391561271E+01 -0.30020705609E+03  0.30566274029E+03  0.41800000000E+01 0.  1.
        -11    1    3    3    0    0 -0.18876678600E+02 -0.29393377239E+01 -0.10152847921E+03  0.10331021630E+03  0.00000000000E+00 0.  1.
         11    1    3    3    0    0  0.45817012739E+02  0.94459083231E+02 -0.20134573231E+03  0.22707228140E+03  0.00000000000E+00 0. -1.
</event>
<event>
 7    1  0.6145388E-006  0.1541647E+03  0.7561462E-02  0.1195447E+00
         -1   -1    0    0    0  501 -0.00000000000E+00  0.00000000000E+00  0.57302131919E+02  0.57302131919E+02  0.00000000000E+00 0.  1.
          1   -1    0    0  501    0  0.00000000000E+00 -0.00000000000E+00 -0.60941099538E+03  0.60941099538E+03  0.00000000000E+00 0. -1.
         23    2    1    2    0    0 -0.27285569517E+02  0.14508046938E+03 -0.32697300429E+03  0.36985202493E+03  0.89924022983E+02 0.  0.
          5    1    1    2  502    0 -0.15931957979E+02 -0.25313808426E+02  0.79529433086E+01  0.31230400083E+02  0.41800000000E+01 0. -1.
         -5    1    1    2    0  502  0.43217527495E+02 -0.11976666095E+03 -0.23308880248E+03  0.26563070229E+03  0.41800000000E+01 0. -1.
        -11    1    3    3    0    0  0.54411199596E+01  0.47533755946E+02 -0.32284426224E+02  0.57717830151E+02  0.00000000000E+00 0.  1.
         11    1    3    3    0    0 -0.32726689476E+02  0.97546713429E+02 -0.29468857807E+03  0.31213419478E+03  0.00000000000E+00 0. -1.
</event>
<event>
 7    1  0.6145388E-006  0.1103932E+03  0.7561462E-02  0.1259844E+00
         -2   -1    0    0    0  501 -0.00000000000E+00  0.00000000000E+00  0.46169046830E+02  0.46169046830E+02  0.00000000000E+00 0.  1.
          2   -1    0    0  501    0  0.00000000000E+00 -0.00000000000E+00 -0.40658047369E+03  0.40658047369E+03  0.00000000000E+00 0. -1.
         23    2    1    2    0    0 -0.69623813259E+02 -0.44448092225E+02 -0.18327993156E+03  0.22070193503E+03  0.91075257546E+02 0.  0.
          5    1    1    2  502    0  0.62838343440E+02 -0.71508777161E+01 -0.19990017396E+02  0.66459503865E+02  0.41800000000E+01 0.  1.
         -5    1    1    2    0  502  0.67854698181E+01  0.51598969942E+02 -0.15714147790E+03  0.16558808163E+03  0.41800000000E+01 0.  1.
        -11    1    3    3    0    0 -0.13211457366E+02 -0.46902739445E+02 -0.14372370574E+03  0.15175939235E+03  0.00000000000E+00 0. -1.
         11    1    3    3    0    0 -0.56412355892E+02  0.24546472194E+01 -0.39556225817E+02  0.68942542680E+02  0.00000000000E+00 0.  1.
</event>
<event>
 7    1  0.6145388E-006  0.1008682E+03  0.7561462E-02  0.1278481E+00
          2   -1    0    0  501    0  0.00000000000E+00  0.00000000000E+00  0.20636153501E+03  0.20636153501E+03  0.00000000000E+00 0. -1.
         -2   -1    0    0    0  501 -0.00000000000E+00 -0.00000000000E+00 -0.10399964054E+03  0.10399964054E+03  0.00000000000E+00 0.  1.
         23    2    1    2    0    0 -0.82303704089E+02  0.19035134971E+02  0.11172626146E+03  0.15912762950E+03  0.75515620249E+02 0.  0.
          5    1    1    2  502    0  0.61836524428E+02 -0.28999418377E+02 -0.62878120359E+02  0.92929287307E+02  0.41800000000E+01 0. -1.
         -5    1    1    2    0  502  0.20467179661E+02  0.99642834060E+01  0.53513753373E+02  0.58304258739E+02  0.41800000000E+01 0. -1.
        -11    1    3    3    0    0 -0.27919011449E+02  0.42568643338E+02  0.33300743730E+02  0.60831736198E+02  0.00000000000E+00 0. -1.
         11    1    3    3    0    0 -0.54384692640E+02 -0.23533508367E+02  0.78425517726E+02  0.98295893303E+02  0.00000000000E+00 0.  1.
</event>
<event>
 7    1  0.6145388E-006  0.9836770E+02  0.7561462E-02  0.1283766E+00
         -1   -1    0    0    0  501 -0.00000000000E+00  0.00000000000E+00  0.13663937572E+03  0.13663937572E+03  0.00000000000E+00 0.  1.
          1   -1    0    0  501    0  0.00000000000E+00 -0.00000000000E+00 -0.13428940361E+03  0.13428940361E+03  0.00000000000E+00 0. -1.
         23    2    1    2    0    0 -0.56365110893E+02 -0.31908478152E+02 -0.40642353376E+02  0.12365339549E+03  0.97176049647E+02 0.  0.
          5    1    1    2  502    0  0.35377480169E+02  0.53155026839E+02  0.78118707897E+02  0.10098033425E+03  0.41800000000E+01 0. -1.
         -5    1    1    2    0  502  0.20987630723E+02 -0.21246548688E+02 -0.35126382410E+02  0.46295049581E+02  0.41800000000E+01 0. -1.
        -11    1    3    3    0    0 -0.56797433139E+02 -0.55255204108E+02 -0.29271759603E+01  0.79294730918E+02  0.00000000000E+00 0.  1.
         11    1    3    3    0    0  0.43232224696E+00  0.23346725956E+02 -0.37715177415E+02  0.44358664575E+02  0.00000000000E+00 0. -1.
</event>
<event>
 7    1  0.6145388E-006  0.1106244E+03  0.7561462E-02  0.1259418E+00
         -2   -1    0    0    0  501 -0.00000000000E+00  0.00000000000E+00  0.51515755980E+02  0.51515755980E+02  0.00000000000E+00 0.  1.
          2   -1    0    0  501    0  0.00000000000E+00 -0.00000000000E+00 -0.32422096317E+03  0.32422096317E+03  0.00000000000E+00 0. -1.
         23    2    1    2    0    0  0.40225479855E+02  0.64051261637E+02 -0.95419986678E+02  0.14595768691E+03  0.80486142684E+02 0.  0.
          5    1    1    2  502    0 -0.69365367084E+02 -0.44153311897E+02 -0.17590598082E+03  0.19422012149E+03  0.41800000000E+01 0.  1.
         -5    1    1    2    0  502  0.29139887230E+02 -0.19897949740E+02 -0.13792396914E+01  0.35558910750E+02  0.41800000000E+01 0.  1.
        -11    1    3    3    0    0  0.10721385441E+02  0.72027819076E+02 -0.41072291991E+02  0.83605550032E+02  0.00000000000E+00 0.  1.
         11    1    3    3    0    0  0.29504094413E+02 -0.79765574391E+01 -0.54347694687E+02  0.62352136880E+02  0.00000000000E+00 0. -1.
</event>
<event>
 7    1  0.6145388E-006  0.1495875E+03  0.7561462E-02  0.1200981E+00
          2   -1    0    0  501    0  0.00000000000E+00  0.00000000000E+00  0.43275782078E+03  0.43275782078E+03  0.00000000000E+00 0. -1.
         -2   -1    0    0    0  501 -0.00000000000E+00 -0.00000000000E+00 -0.53631342744E+02  0.53631342744E+02  0.00000000000E+00 0.  1.
         23    2    1    2    0    0  0.47844977296E+02 -0.94454840724E+02  0.17738551504E+03  0.22647027589E+03  0.92802511409E+02 0.  0.
          5    1    1    2  502    0  0.40717531736E+02  0.33367837751E+02  0.92652285073E+02  0.10664543270E+03  0.41800000000E+01 0.  1.
         -5    1    1    2    0  502 -0.88562509032E+02  0.61087002973E+02  0.10908867792E+03  0.15327345494E+03  0.41800000000E+01 0.  1.
        -11    1    3    3    0    0  0.46865582243E+02 -0.27059079362E+01  0.79343065796E+02  0.92190166648E+02  0.00000000000E+00 0.  1.
         11    1    3    3    0    0  0.97939505301E+00 -0.91748932788E+02  0.98042449247E+02  0.13428010924E+03  0.00000000000E+00 0. -1.
</event>
<event>
 7    1  0.6145388E-006  0.1103866E+03  0.7561462E-02  0.1259856E+00
          2   -1    0    0  501    0  0.00000000000E+00  0.00000000000E+00  0.39122403902E+03  0.39122403902E+03  0.00000000000E+00 0. -1.
         -2   -1    0    0    0  501 -0.00000000000E+00 -0.00000000000E+00 -0.57405609701E+02  0.57405609701E+02  0.00000000000E+00 0.  1.
         23    2    1    2    0    0  0.76184896088E+02  0.63754697562E+02  0.19433503401E+03  0.23656433321E+03  0.91256662478E+02 0.  0.
          5    1    1    2  502    0 -0.78365220678E+02 -0.25091922947E+02  0.15051027792E+03  0.17158533903E+03  0.41800000000E+01 0. -1.
         -5    1    1    2    0  502  0.21803245899E+01 -0.38662774616E+02 -0.11026882617E+02  0.40479976489E+02  0.41800000000E+01 0. -1.
        -11    1    3    3    0    0  0.32971589383E+02  0.30362646871E+02  0.12249843841E+02  0.46465844505E+02  0.00000000000E+00 0.  1.
         11    1    3    3    0    0  0.43213306705E+02  0.33392050691E+02  0.18208519017E+03  0.19009848870E+03  0.00000000000E+00 0. -1.
</event>
<event>
 7    1  0.6145388E-006  0.8002322E+02  0.7561462E-02  0.1328986E+00
          1   -1    0    0  501    0  0.00000000000E+00  0.00000000000E+00  0.64752097722E+02  0.64752097722E+02  0.00000000000E+00 0. -1.
         -1   -1    0    0    0  501 -0.00000000000E+00 -0.00000000000E+00 -0.16360159417E+03  0.16360159417E+03  0.00000000000E+00 0.  1.
         23    2    1    2    0    0 -0.16136072040E+02  0.85986966178E+01 -0.29531833752E+02  0.84180135124E+02  0.76680216094E+02 0.  0.
          5    1    1    2  502    0 -0.20056669343E+02  0.25311429538E+02  0.22605091008E+02  0.39640900467E+02  0.41800000000E+01 0.  1.
         -5    1    1    2    0  502  0.36192741383E+02 -0.33910126155E+02 -0.91922753703E+02  0.10453265630E+03  0.41800000000E+01 0.  1.
        -11    1    3    3    0    0 -0.73236843688E+01 -0.33708510747E+02 -0.61298504630E+01  0.35035340961E+02  0.00000000000E+00 0.  1.
         11    1    3    3    0    0 -0.88123876709E+01  0.42307207365E+02 -0.23401983289E+02  0.49144794163E+02  0.00000000000E+00 0. -1.
</event>
<event>
 7    1  0.6145388E-006  0.1066021E+03  0.7561462E-02  0.1266995E+00
         -3   -1    0    0    0  501 -0.00000000000E+00  0.00000000000E+00  0.12272754614E+03  0.12272754614E+03  0.00000000000E+00 0.  1.
          3   -1    0    0  501    0  0.00000000000E+00 -0.00000000000E+00 -0.11296171089E+03  0.11296171089E+03  0.00000000000E+00 0. -1.
         23    2    1    2    0    0 -0.43688431625E+02  0.13560398584E+01  0.12273313981E+02  0.10316708313E+03  0.92640676291E+02 0.  0.
          5    1    1    2  502    0 -0.27723839348E+02 -0.37856717053E+02  0.16642493436E+02  0.49961858272E+02  0.41800000000E+01 0. -1.
         -5    1    1    2    0  502  0.71412270973E+02  0.36500677195E+02 -0.19149972165E+02  0.82560315619E+02  0.41800000000E+01 0. -1.
        -11    1    3    3    0    0  0.91082205063E+01 -0.25122424396E+02  0.31260781139E+02  0.41125810943E+02  0.00000000000E+00 0.  1.
         11    1    3    3    0    0 -0.52796652131E+02  0.26478464254E+02 -0.18987467158E+02  0.62041272187E+02  0.00000000000E+00 0. -1.
</event>
<event>
 7    1  0.6145388E-006  0.1024051E+03  0.7561462E-02  0.1275318E+00
          2   -1    0    0  501    0  0.00000000000E+00  0.00000000000E+00  0.20066322489E+03  0.20066322489E+03  0.00000000000E+00 0. -1.
         -2   -1    0    0    0  501 -0.00000000000E+00 -0.00000000000E+00 -0.91099662536E+02  0.91099662536E+02  0.00000000000E+00 0.  1.
         23    2    1    2    0    0 -0.38459594226E+02  0.37466780580E+01  0.12653969497E+03  0.15974915776E+03  0.89522740227E+02 0.  0.
          5    1    1    2  502    0  0.65441744833E+00 -0.48436944211E+02  0.29748089846E+02  0.56999886634E+02  0.41800000000E+01 0. -1.
         -5    1    1    2    0  502  0.37805176778E+02  0.44690266154E+02 -0.46724222469E+02  0.75013843025E+02  0.41800000000E+01 0. -1.
        -11    1    3    3    0    0  0.29262670609E+02  0.54231010931E+01  0.38103453440E+02  0.48348599573E+02  0.00000000000E+00 0.  1.
         11    1    3    3    0    0 -0.67722264835E+02 -0.16764230351E+01  0.88436241533E+02  0.11140055819E+03  0.00000000000E+00 0. -1.
</event>
<event>
 7    1  0.6145388E-006  0.9262103E+02  0.7561462E-02  0.1296626E+00
         -2   -1    0    0    0  501 -0.00000000000E+00  0.00000000000E+00  0.41004685761E+02  0.41004685761E+02  0.00000000000E+00 0.  1.
          2   -1    0    0  501    0  0.00000000000E+00 -0.00000000000E+00 -0.32974976710E+03  0.32974976710E+03  0.00000000000E+00 0. -1.
         23    2    1    2    0    0 -0.42653020877E+02  0.21554077260E+01 -0.11014124040E+03  0.14855955235E+03  0.90082860661E+02 0.  0.
          5    1    1    2  502    0 -0.31568035827E+02 -0.13161977195E+01 -0.36231701602E+01  0.32076050637E+02  0.41800000000E+01 0. -1.
         -5    1    1    2    0  502  0.74221056705E+02 -0.83921000649E+00 -0.17498067077E+03  0.19011884987E+03  0.41800000000E+01 0. -1.
        -11    1    3    3    0    0 -0.32502603287E+02  0.33142721075E+02 -0.16274727099E+02  0.49190709721E+02  0.00000000000E+00 0.  1.
         11    1    3    3    0    0 -0.10150417590E+02 -0.30987313349E+02 -0.93866513304E+02  0.99368842630E+02  0.00000000000E+00 0. -1.
</event>
<event>
 7    1  0.6145388E-006  0.9174182E+02  0.7561462E-02  0.1298688E+00
          2   -1    0    0  501    0  0.00000000000E+00  0.00000000000E+00  0.20976743776E+03  0.20976743776E+03  0.00000000000E+00 0.  1.
         -2   -1    0    0    0  501 -0.00000000000E+00 -0.00000000000E+00 -0.73695671565E+02  0.73695671565E+02  0.00000000000E+00 0. -1.
         23    2    1    2    0    0 -0.34195970438E+02  0.38062015012E+02  0.10008013049E+03  0.14360304923E+03  0.89374055782E+02 0.  0.
          5    1    1    2  502    0  0.45867389872E+01 -0.57000106659E+02  0.70197215997E+02  0.90637585291E+02  0.41800000000E+01 0. -1.
         -5    1    1    2    0  502  0.29609231451E+02  0.18938091647E+02 -0.34205580297E+02  0.49222474804E+02  0.41800000000E+01 0. -1.
        -11    1    3    3    0    0 -0.58262832581E+02  0.25429067421E+02  0.97373638462E+02  0.11628766314E+03  0.00000000000E+00 0.  1.
         11    1    3    3    0    0  0.24066862142E+02  0.12632947591E+02  0.27064920310E+01  0.27315386092E+02  0.00000000000E+00 0. -1.
</event>
<event>
 7    1  0.6145388E-006  0.2571008E+03  0.7561462E-02  0.1108898E+00
          2   -1    0    0  501    0  0.00000000000E+00  0.00000000000E+00  0.23272441150E+04  0.23272441150E+04  0.00000000000E+00 0. -1.
         -2   -1    0    0    0  501 -0.00000000000E+00 -0.00000000000E+00 -0.28717332286E+02  0.28717332286E+02  0.00000000000E+00 0.  1.
         23    2    1    2    0    0 -0.20965381592E+03  0.10277059690E+03  0.10247351119E+04  0.10549208406E+04  0.90881308516E+02 0.  0.
          5    1    1    2  502    0 -0.11767621595E+02  0.97649032130E+01  0.10020153762E+03  0.10144777373E+03  0.41800000000E+01 0. -1.
         -5    1    1    2    0  502  0.22142143751E+03 -0.11253550011E+03  0.11735901332E+04  0.11995928329E+04  0.41800000000E+01 0. -1.
        -11    1    3    3    0    0 -0.13473163060E+03  0.11099477294E+03  0.74864022055E+03  0.76872272747E+03  0.00000000000E+00 0.  1.
         11    1    3    3    0    0 -0.74922185322E+02 -0.82241760421E+01  0.27609489136E+03  0.28619811313E+03  0.00000000000E+00 0. -1.
</event>
<event>
 7    1  0.6145388E-006  0.1112134E+03  0.7561462E-02  0.1258339E+00
         -3   -1    0    0    0  501 -0.00000000000E+00  0.00000000000E+00  0.40430253447E+03  0.40430253447E+03  0.00000000000E+00 0.  1.
          3   -1    0    0  501    0  0.00000000000E+00 -0.00000000000E+00 -0.47254277993E+02  0.47254277993E+02  0.00000000000E+00 0. -1.
         23    2    1    2    0    0  0.30486410634E+01  0.81426995262E+02  0.13411745437E+03  0.18325428971E+03  0.94630826708E+02 0.  0.
          5    1    1    2  502    0  0.55588998988E+02 -0.34040492212E+02  0.14872214635E+03  0.16243349757E+03  0.41800000000E+01 0. -1.
         -5    1    1    2    0  502 -0.58637640051E+02 -0.47386503050E+02  0.74208655761E+02  0.10586902518E+03  0.41800000000E+01 0. -1.
        -11    1    3    3    0    0  0.26269839095E+01  0.19770560924E+02 -0.12953387475E+02  0.23781639363E+02  0.00000000000E+00 0. -1.
         11    1    3    3    0    0  0.42165715388E+00  0.61656434338E+02  0.14707084184E+03  0.15947265035E+03  0.00000000000E+00 0.  1.
</event>
<event>
 7    1  0.6145388E-006  0.9715761E+02  0.7561462E-02  0.1286389E+00
          4   -1    0    0  501    0  0.00000000000E+00  0.00000000000E+00  0.19743487948E+02  0.19743487948E+02  0.00000000000E+00 0. -1.
         -4   -1    0    0    0  501 -0.00000000000E+00 -0.00000000000E+00 -0.76004256127E+03  0.76004256127E+03  0.00000000000E+00 0.  1.
         23    2    1    2    0    0 -0.64457629540E+01  0.52787967391E+02 -0.27587409725E+03  0.29588250155E+03  0.92799891335E+02 0.  0.
          5    1    1    2  502    0  0.37637469052E+02 -0.14270189121E+02 -0.40225240698E+03  0.40428293149E+03  0.41800000000E+01 0. -1.
         -5    1    1    2    0  502 -0.31191706098E+02 -0.38517778270E+02 -0.62172569102E+02  0.79620616180E+02  0.41800000000E+01 0. -1.
        -11    1    3    3    0    0  0.32529094146E+02  0.56250599803E+02 -0.20330655733E+03  0.21343811327E+03  0.00000000000E+00 0. -1.
         11    1    3    3    0    0 -0.38974857100E+02 -0.34626324123E+01 -0.72567539919E+02  0.82444388281E+02  0.00000000000E+00 0.  1.
</event>
<event>
 7    1  0.6145388E-006  0.1111229E+03  0.7561462E-02  0.1258505E+00
         -1   -1    0    0    0  501 -0.00000000000E+00  0.00000000000E+00  0.35439763882E+02  0.35439763882E+02  0.00000000000E+00 0.  1.
          1   -1    0    0  501    0  0.00000000000E+00 -0.00000000000E+00 -0.37006677378E+03  0.37006677378E+03  0.00000000000E+00 0. -1.
         23    2    1    2    0    0  0.31939857717E+02  0.64432237789E+00 -0.16421500659E+03  0.19172261418E+03  0.93650535160E+02 0.  0.
          5    1    1    2  502    0  0.47232026377E+02  0.54939589171E+01 -0.47125464827E+02  0.67077043282E+02  0.41800000000E+01 0. -1.
         -5    1    1    2    0  502 -0.79171884094E+02 -0.61382812950E+01 -0.12328653848E+03  0.14670688020E+03  0.41800000000E+01 0. -1.
        -11    1    3    3    0    0  0.61438107022E+02  0.13354041276E+02 -0.81096813063E+02  0.10261415352E+03  0.00000000000E+00 0.  1.
         11    1    3    3    0    0 -0.29498249305E+02 -0.12709718898E+02 -0.83118193523E+02  0.89108460659E+02  0.00000000000E+00 0. -1.
</event>
<event>
 7    1  0.6145388E-006  0.1069182E+03  0.7561462E-02  0.1266386E+00
          1   -1    0    0  501    0  0.00000000000E+00  0.00000000000E+00  0.35245482810E+03  0.35245482810E+03  0.00000000000E+00 0. -1.
         -1   -1    0    0    0  501 -0.00000000000E+00 -0.00000000000E+00 -0.59542794839E+02  0.59542794839E+02  0.00000000000E+00 0.  1.
         23    2    1    2    0    0  0.17468203614E+02 -0.86055071814E+02  0.19328702607E+03  0.22956044735E+03  0.87335622846E+02 0.  0.
          5    1    1    2  502    0 -0.77150130842E+01  0.88939372589E+02  0.75297949644E+01  0.89687812080E+02  0.41800000000E+01 0. -1.
         -5    1    1    2    0  502 -0.97531905300E+01 -0.28843007756E+01  0.92095212224E+02  0.92749363507E+02  0.41800000000E+01 0. -1.
        -11    1    3    3    0    0  0.45642097921E+02 -0.49760537831E+02  0.66778509742E+02  0.94966739395E+02  0.00000000000E+00 0.  1.
         11    1    3    3    0    0 -0.28173894307E+02 -0.36294533983E+02  0.12650851633E+03  0.13459370796E+03  0.00000000000E+00 0. -1.
</event>
<event>
 7    1  0.6145388E-006  0.9881577E+02  0.7561462E-02  0.1282806E+00
         -1   -1    0    0    0  501 -0.00000000000E+00  0.00000000000E+00  0.18012737601E+02  0.18012737601E+02  0.00000000000E+00 0.  1.
          1   -1    0    0  501    0  0.00000000000E+00 -0.00000000000E+00 -0.75563780175E+03  0.75563780175E+03  0.00000000000E+00 0. -1.
         23    2    1    2    0    0  0.28564375759E+02  0.35586774279E+02 -0.32906156465E+03  0.34393641729E+03  0.89041584366E+02 0.  0.
          5    1    1    2  502    0  0.44949909553E+02 -0.17818070907E+02 -0.24081306593E+03  0.24565500838E+03  0.41800000000E+01 0. -1.
         -5    1    1    2    0  502 -0.73514285312E+02 -0.17768703372E+02 -0.16775043358E+03  0.18405911368E+03  0.41800000000E+01 0. -1.
        -11    1    3    3    0    0  0.12299799583E+02 -0.15471956525E+02 -0.13686918317E+02  0.24041593989E+02  0.00000000000E+00 0.  1.
         11    1    3    3    0    0  0.16264576176E+02  0.51058730804E+02 -0.31537464633E+03  0.31989482330E+03  0.00000000000E+00 0. -1.
</event>
<event>
 7    1  0.6145388E-006  0.1404524E+03  0.7561462E-02  0.1212722E+00
          2   -1    0    0  501    0  0.00000000000E+00  0.00000000000E+00  0.13771583402E+03  0.13771583402E+03  0.00000000000E+00 0.  1.
         -2   -1    0    0    0  501 -0.00000000000E+00 -0.00000000000E+00 -0.20702709732E+03  0.20702709732E+03  0.00000000000E+00 0. -1.
         23    2    1    2    0    0  0.11951484333E+03  0.47416248232E+02 -0.26660163343E+02  0.16035919930E+03  0.92044609405E+02 0.  0.
          5    1    1    2  502    0 -0.10421829202E+03 -0.65677195042E+02  0.12768173226E+02  0.12391708916E+03  0.41800000000E+01 0.  1.
         -5    1    1    2    0  502 -0.15296551309E+02  0.18260946809E+02 -0.55419273178E+02  0.60466642869E+02  0.41800000000E+01 0.  1.
        -11    1    3    3    0    0  0.19999341222E+02 -0.55144295723E+01  0.28193807131E+02  0.35003904688E+02  0.00000000000E+00 0.  1.
         11    1    3    3    0    0  0.99515502103E+02  0.52930677805E+02 -0.54853970474E+02  0.12535529462E+03  0.00000000000E+00 0. -1.
</event>
<event>
 7    1  0.6145388E-006  0.1885892E+03  0.7561462E-02  0.1159740E+00
         -1   -1    0    0    0  501 -0.00000000000E+00  0.00000000000E+00  0.55054179331E+02  0.55054179331E+02  0.00000000000E+00 0.  1.
          1   -1    0    0  501    0  0.00000000000E+00 -0.00000000000E+00 -0.78459737826E+03  0.78459737826E+03  0.00000000000E+00 0. -1.
         23    2    1    2    0    0  0.16171258696E+03  0.60327121093E+02 -0.42735822623E+03  0.46984940056E+03  0.91285723764E+02 0.  0.
          5    1    1    2  502    0 -0.93236486018E+01  0.12045885109E+02  0.72210371807E+01  0.17368061184E+02  0.41800000000E+01 0.  1.
         -5    1    1    2    0  502 -0.15238893836E+03 -0.72373006203E+02 -0.30940600989E+03  0.35243409585E+03  0.41800000000E+01 0.  1.
        -11    1    3    3    0    0  0.17075229842E+03  0.48052173256E+02 -0.36735567087E+03  0.40794061785E+03  0.00000000000E+00 0.  1.
         11    1    3    3    0    0 -0.90397114579E+01  0.12274947838E+02 -0.60002555356E+02  0.61908782712E+02  0.00000000000E+00 0. -1.
</event>
<event>
 7    1  0.6145388E-006  0.9449662E+02  0.7561462E-02  0.1292314E+00
         -3   -1    0    0    0  501 -0.00000000000E+00  0.00000000000E+00  0.13571186780E+03  0.13571186780E+03  0.00000000000E+00 0.  1.
          3   -1    0    0  501    0  0.00000000000E+00 -0.00000000000E+00 -0.12233960587E+03  0.12233960587E+03  0.00000000000E+00 0. -1.
         23    2    1    2    0    0  0.58706132270E+02 -0.14568452748E+02 -0.20850702880E+02  0.11495742431E+03  0.95508155740E+02 0.  0.
          5    1    1    2  502    0 -0.89301360343E+02  0.25547161491E+01 -0.75752530370E+01  0.89755871074E+02  0.41800000000E+01 0.  1.
         -5    1    1    2    0  502  0.30595228072E+02  0.12013736599E+02  0.41798217843E+02  0.53338178285E+02  0.41800000000E+01 0.  1.
        -11    1    3    3    0    0  0.27046769484E+02  0.72165965762E+01 -0.56172026982E+02  0.62760685313E+02  0.00000000000E+00 0. -1.
         11    1    3    3    0    0  0.31659362786E+02 -0.21785049324E+02  0.35321324102E+02  0.52196739002E+02  0.00000000000E+00 0.  1.
</event>
<event>
 7    1  0.6145388E-006  0.1158022E+03  0.7561462E-02  0.1250187E+00
          2   -1    0    0  501    0  0.00000000000E+00  0.00000000000E+00  0.79562621443E+03  0.79562621443E+03  0.00000000000E+00 0. -1.
         -2   -1    0    0    0  501 -0.00000000000E+00 -0.00000000000E+00 -0.20758775093E+02  0.20758775093E+02  0.00000000000E+00 0.  1.
         23    2    1    2    0    0 -0.41777023641E+02 -0.36339729188E+02  0.48393055490E+03  0.49489197670E+03  0.87540796260E+02 0.  0.
          5    1    1    2  502    0  0.81997345032E+02  0.17943445076E+02  0.23790250118E+03  0.25231053145E+03  0.41800000000E+01 0.  1.
         -5    1    1    2    0  502 -0.40220321392E+02  0.18396284112E+02  0.53034383255E+02  0.69182481375E+02  0.41800000000E+01 0.  1.
        -11    1    3    3    0    0 -0.61304907949E+02  0.65168536064E+00  0.30976165415E+03  0.31577048440E+03  0.00000000000E+00 0.  1.
         11    1    3    3    0    0  0.19527884309E+02 -0.36991414549E+02  0.17416890074E+03  0.17912149230E+03  0.00000000000E+00 0. -1.
</event>
<event>
 6    1  0.6145388E-006  0.1681641E+03  0.7561462E-02  0.1179776E+00
         -1   -1    0    0    0  501 -0.00000000000E+00  0.00000000000E+00  0.22612611561E+03  0.22612611561E+03  0.00000000000E+00 0.  1.
          1   -1    0    0  501    0  0.00000000000E+00 -0.00000000000E+00 -0.16392165800E+03  0.16392165800E+03  0.00000000000E+00 0. -1.
          5    1    1    2  502    0  0.10026483038E+03  0.17489507503E+02  0.16640808150E+02  0.10321486317E+03  0.41800000000E+01 0.  1.
         -5    1    1    2    0  502  0.80962945533E+01 -0.40696372351E+02  0.79007404628E+02  0.89338609201E+02  0.41800000000E+01 0.  1.
        -11    1    1    2    0    0 -0.14921059923E+03  0.27365028713E+02 -0.14863860925E+02  0.15242566084E+03  0.00000000000E+00 0. -1.
         11    1    1    2    0    0  0.40849474303E+02 -0.41581638651E+01 -0.18579894250E+02  0.45068640404E+02  0.00000000000E+00 0.  1.
</event>
<event>
 7    1  0.6145388E-006  0.1336760E+03  0.7561462E-02  0.1222101E+00
          1   -1    0    0  501    0  0.00000000000E+00  0.00000000000E+00  0.70023257209E+02  0.70023257209E+02  0.00000000000E+00 0. -1.
         -1   -1    0    0    0  501 -0.00000000000E+00 -0.00000000000E+00 -0.28322196097E+03  0.28322196097E+03  0.00000000000E+00 0.  1.
         23    2    1    2    0    0  0.75537665493E+02 -0.48869328366E+02 -0.90530757897E+02  0.15628982295E+03  0.90202774182E+02 0.  0.
          5    1    1    2  502    0 -0.75174475007E+02  0.80595948038E+02 -0.57563330615E+02  0.12441028078E+03  0.41800000000E+01 0.  1.
         -5    1    1    2    0  502 -0.36319048585E+00 -0.31726619672E+02 -0.65104615247E+02  0.72545114444E+02  0.41800000000E+01 0.  1.
        -11    1    3    3    0    0  0.47521895581E+00  0.21893182450E+02 -0.28413201470E+02  0.35872653772E+02  0.00000000000E+00 0.  1.
         11    1    3    3    0    0  0.75062446537E+02 -0.70762510816E+02 -0.62117556428E+02  0.12041716918E+03  0.00000000000E+00 0. -1.
</event>
<event>
 7    1  0.6145388E-006  0.8702614E+02  0.7561462E-02  0.1310217E+00
         -1   -1    0    0    0  501 -0.00000000000E+00  0.00000000000E+00  0.37364735292E+03  0.37364735292E+03  0.00000000000E+00 0.  1.
          1   -1    0    0  501    0  0.00000000000E+00 -0.00000000000E+00 -0.42820406168E+02  0.42820406168E+02  0.00000000000E+00 0. -1.
         23    2    1    2    0    0  0.25461964972E+02 -0.56313384649E+02  0.11078437048E+03  0.15591968814E+03  0.90654638359E+02 0.  0.
          5    1    1    2  502    0 -0.31639512297E+02  0.79600924609E+02  0.21996827293E+03  0.23609506440E+03  0.41800000000E+01 0. -1.
         -5    1    1    2    0  502  0.61775473257E+01 -0.23287539960E+02  0.74303342661E-01  0.24453006550E+02  0.41800000000E+01 0. -1.
        -11    1    3    3    0    0  0.24479100916E+02 -0.36188785976E+02  0.12423529026E+03  0.13169381898E+03  0.00000000000E+00 0.  1.
         11    1    3    3    0    0  0.98286405596E+00 -0.20124598673E+02 -0.13450919780E+02  0.24225869158E+02  0.00000000000E+00 0. -1.
</event>
<event>
 7    1  0.6145388E-006  0.1204040E+03  0.7561462E-02  0.1242432E+00
          1   -1    0    0  501    0  0.00000000000E+00  0.00000000000E+00  0.52822653203E+02  0.52822653203E+02  0.00000000000E+00 0. -1.
         -1   -1    0    0    0  501 -0.00000000000E+00 -0.00000000000E+00 -0.39581333656E+03  0.39581333656E+03  0.00000000000E+00 0.  1.
         23    2    1    2    0    0  0.70168821551E+02 -0.40280426865E+02 -0.91788656882E+02  0.15658104295E+03  0.97705113338E+02 0.  0.
          5    1    1    2  502    0 -0.32193500371E+02 -0.23409174770E+02 -0.12294227337E+02  0.41869217277E+02  0.41800000000E+01 0. -1.
         -5    1    1    2    0  502 -0.37975321180E+02  0.63689601635E+02 -0.23890779914E+03  0.25018572954E+03  0.41800000000E+01 0. -1.
        -11    1    3    3    0    0  0.91191361896E+02 -0.13060310132E+02 -0.71832919197E+02  0.11681782597E+03  0.00000000000E+00 0.  1.
         11    1    3    3    0    0 -0.21022540345E+02 -0.27220116733E+02 -0.19955737685E+02  0.39763216973E+02  0.00000000000E+00 0. -1.
</event>
<event>
 7    1  0.6145388E-006  0.5781849E+02  0.7561462E-02  0.1407221E+00
          2   -1    0    0  501    0  0.00000000000E+00  0.00000000000E+00  0.11103563068E+03  0.11103563068E+03  0.00000000000E+00 0. -1.
         -2   -1    0    0    0  501 -0.00000000000E+00 -0.00000000000E+00 -0.13529019541E+03  0.13529019541E+03  0.00000000000E+00 0.  1.
         23    2    1    2    0    0  0.70226957386E+01 -0.29203479725E+02  0.37515946899E+02  0.10362042539E+03  0.91801877996E+02 0.  0.
          5    1    1    2  502    0  0.75692692358E+01 -0.77315232477E+01 -0.91932928456E+02  0.92661782969E+02  0.41800000000E+01 0.  1.
         -5    1    1    2    0  502 -0.14591964974E+02  0.36935002972E+02  0.30162416823E+02  0.50043617725E+02  0.41800000000E+01 0.  1.
        -11    1    3    3    0    0  0.25871766545E+02  0.37498598478E+01 -0.21229140059E+02  0.33676195460E+02  0.00000000000E+00 0.  1.
         11    1    3    3    0    0 -0.18849070806E+02 -0.32953339572E+02  0.58745086958E+02  0.69944229933E+02  0.00000000000E+00 0. -1.
</event>
<event>
 7    1  0.6145388E-006  0.9666487E+02  0.7561462E-02  0.1287470E+00
         -3   -1    0    0    0  501 -0.00000000000E+00  0.00000000000E+00  0.15910470663E+03  0.15910470663E+03  0.00000000000E+00 0.  1.
          3   -1    0    0  501    0  0.00000000000E+00 -0.00000000000E+00 -0.96311392246E+02  0.96311392246E+02  0.00000000000E+00 0. -1.
         23    2    1    2    0    0 -0.32385706611E+02  0.35313101751E+02 -0.86340546707E+01  0.10361268655E+03  0.91461427754E+02 0.  0.
          5    1    1    2  502    0  0.47752611978E+02  0.27461746264E+02  0.67071492244E+02  0.86893710534E+02  0.41800000000E+01 0. -1.
         -5    1    1    2    0  502 -0.15366905367E+02 -0.62774848015E+02  0.43558768135E+01  0.64909701791E+02  0.41800000000E+01 0. -1.
        -11    1    3    3    0    0  0.11445754255E+02  0.26147009789E+02  0.32186801374E+02  0.43019316522E+02  0.00000000000E+00 0.  1.
         11    1    3    3    0    0 -0.43831460866E+02  0.91660919620E+01 -0.40820856045E+02  0.60593370031E+02  0.00000000000E+00 0. -1.
</event>
<event>
 7    1  0.6145388E-006  0.2486465E+03  0.7561462E-02  0.1114163E+00
          1   -1    0    0  501    0  0.00000000000E+00  0.00000000000E+00  0.46475192076E+03  0.46475192076E+03  0.00000000000E+00 0. -1.
         -1   -1    0    0    0  501 -0.00000000000E+00 -0.00000000000E+00 -0.15621380314E+03  0.15621380314E+03  0.00000000000E+00 0.  1.
         23    2    1    2    0    0 -0.34751997776E+02 -0.24397750336E+03  0.15762983151E+03  0.30607967633E+03  0.90027112496E+02 0.  0.
          5    1    1    2  502    0  0.13202993250E+02  0.77067461793E+02 -0.13636555526E+02  0.79480442529E+02  0.41800000000E+01 0.  1.
         -5    1    1    2    0  502  0.21549004526E+02  0.16691004157E+03  0.16454484164E+03  0.23540560504E+03  0.41800000000E+01 0.  1.
        -11    1    3    3    0    0 -0.40785661940E+02 -0.12442203802E+03  0.12723528368E+03  0.18257363221E+03  0.00000000000E+00 0. -1.
         11    1    3    3    0    0  0.60336641636E+01 -0.11955546534E+03  0.30394547827E+02  0.12350604412E+03  0.00000000000E+00 0.  1.
</event>
<event>
 7    1  0.6145388E-006  0.1001009E+03  0.7561462E-02  0.1280084E+00
          2   -1    0    0  501    0  0.00000000000E+00  0.00000000000E+00  0.11710792439E+04  0.11710792439E+04  0.00000000000E+00 0. -1.
         -2   -1    0    0    0  501 -0.00000000000E+00 -0.00000000000E+00 -0.11720488737E+02  0.11720488737E+02  0.00000000000E+00 0.  1.
         23    2    1    2    0    0 -0.30228838321E+02 -0.32300535026E+02  0.53253480877E+03  0.54208689110E+03  0.91146956728E+02 0.  0.
          5    1    1    2  502    0 -0.16265162060E+02  0.48477900379E+02  0.52536716162E+03  0.52786626074E+03  0.41800000000E+01 0.  1.
         -5    1    1    2    0  502  0.46494000381E+02 -0.16177365354E+02  0.10145678480E+03  0.11284658082E+03  0.41800000000E+01 0.  1.
        -11    1    3    3    0    0  0.23544780343E+02  0.14965487415E+02  0.10731248038E+03  0.11087962365E+03  0.00000000000E+00 0.  1.
         11    1    3    3    0    0 -0.53773618664E+02 -0.47266022440E+02  0.42522232839E+03  0.43120726745E+03  0.00000000000E+00 0. -1.
</event>
<event>
 7    1  0.6145388E-006  0.7561511E+02  0.7561462E-02  0.1341977E+00
          2   -1    0    0  501    0  0.00000000000E+00  0.00000000000E+00  0.37509120472E+02  0.37509120472E+02  0.00000000000E+00 0. -1.
         -2   -1    0    0    0  501 -0.00000000000E+00 -0.00000000000E+00 -0.41807374754E+03  0.41807374754E+03  0.00000000000E+00 0.  1.
         23    2    1    2    0    0  0.35821967927E+02  0.43039208915E+02 -0.12279740005E+03  0.16364568812E+03  0.92547949138E+02 0.  0.
          5    1    1    2  502    0 -0.28325253736E+02 -0.27014720021E+02 -0.63619989889E+01  0.39875588123E+02  0.41800000000E+01 0. -1.
         -5    1    1    2    0  502 -0.74967141903E+01 -0.16024488894E+02 -0.25140522803E+03  0.25206159177E+03  0.41800000000E+01 0. -1.
        -11    1    3    3    0    0 -0.18422042028E+02  0.34034818816E+02 -0.12959155167E+02  0.40812745889E+02  0.00000000000E+00 0. -1.
         11    1    3    3    0    0  0.54244009955E+02  0.90043900985E+01 -0.10983824489E+03  0.12283294223E+03  0.00000000000E+00 0.  1.
</event>
<event>
 7    1  0.6145388E-006  0.1088816E+03  0.7561462E-02  0.1262655E+00
          1   -1    0    0  501    0  0.00000000000E+00  0.00000000000E+00  0.56522584905E+02  0.56522584905E+02  0.00000000000E+00 0. -1.
         -1   -1    0    0    0  501 -0.00000000000E+00 -0.00000000000E+00 -0.34057277238E+03  0.34057277238E+03  0.00000000000E+00 0.  1.
         23    2    1    2    0    0  0.28946063429E+02  0.33742857402E+02 -0.35767641172E+02  0.11554835772E+03  0.10047708099E+03 0.  0.
          5    1    1    2  502    0 -0.63991156814E+01  0.35238144751E+02 -0.18472285216E+02  0.40513864887E+02  0.41800000000E+01 0. -1.
         -5    1    1    2    0  502 -0.22546947747E+02 -0.68981002153E+02 -0.22981026109E+03  0.24103313468E+03  0.41800000000E+01 0. -1.
        -11    1    3    3    0    0  0.25318202104E+02 -0.33322406138E+02 -0.20816670291E+02  0.46741072630E+02  0.00000000000E+00 0. -1.
         11    1    3    3    0    0  0.36278613247E+01  0.67065263540E+02 -0.14950970881E+02  0.68807285092E+02  0.00000000000E+00 0.  1.
</event>
<event>
 7    1  0.6145388E-006  0.1029169E+03  0.7561462E-02  0.1274279E+00
         -2   -1    0    0    0  501 -0.00000000000E+00  0.00000000000E+00  0.97785991461E+02  0.97785991461E+02  0.00000000000E+00 0.  1.
          2   -1    0    0  501    0  0.00000000000E+00 -0.00000000000E+00 -0.35087424900E+03  0.35087424900E+03  0.00000000000E+00 0. -1.
         23    2    1    2    0    0  0.29230216309E+01  0.45127134601E+02 -0.26178379030E+03  0.28020516167E+03  0.89102061876E+02 0.  0.
          5    1    1    2  502    0  0.50145786062E+02 -0.32691299965E+02 -0.57155160890E+02  0.82870415527E+02  0.41800000000E+01 0. -1.
         -5    1    1    2    0  502 -0.53068807693E+02 -0.12435834636E+02  0.65850693646E+02  0.85584663268E+02  0.41800000000E+01 0.  1.
        -11    1    3    3    0    0  0.40167310489E+01 -0.22837101946E+02 -0.12864969994E+03  0.13072265545E+03  0.00000000000E+00 0.  1.
         11    1    3    3    0    0 -0.10937094180E+01  0.67964236547E+02 -0.13313409036E+03  0.14948250622E+03  0.00000000000E+00 0. -1.
</event>
<event>
 7    1  0.6145388E-006  0.1048511E+03  0.7561462E-02  0.1270413E+00
          2   -1    0    0  501    0  0.00000000000E+00  0.00000000000E+00  0.33129439684E+03  0.33129439684E+03  0.00000000000E+00 0. -1.
         -2   -1    0    0    0  501 -0.00000000000E+00 -0.00000000000E+00 -0.35898924475E+02  0.35898924475E+02  0.00000000000E+00 0.  1.
         23    2    1    2    0    0 -0.11533563352E+02 -0.30381286777E+01  0.12076193803E+03  0.15205411925E+03  0.91622902125E+02 0.  0.
          5    1    1    2  502    0 -0.35589284937E+02 -0.43767956540E+02  0.10194885911E+03  0.11659019468E+03  0.41800000000E+01 0.  1.
         -5    1    1    2    0  502  0.47122848289E+02  0.46806085218E+02  0.72684675225E+02  0.98549007386E+02  0.41800000000E+01 0.  1.
        -11    1    3    3    0    0  0.13551676965E+02  0.36963935666E+02  0.29138475348E+02  0.48979906432E+02  0.00000000000E+00 0. -1.
         11    1    3    3    0    0 -0.25085240317E+02 -0.40002064344E+02  0.91623462687E+02  0.10307421282E+03  0.00000000000E+00 0.  1.
</event>
<event>
 7    1  0.6145388E-006  0.9699731E+02  0.7561462E-02  0.1286740E+00
          2   -1    0    0  501    0  0.00000000000E+00  0.00000000000E+00  0.58237468178E+03  0.58237468178E+03  0.00000000000E+00 0. -1.
         -2   -1    0    0    0  501 -0.00000000000E+00 -0.00000000000E+00 -0.30432697350E+02  0.30432697350E+02  0.00000000000E+00 0.  1.
         23    2    1    2    0    0  0.49141433092E+02  0.45892946892E+02  0.33944420304E+03  0.35722063831E+03  0.88674542194E+02 0.  0.
          5    1    1    2  502    0 -0.41881273168E+02  0.21448789861E+02  0.19678126993E+02  0.51174141034E+02  0.41800000000E+01 0. -1.
         -5    1    1    2    0  502 -0.72601599242E+01 -0.67341736753E+02  0.19281965440E+03  0.20441259979E+03  0.41800000000E+01 0. -1.
        -11    1    3    3    0    0  0.23290535656E+02 -0.31036117176E+01  0.14548559661E+02  0.27635883287E+02  0.00000000000E+00 0.  1.
         11    1    3    3    0    0  0.25850897436E+02  0.48996558610E+02  0.32489564338E+03  0.32958475502E+03  0.00000000000E+00 0. -1.
</event>
<event>
 7    1  0.6145388E-006  0.3250515E+03  0.7561462E-02  0.1073348E+00
          1   -1    0    0  501    0  0.00000000000E+00  0.00000000000E+00  0.51805372254E+03  0.51805372254E+03  0.00000000000E+00 0. -1.
         -1   -1    0    0    0  501 -0.00000000000E+00 -0.00000000000E+00 -0.24337775426E+03  0.24337775426E+03  0.00000000000E+00 0.  1.
         23    2    1    2    0    0  0.29597659431E+03 -0.10296954758E+03  0.27101346742E+03  0.42398793369E+03  0.90069952160E+02 0.  0.
          5    1    1    2  502    0 -0.10922315532E+03  0.10000448236E+03  0.21788858474E+02  0.14974251535E+03  0.41800000000E+01 0. -1.
         -5    1    1    2    0  502 -0.18675343899E+03  0.29650652201E+01 -0.18126357616E+02  0.18770102777E+03  0.41800000000E+01 0. -1.
        -11    1    3    3    0    0  0.23223173265E+03 -0.65944589878E+02  0.15617653635E+03  0.28752630678E+03  0.00000000000E+00 0.  1.
         11    1    3    3    0    0  0.63744861654E+02 -0.37024957700E+02  0.11483693107E+03  0.13646162690E+03  0.00000000000E+00 0. -1.
</event>
<event>
 7    1  0.6145388E-006  0.1361739E+03  0.7561462E-02  0.1218572E+00
          2   -1    0    0  501    0  0.00000000000E+00  0.00000000000E+00  0.54216495234E+03  0.54216495234E+03  0.00000000000E+00 0. -1.
         -2   -1    0    0    0  501 -0.00000000000E+00 -0.00000000000E+00 -0.40529767390E+02  0.40529767390E+02  0.00000000000E+00 0.  1.
         23    2    1    2    0    0 -0.24833932035E+02 -0.99454073394E+02  0.25695889298E+03  0.28940144097E+03  0.84955779431E+02 0.  0.
          5    1    1    2  502    0 -0.99769487619E+01 -0.27685986224E+02  0.40853359352E+02  0.50522497069E+02  0.41800000000E+01 0.  1.
         -5    1    1    2    0  502  0.34810880797E+02  0.12714005962E+03  0.20382293262E+03  0.24277078169E+03  0.41800000000E+01 0.  1.
        -11    1    3    3    0    0 -0.35623163658E+02 -0.59465366572E+02  0.22941877382E+03  0.23966249892E+03  0.00000000000E+00 0. -1.
         11    1    3    3    0    0  0.10789231623E+02 -0.39988706822E+02  0.27540119162E+02  0.49738942045E+02  0.00000000000E+00 0.  1.
</event>
<event>
 7    1  0.6145388E-006  0.8511670E+02  0.7561462E-02  0.1315128E+00
          4   -1    0    0  501    0  0.00000000000E+00  0.00000000000E+00  0.83903704551E+02  0.83903704551E+02  0.00000000000E+00 0. -1.
         -4   -1    0    0    0  501 -0.00000000000E+00 -0.00000000000E+00 -0.17921760882E+03  0.17921760882E+03  0.00000000000E+00 0.  1.
         23    2    1    2    0    0  0.44633498007E+02 -0.31334205564E+02 -0.15544798097E+02  0.10502694298E+03  0.88402694649E+02 0.  0.
          5    1    1    2  502    0 -0.42987626608E+02  0.46826822877E+02  0.12080537086E+02  0.64839024965E+02  0.41800000000E+01 0. -1.
         -5    1    1    2    0  502 -0.16458713990E+01 -0.15492617313E+02 -0.91849643257E+02  0.93255345424E+02  0.41800000000E+01 0. -1.
        -11    1    3    3    0    0  0.17575083098E+02 -0.52934745181E+02 -0.34471391007E+02  0.65568647929E+02  0.00000000000E+00 0.  1.
         11    1    3    3    0    0  0.27058414910E+02  0.21600539617E+02  0.18926592910E+02  0.39458295051E+02  0.00000000000E+00 0. -1.
</event>
<event>
 7    1  0.6145388E-006  0.8621060E+02  0.7561462E-02  0.1312297E+00
          2   -1    0    0  501    0  0.00000000000E+00  0.00000000000E+00  0.31908596113E+03  0.31908596113E+03  0.00000000000E+00 0.  1.
         -2   -1    0    0    0  501 -0.00000000000E+00 -0.00000000000E+00 -0.38092896514E+02  0.38092896514E+02  0.00000000000E+00 0. -1.
         23    2    1    2    0    0 -0.90922071165E+01 -0.31113458885E+01  0.14945525233E+03  0.17540599398E+03  0.91312877347E+02 0.  0.
          5    1    1    2  502    0 -0.93179551774E+01 -0.47169036483E+02  0.10552266163E+02  0.49402074983E+02  0.41800000000E+01 0.  1.
         -5    1    1    2    0  502  0.18410162294E+02  0.50280382372E+02  0.12098554612E+03  0.13237078868E+03  0.41800000000E+01 0.  1.
        -11    1    3    3    0    0  0.26680390281E+02 -0.17484836420E+02  0.12666774979E+03  0.13062266865E+03  0.00000000000E+00 0.  1.
         11    1    3    3    0    0 -0.35772597398E+02  0.14373490531E+02  0.22787502546E+02  0.44783325322E+02  0.00000000000E+00 0. -1.
</event>
<event>
 7    1  0.6145388E-006  0.1070299E+03  0.7561462E-02  0.1266171E+00
          2   -1    0    0  501    0  0.00000000000E+00  0.00000000000E+00  0.83485313872E+03  0.83485313872E+03  0.00000000000E+00 0. -1.
         -2   -1    0    0    0  501 -0.00000000000E+00 -0.00000000000E+00 -0.23825483704E+02  0.23825483704E+02  0.00000000000E+00 0.  1.
         23    2    1    2    0    0  0.32623762385E-01 -0.89098945267E+02  0.38822457642E+03  0.40884728987E+03  0.92190897513E+02 0.  0.
          5    1    1    2  502    0 -0.10992557468E+01  0.26035985818E+02  0.44925336307E+01  0.26771928939E+02  0.41800000000E+01 0.  1.
         -5    1    1    2    0  502  0.10666319844E+01  0.63062959449E+02  0.41831054497E+03  0.42305940362E+03  0.41800000000E+01 0.  1.
        -11    1    3    3    0    0 -0.41298878520E+02 -0.25275553448E+02  0.10557695497E+03  0.11615052471E+03  0.00000000000E+00 0. -1.
         11    1    3    3    0    0  0.41331502283E+02 -0.63823391819E+02  0.28264762145E+03  0.29269676516E+03  0.00000000000E+00 0.  1.
</event>
<event>
 7    1  0.6145388E-006  0.1326030E+03  0.7561462E-02  0.1223644E+00
         -4   -1    0    0    0  501 -0.00000000000E+00  0.00000000000E+00  0.94653444183E+02  0.94653444183E+02  0.00000000000E+00 0. -1.
          4   -1    0    0  501    0  0.00000000000E+00 -0.00000000000E+00 -0.21571696638E+03  0.21571696638E+03  0.00000000000E+00 0.  1.
         23    2    1    2    0    0 -0.85027294531E+02 -0.51415207052E+00 -0.95645313466E+02  0.15699887438E+03  0.90943473656E+02 0.  0.
          5    1    1    2  502    0 -0.18418577184E+02 -0.36290253333E+02 -0.16005945430E+01  0.40942163784E+02  0.41800000000E+01 0. -1.
         -5    1    1    2    0  502  0.10344587172E+03  0.36804405403E+02 -0.23817614186E+02  0.11242937240E+03  0.41800000000E+01 0. -1.
        -11    1    3    3    0    0 -0.39875068544E+02  0.37991462413E+02 -0.77246877454E+02  0.94870714049E+02  0.00000000000E+00 0.  1.
         11    1    3    3    0    0 -0.45152225987E+02 -0.38505614484E+02 -0.18398436012E+02  0.62128160330E+02  0.00000000000E+00 0. -1.
</event>
<event>
 7    1  0.6145388E-006  0.1059895E+03  0.7561462E-02  0.1268182E+00
         -2   -1    0    0    0  501 -0.00000000000E+00  0.00000000000E+00  0.37276642361E+02  0.37276642361E+02  0.00000000000E+00 0.  1.
          2   -1    0    0  501    0  0.00000000000E+00 -0.00000000000E+00 -0.47333683651E+03  0.47333683651E+03  0.00000000000E+00 0. -1.
         23    2    1    2    0    0  0.24289225248E+02  0.21060463932E+02 -0.32889504501E+03  0.34278698386E+03  0.91090373071E+02 0.  0.
          5    1    1    2  502    0  0.12784404225E+02 -0.61800059445E+02 -0.23299558252E+02  0.67402004077E+02  0.41800000000E+01 0. -1.
         -5    1    1    2    0  502 -0.37073629474E+02  0.40739595514E+02 -0.83865590885E+02  0.10042449093E+03  0.41800000000E+01 0. -1.
        -11    1    3    3    0    0 -0.33370147432E+02  0.61164860848E+01 -0.80634757779E+02  0.87481096836E+02  0.00000000000E+00 0.  1.
         11    1    3    3    0    0  0.57659372680E+02  0.14943977847E+02 -0.24826028723E+03  0.25530588702E+03  0.00000000000E+00 0. -1.
</event>
<event>
 7    1  0.6145388E-006  0.1968338E+03  0.7561462E-02  0.1152438E+00
          2   -1    0    0  501    0  0.00000000000E+00  0.00000000000E+00  0.53529953212E+03  0.53529953212E+03  0.00000000000E+00 0. -1.
         -2   -1    0    0    0  501 -0.00000000000E+00 -0.00000000000E+00 -0.79084242699E+02  0.79084242699E+02  0.00000000000E+00 0.  1.
         23    2    1    2    0    0  0.27961091440E+02  0.17036169788E+03  0.25716226517E+03  0.32271103421E+03  0.90581732371E+02 0.  0.
          5    1    1    2  502    0  0.20870925368E+02 -0.16192957098E+03  0.15697548826E+03  0.22652937514E+03  0.41800000000E+01 0.  1.
         -5    1    1    2    0  502 -0.48832016808E+02 -0.84321268962E+01  0.42077535986E+02  0.65143365465E+02  0.41800000000E+01 0.  1.
        -11    1    3    3    0    0 -0.15099132109E+02  0.66258320286E+02  0.42135396647E+02  0.79959617609E+02  0.00000000000E+00 0.  1.
         11    1    3    3    0    0  0.43060223549E+02  0.10410337759E+03  0.21502686852E+03  0.24275141661E+03  0.00000000000E+00 0. -1.
</event>
<event>
 7    1  0.6145388E-006  0.8084462E+02  0.7561462E-02  0.1326671E+00
         -3   -1    0    0    0  501 -0.00000000000E+00  0.00000000000E+00  0.29286818749E+03  0.29286818749E+03  0.00000000000E+00 0.  1.
          3   -1    0    0  501    0  0.00000000000E+00 -0.00000000000E+00 -0.40997398787E+02  0.40997398787E+02  0.00000000000E+00 0. -1.
         23    2    1    2    0    0 -0.10059914609E+02 -0.37711171757E+01  0.85618059922E+02  0.12553265020E+03  0.91173301330E+02 0.  0.
          5    1    1    2  502    0  0.30374538421E+02 -0.55133396109E+02  0.85143213048E+02  0.10596765110E+03  0.41800000000E+01 0. -1.
         -5    1    1    2    0  502 -0.20314623812E+02  0.58904513285E+02  0.81109515732E+02  0.10236528498E+03  0.41800000000E+01 0. -1.
        -11    1    3    3    0    0 -0.22207193117E+02 -0.75136647001E+01  0.10207837112E+03  0.10473589849E+03  0.00000000000E+00 0.  1.
         11    1    3    3    0    0  0.12147278507E+02  0.37425475244E+01 -0.16460311194E+02  0.20796751710E+02  0.00000000000E+00 0. -1.
</event>
<event>
 7    1  0.6145388E-006  0.2252527E+03  0.7561462E-02  0.1130026E+00
          1   -1    0    0  501    0  0.00000000000E+00  0.00000000000E+00  0.41706791099E+02  0.41706791099E+02  0.00000000000E+00 0. -1.
         -1   -1    0    0    0  501 -0.00000000000E+00 -0.00000000000E+00 -0.13321351851E+04  0.13321351851E+04  0.00000000000E+00 0.  1.
         23    2    1    2    0    0 -0.19545238042E+03  0.42844685498E+02 -0.47141193268E+03  0.52150862143E+03  0.98512597483E+02 0.  0.
          5    1    1    2  502    0  0.27987435862E+02  0.39925370420E+02 -0.15655127661E+03  0.16402166435E+03  0.41800000000E+01 0. -1.
         -5    1    1    2    0  502  0.16746494456E+03 -0.82770055919E+02 -0.66246518469E+03  0.68831169039E+03  0.41800000000E+01 0. -1.
        -11    1    3    3    0    0 -0.36540120247E+02 -0.22482604990E+02 -0.16208559599E+03  0.16766749339E+03  0.00000000000E+00 0.  1.
         11    1    3    3    0    0 -0.15891226017E+03  0.65327290488E+02 -0.30932633669E+03  0.35384112803E+03  0.00000000000E+00 0. -1.
</event>
<event>
 7    1  0.6145388E-006  0.1188539E+03  0.7561462E-02  0.1245000E+00
         -2   -1    0    0    0  501 -0.00000000000E+00  0.00000000000E+00  0.54873881320E+02  0.54873881320E+02  0.00000000000E+00 0.  1.
          2   -1    0    0  501    0  0.00000000000E+00 -0.00000000000E+00 -0.44584068829E+03  0.44584068829E+03  0.00000000000E+00 0. -1.
         23    2    1    2    0    0 -0.52400234789E+02 -0.71451348567E+02 -0.29165060374E+03  0.31806628420E+03  0.90857067242E+02 0.  0.
          5    1    1    2  502    0  0.78374401115E+02  0.87855295117E+02 -0.95013237904E+02  0.15134757153E+03  0.41800000000E+01 0. -1.
         -5    1    1    2    0  502 -0.25974166326E+02 -0.16403946550E+02 -0.43029653264E+01  0.31300713879E+02  0.41800000000E+01 0. -1.
        -11    1    3    3    0    0 -0.30365293157E+02 -0.35340697204E+02 -0.35845710423E+02  0.58787165803E+02  0.00000000000E+00 0.  1.
         11    1    3    3    0    0 -0.22034941632E+02 -0.36110651363E+02 -0.25580489331E+03  0.25927911840E+03  0.00000000000E+00 0. -1.
</event>
<event>
 7    1  0.6145388E-006  0.1141944E+03  0.7561462E-02  0.1252994E+00
          2   -1    0    0  501    0  0.00000000000E+00  0.00000000000E+00  0.21047437127E+03  0.21047437127E+03  0.00000000000E+00 0. -1.
         -2   -1    0    0    0  501 -0.00000000000E+00 -0.00000000000E+00 -0.64024081123E+02  0.64024081123E+02  0.00000000000E+00 0.  1.
         23    2    1    2    0    0 -0.16170218180E+02  0.39108000492E+02  0.60269308672E+02  0.11680717823E+03  0.90667610868E+02 0.  0.
          5    1    1    2  502    0  0.11919038481E+02 -0.83099650324E+02  0.38212754137E+02  0.92332563817E+02  0.41800000000E+01 0. -1.
         -5    1    1    2    0  502  0.42511796991E+01  0.43991649832E+02  0.47968227342E+02  0.65358710346E+02  0.41800000000E+01 0. -1.
        -11    1    3    3    0    0  0.20945813134E+02 -0.20766556628E+02  0.20389943986E+02  0.35857032473E+02  0.00000000000E+00 0. -1.
         11    1    3    3    0    0 -0.37116031313E+02  0.59874557121E+02  0.39879364686E+02  0.80950145760E+02  0.00000000000E+00 0.  1.
</event>
<event>
 7    1  0.6145388E-006  0.1116552E+03  0.7561462E-02  0.1257535E+00
          2   -1    0    0  501    0  0.00000000000E+00  0.00000000000E+00  0.92588362143E+02  0.92588362143E+02  0.00000000000E+00 0. -1.
         -2   -1    0    0    0  501 -0.00000000000E+00 -0.00000000000E+00 -0.18528648986E+03  0.18528648986E+03  0.00000000000E+00 0.  1.
         23    2    1    2    0    0 -0.48133876103E+02  0.53601179746E+02 -0.39349982462E+02  0.12398044027E+03  0.92912711459E+02 0.  0.
          5    1    1    2  502    0  0.58794172383E+02  0.21915488757E+02 -0.44427100852E+02  0.76995344299E+02  0.41800000000E+01 0. -1.
         -5    1    1    2    0  502 -0.10660296279E+02 -0.75516668504E+02 -0.89210444007E+01  0.76899067432E+02  0.41800000000E+01 0. -1.
        -11    1    3    3    0    0 -0.53872226820E+02  0.34194211084E+02 -0.65148790228E+02  0.91191149583E+02  0.00000000000E+00 0.  1.
         11    1    3    3    0    0  0.57383507163E+01  0.19406968662E+02  0.25798807766E+02  0.32789290686E+02  0.00000000000E+00 0. -1.
</event>
<event>
 7    1  0.6145388E-006  0.1053297E+03  0.7561462E-02  0.1269471E+00
         -2   -1    0    0    0  501 -0.00000000000E+00  0.00000000000E+00  0.41792134152E+03  0.41792134152E+03  0.00000000000E+00 0.  1.
          2   -1    0    0  501    0  0.00000000000E+00 -0.00000000000E+00 -0.31815143121E+02  0.31815143121E+02  0.00000000000E+00 0. -1.
         23    2    1    2    0    0 -0.43911114662E+01 -0.44038657568E+02  0.17092015972E+03  0.19693098326E+03  0.87232023642E+02 0.  0.
          5    1    1    2  502    0 -0.87000920676E+01  0.78439877960E+02  0.19546706475E+03  0.21083963540E+03  0.41800000000E+01 0. -1.
         -5    1    1    2    0  502  0.13091203534E+02 -0.34401220392E+02  0.19718973934E+02  0.41965865980E+02  0.41800000000E+01 0. -1.
        -11    1    3    3    0    0  0.37062316836E+02 -0.37306182964E+02  0.11936646634E+03  0.13043665092E+03  0.00000000000E+00 0.  1.
         11    1    3    3    0    0 -0.41453428302E+02 -0.67324746039E+01  0.51553693377E+02  0.66494332338E+02  0.00000000000E+00 0. -1.
</event>
<event>
 6    1  0.6145388E-006  0.8950590E+02  0.7561462E-02  0.1304053E+00
         -2   -1    0    0    0  501 -0.00000000000E+00  0.00000000000E+00  0.22075489721E+03  0.22075489721E+03  0.00000000000E+00 0.  1.
          2   -1    0    0  501    0  0.00000000000E+00 -0.00000000000E+00 -0.54632672477E+02  0.54632672477E+02  0.00000000000E+00 0. -1.
          5    1    1    2  502    0  0.77862542211E+02 -0.81664899683E+01  0.14156605759E+03  0.16182610450E+03  0.41800000000E+01 0. -1.
         -5    1    1    2    0  502 -0.35425090417E+02  0.20829184596E+02  0.16310359177E+02  0.44410496265E+02  0.41800000000E+01 0. -1.
        -11    1    1    2    0    0 -0.38847319960E+02  0.68645557736E+01  0.21837323134E+02  0.45089966464E+02  0.00000000000E+00 0.  1.
         11    1    1    2    0    0 -0.35901318345E+01 -0.19527250402E+02 -0.13591515163E+02  0.24061002458E+02  0.00000000000E+00 0. -1.
</event>
<event>
 7    1  0.6145388E-006  0.1331482E+03  0.7561462E-02  0.1222858E+00
         -2   -1    0    0    0  501 -0.00000000000E+00  0.00000000000E+00  0.32531424250E+02  0.32531424250E+02  0.00000000000E+00 0.  1.
          2   -1    0    0  501    0  0.00000000000E+00 -0.00000000000E+00 -0.67040170488E+03  0.67040170488E+03  0.00000000000E+00 0. -1.
         23    2    1    2    0    0 -0.82233456005E+02  0.44533859030E+02 -0.37587801072E+03  0.39792238839E+03  0.91172048047E+02 0.  0.
          5    1    1    2  502    0  0.74912125598E+01 -0.61803490480E+02 -0.51392814062E+02  0.80836151803E+02  0.41800000000E+01 0. -1.
         -5    1    1    2    0  502  0.74742243445E+02  0.17269631450E+02 -0.21059945584E+03  0.22417458894E+03  0.41800000000E+01 0. -1.
        -11    1    3    3    0    0 -0.32002864900E+02 -0.25479359604E+02 -0.16767270268E+03  0.17259060331E+03  0.00000000000E+00 0. -1.
         11    1    3    3    0    0 -0.50230591105E+02  0.70013218634E+02 -0.20820530805E+03  0.22533178508E+03  0.00000000000E+00 0.  1.
</event>
<event>
 7    1  0.6145388E-006  0.1336931E+03  0.7561462E-02  0.1222076E+00
          1   -1    0    0  501    0  0.00000000000E+00  0.00000000000E+00  0.64830971919E+02  0.64830971919E+02  0.00000000000E+00 0. -1.
         -1   -1    0    0    0  501 -0.00000000000E+00 -0.00000000000E+00 -0.32442981794E+03  0.32442981794E+03  0.00000000000E+00 0.  1.
         23    2    1    2    0    0  0.57373891818E+02 -0.56978374645E+02 -0.52148869903E+02  0.13387566037E+03  0.93085386439E+02 0.  0.
          5    1    1    2  502    0 -0.47326190707E+02  0.96356639844E+02 -0.13912023351E+03  0.17577338292E+03  0.41800000000E+01 0.  1.
         -5    1    1    2    0  502 -0.10047701110E+02 -0.39378265200E+02 -0.68329742604E+02  0.79611746571E+02  0.41800000000E+01 0.  1.
        -11    1    3    3    0    0 -0.16404101483E+02 -0.40227013734E+02 -0.36219413924E+02  0.56561056606E+02  0.00000000000E+00 0.  1.
         11    1    3    3    0    0  0.73777993300E+02 -0.16751360911E+02 -0.15929455979E+02  0.77314603767E+02  0.00000000000E+00 0. -1.
</event>
<event>
 7    1  0.6145388E-006  0.1087272E+03  0.7561462E-02  0.1262945E+00
          2   -1    0    0  501    0  0.00000000000E+00  0.00000000000E+00  0.46547710925E+03  0.46547710925E+03  0.00000000000E+00 0.  1.
         -2   -1    0    0    0  501 -0.00000000000E+00 -0.00000000000E+00 -0.43899884488E+02  0.43899884488E+02  0.00000000000E+00 0. -1.
         23    2    1    2    0    0 -0.33335058211E+02 -0.74092591749E+02  0.27480189501E+03  0.30011300579E+03  0.89167238853E+02 0.  0.
          5    1    1    2  502    0  0.69922440738E+02  0.35795026286E+02  0.36212985929E+02  0.86598408620E+02  0.41800000000E+01 0.  1.
         -5    1    1    2    0  502 -0.36587382528E+02  0.38297565463E+02  0.11056234382E+03  0.12266557933E+03  0.41800000000E+01 0.  1.
        -11    1    3    3    0    0 -0.31676956833E+01 -0.40049768601E+02  0.23865605595E+03  0.24201390725E+03  0.00000000000E+00 0.  1.
         11    1    3    3    0    0 -0.30167362527E+02 -0.34042823148E+02  0.36145839063E+02  0.58099098541E+02  0.00000000000E+00 0. -1.
</event>
<event>
 7    1  0.6145388E-006  0.1902344E+03  0.7561462E-02  0.1158250E+00
          1   -1    0    0  501    0  0.00000000000E+00  0.00000000000E+00  0.37816502977E+03  0.37816502977E+03  0.00000000000E+00 0. -1.
         -1   -1    0    0    0  501 -0.00000000000E+00 -0.00000000000E+00 -0.21735550334E+03  0.21735550334E+03  0.00000000000E+00 0.  1.
         23    2    1    2    0    0 -0.75741769975E+02 -0.14736836691E+03  0.29386541568E+03  0.34893277239E+03  0.89123205905E+02 0.  0.
          5    1    1    2  502    0  0.57379968149E+02  0.51153956330E+01 -0.67468609034E+02  0.88815052904E+02  0.41800000000E+01 0.  1.
         -5    1    1    2    0  502  0.18361801826E+02  0.14225297128E+03 -0.65587280211E+02  0.15777270781E+03  0.41800000000E+01 0.  1.
        -11    1    3    3    0    0  0.35750878542E+01 -0.64162614356E+02  0.58086533516E+02  0.86623713325E+02  0.00000000000E+00 0.  1.
         11    1    3    3    0    0 -0.79316857829E+02 -0.83205752557E+02  0.23577888216E+03  0.26230905907E+03  0.00000000000E+00 0. -1.
</event>
<event>
 7    1  0.6145388E-006  0.1436562E+03  0.7561462E-02  0.1208492E+00
          2   -1    0    0  501    0  0.00000000000E+00  0.00000000000E+00  0.96857458801E+03  0.96857458801E+03  0.00000000000E+00 0. -1.
         -2   -1    0    0    0  501 -0.00000000000E+00 -0.00000000000E+00 -0.24886967000E+02  0.24886967000E+02  0.00000000000E+00 0.  1.
         23    2    1    2    0    0 -0.80861848142E+02  0.69516686069E+02  0.53010743599E+03  0.54841097873E+03  0.91484970243E+02 0.  0.
          5    1    1    2  502    0  0.41875634687E+02  0.24409814409E+02  0.60730822804E+02  0.77814606973E+02  0.41800000000E+01 0.  1.
         -5    1    1    2    0  502  0.38986213455E+02 -0.93926500478E+02  0.35284936222E+03  0.36723596931E+03  0.41800000000E+01 0.  1.
        -11    1    3    3    0    0 -0.51891172441E+02 -0.94695181880E+01  0.14707948705E+03  0.15625217138E+03  0.00000000000E+00 0.  1.
         11    1    3    3    0    0 -0.28970675701E+02  0.78986204257E+02  0.38302794894E+03  0.39215880735E+03  0.00000000000E+00 0. -1.
</event>
<event>
 7    1  0.6145388E-006  0.1539189E+03  0.7561462E-02  0.1195739E+00
         -2   -1    0    0    0  501 -0.00000000000E+00  0.00000000000E+00  0.47886921876E+02  0.47886921876E+02  0.00000000000E+00 0.  1.
          2   -1    0    0  501    0  0.00000000000E+00 -0.00000000000E+00 -0.72839013582E+03  0.72839013582E+03  0.00000000000E+00 0. -1.
         23    2    1    2    0    0 -0.77064237856E+02  0.12826507433E+03 -0.38191823752E+03  0.41963938725E+03  0.88571152942E+02 0.  0.
          5    1    1    2  502    0  0.82309506076E+02 -0.12693663692E+03 -0.16895773628E+03  0.22683023086E+03  0.41800000000E+01 0.  1.
         -5    1    1    2    0  502 -0.52452682196E+01 -0.13284374131E+01 -0.12962724014E+03  0.12980743959E+03  0.41800000000E+01 0.  1.
        -11    1    3    3    0    0 -0.43779371238E+02  0.70502979935E+02 -0.10002513111E+03  0.12997049811E+03  0.00000000000E+00 0. -1.
         11    1    3    3    0    0 -0.33284866618E+02  0.57762094395E+02 -0.28189310641E+03  0.28966888914E+03  0.00000000000E+00 0.  1.
</event>
<event>
 7    1  0.6145388E-006  0.6002109E+02  0.7561462E-02  0.1397743E+00
          2   -1    0    0  501    0  0.00000000000E+00  0.00000000000E+00  0.30214244294E+02  0.30214244294E+02  0.00000000000E+00 0.  1.
         -2   -1    0    0    0  501 -0.00000000000E+00 -0.00000000000E+00 -0.41042690738E+03  0.41042690738E+03  0.00000000000E+00 0. -1.
         23    2    1    2    0    0  0.82325631521E+01  0.11405594370E+02 -0.13573052308E+03  0.16565271918E+03  0.93915844228E+02 0.  0.
          5    1    1    2  502    0 -0.10715159676E+02 -0.19247388577E+02  0.68824414947E+01  0.23454573431E+02  0.41800000000E+01 0. -1.
         -5    1    1    2    0  502  0.24825965236E+01  0.78417942070E+01 -0.25136458150E+03  0.25153385906E+03  0.41800000000E+01 0. -1.
        -11    1    3    3    0    0 -0.12436374356E+02  0.46243024277E+02 -0.42593275211E+02  0.64087969187E+02  0.00000000000E+00 0.  1.
         11    1    3    3    0    0  0.20668937508E+02 -0.34837429907E+02 -0.93137247870E+02  0.10156474999E+03  0.00000000000E+00 0. -1.
</event>
<event>
 7    1  0.6145388E-006  0.1562196E+03  0.7561462E-02  0.1193032E+00
         -1   -1    0    0    0  501 -0.00000000000E+00  0.00000000000E+00  0.45926844884E+02  0.45926844884E+02  0.00000000000E+00 0.  1.
          1   -1    0    0  501    0  0.00000000000E+00 -0.00000000000E+00 -0.54632019958E+03  0.54632019958E+03  0.00000000000E+00 0. -1.
         23    2    1    2    0    0  0.11409933928E+03 -0.13765703371E+02 -0.23954435049E+03  0.28096522048E+03  0.91388212876E+02 0.  0.
          5    1    1    2  502    0 -0.14039884202E+03  0.29836739855E+01 -0.20572559019E+03  0.24912091042E+03  0.41800000000E+01 0. -1.
         -5    1    1    2    0  502  0.26299502745E+02  0.10782029385E+02 -0.55123414021E+02  0.62160913568E+02  0.41800000000E+01 0. -1.
        -11    1    3    3    0    0  0.91955929660E+02  0.27846493585E+02 -0.18792553092E+03  0.21106237319E+03  0.00000000000E+00 0.  1.
         11    1    3    3    0    0  0.22143409618E+02 -0.41612196956E+02 -0.51618819566E+02  0.69902847284E+02  0.00000000000E+00 0. -1.
</event>
<event>
 7    1  0.6145388E-006  0.1152768E+03  0.7561462E-02  0.1251099E+00
          1   -1    0    0  501    0  0.00000000000E+00  0.00000000000E+00  0.11751138195E+03  0.11751138195E+03  0.00000000000E+00 0. -1.
         -1   -1    0    0    0  501 -0.00000000000E+00 -0.00000000000E+00 -0.18217374398E+03  0.18217374398E+03  0.00000000000E+00 0.  1.
         23    2    1    2    0    0 -0.90035056203E+02 -0.38410035134E+02 -0.26549071936E+02  0.13801654391E+03  0.93605934794E+02 0.  0.
          5    1    1    2  502    0  0.10070501750E+02 -0.12686231245E+02  0.36977265846E+02  0.40585047224E+02  0.41800000000E+01 0. -1.
         -5    1    1    2    0  502  0.79964554452E+02  0.51096266379E+02 -0.75090555940E+02  0.12108353479E+03  0.41800000000E+01 0.  1.
        -11    1    3    3    0    0 -0.64195418867E+02  0.90199802869E+01 -0.47202633008E+02  0.80190400990E+02  0.00000000000E+00 0. -1.
         11    1    3    3    0    0 -0.25839637335E+02 -0.47430015421E+02  0.20653561072E+02  0.57826142924E+02  0.00000000000E+00 0.  1.
</event>
<event>
 7    1  0.6145388E-006  0.1188323E+03  0.7561462E-02  0.1245036E+00
         -4   -1    0    0    0  501 -0.00000000000E+00  0.00000000000E+00  0.83141020572E+03  0.83141020572E+03  0.00000000000E+00 0. -1.
          4   -1    0    0  501    0  0.00000000000E+00 -0.00000000000E+00 -0.36554310314E+02  0.36554310314E+02  0.00000000000E+00 0.  1.
         23    2    1    2    0    0 -0.48277535258E+02  0.94739409349E+02  0.16359326438E+03  0.21570379194E+03  0.91973330994E+02 0.  0.
          5    1    1    2  502    0  0.37563233324E+02 -0.49008524562E+02  0.91636810834E+02  0.11057852177E+03  0.41800000000E+01 0.  1.
         -5    1    1    2    0  502  0.10714301935E+02 -0.45730884787E+02  0.53962582020E+03  0.54168220232E+03  0.41800000000E+01 0.  1.
        -11    1    3    3    0    0 -0.41797228352E+02  0.91514716363E+01  0.17429414629E+02  0.46201106321E+02  0.00000000000E+00 0.  1.
         11    1    3    3    0    0 -0.64803069068E+01  0.85587937713E+02  0.14616384975E+03  0.16950268562E+03  0.00000000000E+00 0. -1.
</event>
<event>
 7    1  0.6145388E-006  0.1412746E+03  0.7561462E-02  0.1211624E+00
          4   -1    0    0  501    0  0.00000000000E+00  0.00000000000E+00  0.63399066594E+03  0.63399066594E+03  0.00000000000E+00 0. -1.
         -4   -1    0    0    0  501 -0.00000000000E+00 -0.00000000000E+00 -0.42099481468E+02  0.42099481468E+02  0.00000000000E+00 0.  1.
         23    2    1    2    0    0 -0.20672491448E+02 -0.88794030596E+02  0.44366101058E+03  0.46177564216E+03  0.89943980398E+02 0.  0.
          5    1    1    2  502    0 -0.49157237681E+02  0.63122296198E+02  0.72009835494E+02  0.10772069022E+03  0.41800000000E+01 0.  1.
         -5    1    1    2    0  502  0.69829729129E+02  0.25671734398E+02  0.76220338399E+02  0.10659381503E+03  0.41800000000E+01 0.  1.
        -11    1    3    3    0    0  0.30313259032E+02 -0.64860428241E+02  0.23713191267E+03  0.24770408319E+03  0.00000000000E+00 0.  1.
         11    1    3    3    0    0 -0.50985750480E+02 -0.23933602354E+02  0.20652909792E+03  0.21407155897E+03  0.00000000000E+00 0. -1.
</event>
<event>
 7    1  0.6145388E-006  0.8746403E+02  0.7561462E-02  0.1309112E+00
         -1   -1    0    0    0  501 -0.00000000000E+00  0.00000000000E+00  0.86986219844E+02  0.86986219844E+02  0.00000000000E+00 0.  1.
          1   -1    0    0  501    0  0.00000000000E+00 -0.00000000000E+00 -0.22001370403E+03  0.22001370403E+03  0.00000000000E+00 0. -1.
         23    2    1    2    0    0 -0.35937241503E+01 -0.62733923812E+02 -0.12652866756E+03  0.16686224168E+03  0.88797769873E+02 0.  0.
          5    1    1    2  502    0 -0.23759262950E+02  0.18707891091E+01 -0.53294391503E+02  0.58530052054E+02  0.41800000000E+01 0.  1.
         -5    1    1    2    0  502  0.27352987101E+02  0.60863134703E+02  0.46795574875E+02  0.81607630140E+02  0.41800000000E+01 0.  1.
        -11    1    3    3    0    0 -0.29361195275E+02 -0.27546289071E+02 -0.11486479019E+03  0.12171605422E+03  0.00000000000E+00 0. -1.
         11    1    3    3    0    0  0.25767471125E+02 -0.35187634741E+02 -0.11663877367E+02  0.45146187459E+02  0.00000000000E+00 0.  1.
</event>
<event>
 7    1  0.6145388E-006  0.1741814E+03  0.7561462E-02  0.1173556E+00
          1   -1    0    0  501    0  0.00000000000E+00  0.00000000000E+00  0.40337903147E+03  0.40337903147E+03  0.00000000000E+00 0. -1.
         -1   -1    0    0    0  501 -0.00000000000E+00 -0.00000000000E+00 -0.16090881667E+03  0.16090881667E+03  0.00000000000E+00 0.  1.
         23    2    1    2    0    0  0.35138669434E+02 -0.59866982727E+02  0.27578874101E+03  0.29844463123E+03  0.90504069175E+02 0.  0.
          5    1    1    2  502    0 -0.13262506519E+03  0.62445275522E+02  0.29740904578E+02  0.14963560458E+03  0.41800000000E+01 0. -1.
         -5    1    1    2    0  502  0.97486395760E+02 -0.25782927946E+01 -0.63059430787E+02  0.11620761233E+03  0.41800000000E+01 0.  1.
        -11    1    3    3    0    0  0.25807318815E+02  0.14195942803E+02  0.32039448580E+02  0.43520900287E+02  0.00000000000E+00 0.  1.
         11    1    3    3    0    0  0.93313506193E+01 -0.74062925531E+02  0.24374929243E+03  0.25492373095E+03  0.00000000000E+00 0. -1.
</event>
<event>
 7    1  0.6145388E-006  0.1479352E+03  0.7561462E-02  0.1203033E+00
          2   -1    0    0  501    0  0.00000000000E+00  0.00000000000E+00  0.36400057886E+03  0.36400057886E+03  0.00000000000E+00 0. -1.
         -2   -1    0    0    0  501 -0.00000000000E+00 -0.00000000000E+00 -0.12372827703E+03  0.12372827703E+03  0.00000000000E+00 0.  1.
         23    2    1    2    0    0 -0.18460366713E+02 -0.10835527086E+03  0.28167835034E+03  0.31613609087E+03  0.92291305327E+02 0.  0.
          5    1    1    2  502    0  0.61841296470E+02  0.17999681125E+02 -0.28108910693E+02  0.70398279311E+02  0.41800000000E+01 0. -1.
         -5    1    1    2    0  502 -0.43380929757E+02  0.90355589733E+02 -0.13297137825E+02  0.10119448570E+03  0.41800000000E+01 0. -1.
        -11    1    3    3    0    0  0.21975494193E+01 -0.11024419508E+03  0.17056892751E+03  0.20310679654E+03  0.00000000000E+00 0.  1.
         11    1    3    3    0    0 -0.20657916132E+02  0.18889242191E+01  0.11110942283E+03  0.11302929433E+03  0.00000000000E+00 0. -1.
</event>
<event>
 7    1  0.6145388E-006  0.7972813E+02  0.7561462E-02  0.1329825E+00
         -2   -1    0    0    0  501 -0.00000000000E+00  0.00000000000E+00  0.22399240227E+02  0.22399240227E+02  0.00000000000E+00 0.  1.
          2   -1    0    0  501    0  0.00000000000E+00 -0.00000000000E+00 -0.47058145369E+03  0.47058145369E+03  0.00000000000E+00 0. -1.
         23    2    1    2    0    0  0.99365718758E+00 -0.15623796655E+02 -0.25264376088E+03  0.26032511799E+03  0.60788212447E+02 0.  0.
          5    1    1    2  502    0 -0.18403975753E+02  0.52500832544E+02 -0.18060609029E+03  0.18902665419E+03  0.41800000000E+01 0. -1.
         -5    1    1    2    0  502  0.17410318566E+02 -0.36877035889E+02 -0.14932362297E+02  0.43628921741E+02  0.41800000000E+01 0. -1.
        -11    1    3    3    0    0  0.21124815304E+02 -0.30879327788E+02 -0.14355884584E+03  0.14835407957E+03  0.00000000000E+00 0. -1.
         11    1    3    3    0    0 -0.20131158117E+02  0.15255531133E+02 -0.10908491503E+03  0.11197103842E+03  0.00000000000E+00 0.  1.
</event>
<event>
 7    1  0.6145388E-006  0.1316119E+03  0.7561462E-02  0.1225083E+00
         -2   -1    0    0    0  501 -0.00000000000E+00  0.00000000000E+00  0.12664724436E+03  0.12664724436E+03  0.00000000000E+00 0.  1.
          2   -1    0    0  501    0  0.00000000000E+00 -0.00000000000E+00 -0.17933405393E+03  0.17933405393E+03  0.00000000000E+00 0. -1.
         23    2    1    2    0    0 -0.24584359507E+02 -0.10126988388E+03 -0.29070080262E+02  0.14146285968E+03  0.91141049962E+02 0.  0.
          5    1    1    2  502    0  0.91233894841E+01  0.12770498665E+03 -0.45036034290E+01  0.12817782451E+03  0.41800000000E+01 0. -1.
         -5    1    1    2    0  502  0.15460970022E+02 -0.26435102771E+02 -0.19113125886E+02  0.36340614107E+02  0.41800000000E+01 0. -1.
        -11    1    3    3    0    0 -0.12000894926E+02 -0.51715905977E+02  0.31866164084E+02  0.61919373571E+02  0.00000000000E+00 0.  1.
         11    1    3    3    0    0 -0.12583464580E+02 -0.49553977903E+02 -0.60936244346E+02  0.79543486106E+02  0.00000000000E+00 0. -1.
</event>
<event>
 7    1  0.6145388E-006  0.2249037E+03  0.7561462E-02  0.1130279E+00
         -1   -1    0    0    0  501 -0.00000000000E+00  0.00000000000E+00  0.15183345361E+03  0.15183345361E+03  0.00000000000E+00 0.  1.
          1   -1    0    0  501    0  0.00000000000E+00 -0.00000000000E+00 -0.38110770161E+03  0.38110770161E+03  0.00000000000E+00 0. -1.
         23    2    1    2    0    0 -0.15142725058E+03 -0.12970271642E+03 -0.19783750574E+03  0.29547892356E+03  0.91733901716E+02 0.  0.
          5    1    1    2  502    0  0.11484991542E+03  0.14959117875E+03 -0.44132080569E+02  0.19373470718E+03  0.41800000000E+01 0.  1.
         -5    1    1    2    0  502  0.36577335163E+02 -0.19888462332E+02  0.12695338316E+02  0.43727524473E+02  0.41800000000E+01 0.  1.
        -11    1    3    3    0    0 -0.13638319250E+03 -0.61727043432E+02 -0.12990064874E+03  0.19820388904E+03  0.00000000000E+00 0.  1.
         11    1    3    3    0    0 -0.15044058084E+02 -0.67975672989E+02 -0.67936857003E+02  0.97275034522E+02  0.00000000000E+00 0. -1.
</event>
<event>
 7    1  0.6145388E-006  0.9428036E+02  0.7561462E-02  0.1292805E+00
          4   -1    0    0  501    0  0.00000000000E+00  0.00000000000E+00  0.27998295202E+03  0.27998295202E+03  0.00000000000E+00 0. -1.
         -4   -1    0    0    0  501 -0.00000000000E+00 -0.00000000000E+00 -0.78502170720E+02  0.78502170720E+02  0.00000000000E+00 0.  1.
         23    2    1    2    0    0 -0.62207190967E+02 -0.43004848465E+02  0.17144108095E+03  0.20925530899E+03  0.93148207188E+02 0.  0.
          5    1    1    2  502    0  0.32268984880E+01  0.15774212688E+02 -0.46127060368E+02  0.49034852482E+02  0.41800000000E+01 0. -1.
         -5    1    1    2    0  502  0.58980292479E+02  0.27230635777E+02  0.76166760715E+02  0.10019496127E+03  0.41800000000E+01 0. -1.
        -11    1    3    3    0    0  0.10408300698E+02 -0.31666863935E+02  0.15290342051E+02  0.36673117606E+02  0.00000000000E+00 0.  1.
         11    1    3    3    0    0 -0.72615491665E+02 -0.11337984529E+02  0.15615073890E+03  0.17258219138E+03  0.00000000000E+00 0. -1.
</event>
<event>
 7    1  0.6145388E-006  0.2437960E+03  0.7561462E-02  0.1117290E+00
         -2   -1    0    0    0  501 -0.00000000000E+00  0.00000000000E+00  0.59644479957E+02  0.59644479957E+02  0.00000000000E+00 0.  1.
          2   -1    0    0  501    0  0.00000000000E+00 -0.00000000000E+00 -0.11480221324E+04  0.11480221324E+04  0.00000000000E+00 0. -1.
         23    2    1    2    0    0 -0.22925739025E+03  0.32173405438E+02 -0.63358132518E+03  0.68223192975E+03  0.10208345290E+03 0.  0.
          5    1    1    2  502    0 -0.75259515018E+00 -0.25038655483E+02 -0.16218420825E+02  0.30133208292E+02  0.41800000000E+01 0. -1.
         -5    1    1    2    0  502  0.23000998540E+03 -0.71347499545E+01 -0.43857790642E+03  0.49530147430E+03  0.41800000000E+01 0. -1.
        -11    1    3    3    0    0 -0.10519625585E+03  0.22679157878E+02 -0.16179850338E+03  0.19431765783E+03  0.00000000000E+00 0.  1.
         11    1    3    3    0    0 -0.12406113440E+03  0.94942475600E+01 -0.47178282180E+03  0.48791427193E+03  0.00000000000E+00 0. -1.
</event>
<event>
 7    1  0.6145388E-006  0.1639679E+03  0.7561462E-02  0.1184289E+00
         -2   -1    0    0    0  501 -0.00000000000E+00  0.00000000000E+00  0.28503813877E+03  0.28503813877E+03  0.00000000000E+00 0. -1.
          2   -1    0    0  501    0  0.00000000000E+00 -0.00000000000E+00 -0.17655743454E+03  0.17655743454E+03  0.00000000000E+00 0.  1.
         23    2    1    2    0    0 -0.13087904084E+03  0.44254838332E+02 -0.90811468602E+02  0.18873468760E+03  0.91028816460E+02 0.  0.
          5    1    1    2  502    0 -0.12173320936E+02  0.22455194117E+02  0.14031677648E+02  0.29441227268E+02  0.41800000000E+01 0. -1.
         -5    1    1    2    0  502  0.14305236178E+03 -0.66710032448E+02  0.18526049519E+03  0.24341965845E+03  0.41800000000E+01 0. -1.
        -11    1    3    3    0    0 -0.10467325068E+03  0.16468029062E+02 -0.10385928752E+03  0.14837262886E+03  0.00000000000E+00 0.  1.
         11    1    3    3    0    0 -0.26205790162E+02  0.27786809270E+02  0.13047818920E+02  0.40362058743E+02  0.00000000000E+00 0. -1.
</event>
<event>
 7    1  0.6145388E-006  0.1134408E+03  0.7561462E-02  0.1254327E+00
         -2   -1    0    0    0  501 -0.00000000000E+00  0.00000000000E+00  0.42397642400E+02  0.42397642400E+02  0.00000000000E+00 0.  1.
          2   -1    0    0  501    0  0.00000000000E+00 -0.00000000000E+00 -0.58482838968E+03  0.58482838968E+03  0.00000000000E+00 0. -1.
         23    2    1    2    0    0 -0.17575947211E+02 -0.10799159260E+03 -0.31467712593E+03  0.34528549688E+03  0.90715394408E+02 0.  0.
          5    1    1    2  502    0  0.13292724612E+02  0.23613722971E+02  0.10311690463E+02  0.29293477096E+02  0.41800000000E+01 0.  1.
         -5    1    1    2    0  502  0.42832225986E+01  0.84377869626E+02 -0.23806531181E+03  0.25264705810E+03  0.41800000000E+01 0.  1.
        -11    1    3    3    0    0 -0.69635399873E+01 -0.10284196400E+03 -0.31693474827E+03  0.33327555432E+03  0.00000000000E+00 0. -1.
         11    1    3    3    0    0 -0.10612407224E+02 -0.51496286017E+01  0.22576223360E+01  0.12009942566E+02  0.00000000000E+00 0.  1.
</event>
<event>
 7    1  0.6145388E-006  0.1734638E+03  0.7561462E-02  0.1174283E+00
         -3   -1    0    0    0  501 -0.00000000000E+00  0.00000000000E+00  0.12696016787E+03  0.12696016787E+03  0.00000000000E+00 0.  1.
          3   -1    0    0  501    0  0.00000000000E+00 -0.00000000000E+00 -0.34383546585E+03  0.34383546585E+03  0.00000000000E+00 0. -1.
         23    2    1    2    0    0  0.12734630987E+03 -0.64216985452E+02 -0.22611066893E+03  0.28086489471E+03  0.86128686396E+02 0.  0.
          5    1    1    2  502    0 -0.14551301743E+03  0.68964223652E+02 -0.11691069540E+02  0.16150621007E+03  0.41800000000E+01 0. -1.
         -5    1    1    2    0  502  0.18166707554E+02 -0.47472382005E+01  0.20926440483E+02  0.28424528935E+02  0.41800000000E+01 0. -1.
        -11    1    3    3    0    0  0.95136429011E+01 -0.46485838297E+02 -0.64993957646E+02  0.80471467576E+02  0.00000000000E+00 0.  1.
         11    1    3    3    0    0  0.11783266697E+03 -0.17731147155E+02 -0.16111671128E+03  0.20039342714E+03  0.00000000000E+00 0. -1.
</event>
<event>
 7    1  0.6145388E-006  0.1099315E+03  0.7561462E-02  0.1260697E+00
          2   -1    0    0  501    0  0.00000000000E+00  0.00000000000E+00  0.48786187527E+03  0.48786187527E+03  0.00000000000E+00 0. -1.
         -2   -1    0    0    0  501 -0.00000000000E+00 -0.00000000000E+00 -0.42336518923E+02  0.42336518923E+02  0.00000000000E+00 0.  1.
         23    2    1    2    0    0  0.89516763014E+02  0.12125010685E+02  0.24885973378E+03  0.28022780292E+03  0.91848721768E+02 0.  0.
          5    1    1    2  502    0 -0.77568069622E+02 -0.15892116665E+02  0.21397772116E+03  0.22819575445E+03  0.41800000000E+01 0.  1.
         -5    1    1    2    0  502 -0.11948693393E+02  0.37671059802E+01 -0.17312098586E+02  0.21774836824E+02  0.41800000000E+01 0.  1.
        -11    1    3    3    0    0  0.23242876189E+02 -0.37812115709E+02  0.67497224718E+02  0.80782812111E+02  0.00000000000E+00 0.  1.
         11    1    3    3    0    0  0.66273886825E+02  0.49937126395E+02  0.18136250906E+03  0.19944499081E+03  0.00000000000E+00 0. -1.
</event>
<event>
 7    1  0.6145388E-006  0.1468386E+03  0.7561462E-02  0.1204412E+00
         -1   -1    0    0    0  501 -0.00000000000E+00  0.00000000000E+00  0.48433651848E+02  0.48433651848E+02  0.00000000000E+00 0.  1.
          1   -1    0    0  501    0  0.00000000000E+00 -0.00000000000E+00 -0.58521611043E+03  0.58521611043E+03  0.00000000000E+00 0. -1.
         23    2    1    2    0    0 -0.37053336344E+02  0.11559088009E+03 -0.32347957717E+03  0.35818749094E+03  0.94472432611E+02 0.  0.
          5    1    1    2  502    0  0.51053055043E+02 -0.11951323968E+03 -0.22253604137E+03  0.25773938581E+03  0.41800000000E+01 0. -1.
         -5    1    1    2    0  502 -0.13999718699E+02  0.39223595930E+01  0.92331599633E+01  0.17722885525E+02  0.41800000000E+01 0. -1.
        -11    1    3    3    0    0 -0.63800176496E+02  0.63774559715E+02 -0.14855438026E+03  0.17379890933E+03  0.00000000000E+00 0.  1.
         11    1    3    3    0    0  0.26746840153E+02  0.51816320377E+02 -0.17492519691E+03  0.18438858161E+03  0.00000000000E+00 0. -1.
</event>
<event>
 7    1  0.6145388E-006  0.1432043E+03  0.7561462E-02  0.1209081E+00
          2   -1    0    0  501    0  0.00000000000E+00  0.00000000000E+00  0.82273875559E+03  0.82273875559E+03  0.00000000000E+00 0. -1.
         -2   -1    0    0    0  501 -0.00000000000E+00 -0.00000000000E+00 -0.43847587289E+02  0.43847587289E+02  0.00000000000E+00 0.  1.
         23    2    1    2    0    0 -0.12175242901E+03 -0.44035621515E+02  0.41765320341E+03  0.44638026114E+03  0.89768308899E+02 0.  0.
          5    1    1    2  502    0  0.52577350789E+02  0.12243019027E+02  0.33533814340E+03  0.33968133912E+03  0.41800000000E+01 0. -1.
         -5    1    1    2    0  502  0.69175078226E+02  0.31792602487E+02  0.25899821496E+02  0.80524742620E+02  0.41800000000E+01 0.  1.
        -11    1    3    3    0    0 -0.66266203986E+02 -0.68562232017E+02  0.22408814589E+03  0.24353128460E+03  0.00000000000E+00 0.  1.
         11    1    3    3    0    0 -0.55486225029E+02  0.24526610503E+02  0.19356505751E+03  0.20284897654E+03  0.00000000000E+00 0. -1.
</event>
<event>
 7    1  0.6145388E-006  0.1309044E+03  0.7561462E-02  0.1226120E+00
          1   -1    0    0  501    0  0.00000000000E+00  0.00000000000E+00  0.68982090293E+03  0.68982090293E+03  0.00000000000E+00 0. -1.
         -1   -1    0    0    0  501 -0.00000000000E+00 -0.00000000000E+00 -0.30668362142E+02  0.30668362142E+02  0.00000000000E+00 0.  1.
         23    2    1    2    0    0  0.35820842231E+02  0.86569631723E+02  0.36184104025E+03  0.38460137603E+03  0.90619237240E+02 0.  0.
          5    1    1    2  502    0  0.34477407488E+02 -0.77541932064E+02  0.15109581267E+03  0.17334606964E+03  0.41800000000E+01 0.  1.
         -5    1    1    2    0  502 -0.70298249719E+02 -0.90276996596E+01  0.14621568787E+03  0.16254181940E+03  0.41800000000E+01 0.  1.
        -11    1    3    3    0    0  0.45113527761E+02  0.46794215834E+02  0.31842363423E+03  0.32499006117E+03  0.00000000000E+00 0. -1.
         11    1    3    3    0    0 -0.92926855301E+01  0.39775415889E+02  0.43417406019E+02  0.59611314857E+02  0.00000000000E+00 0.  1.
</event>
<event>
 7    1  0.6145388E-006  0.9895668E+02  0.7561462E-02  0.1282505E+00
          1   -1    0    0  501    0  0.00000000000E+00  0.00000000000E+00  0.45627173029E+03  0.45627173029E+03  0.00000000000E+00 0. -1.
         -1   -1    0    0    0  501 -0.00000000000E+00 -0.00000000000E+00 -0.48286534095E+02  0.48286534095E+02  0.00000000000E+00 0.  1.
         23    2    1    2    0    0 -0.26188596762E+02  0.22546960615E+02  0.34840355576E+03  0.36177860613E+03  0.91129107044E+02 0.  0.
          5    1    1    2  502    0  0.13484185334E+02  0.40864076930E+02 -0.13318255964E+02  0.45238748650E+02  0.41800000000E+01 0. -1.
         -5    1    1    2    0  502  0.12704411427E+02 -0.63411037545E+02  0.72899896396E+02  0.97540909606E+02  0.41800000000E+01 0. -1.
        -11    1    3    3    0    0 -0.16727307893E+02 -0.31145773096E+02  0.74000480285E+02  0.82011786308E+02  0.00000000000E+00 0.  1.
         11    1    3    3    0    0 -0.94612888686E+01  0.53692733711E+02  0.27440307548E+03  0.27976681982E+03  0.00000000000E+00 0. -1.
</event>
<event>
 7    1  0.6145388E-006  0.1866784E+03  0.7561462E-02  0.1161492E+00
         -2   -1    0    0    0  501 -0.00000000000E+00  0.00000000000E+00  0.46534611952E+02  0.46534611952E+02  0.00000000000E+00 0. -1.
          2   -1    0    0  501    0  0.00000000000E+00 -0.00000000000E+00 -0.86398031167E+03  0.86398031167E+03  0.00000000000E+00 0.  1.
         23    2    1    2    0    0 -0.53914698762E+02  0.15399699811E+03 -0.48188117759E+03  0.51697662556E+03  0.91834045379E+02 0.  0.
          5    1    1    2  502    0  0.75648962785E+02 -0.46258603564E+02 -0.10099318057E+03  0.13446084521E+03  0.41800000000E+01 0. -1.
         -5    1    1    2    0  502 -0.21734264023E+02 -0.10773839455E+03 -0.23457134156E+03  0.25907745285E+03  0.41800000000E+01 0. -1.
        -11    1    3    3    0    0 -0.67421303842E+02  0.11472940222E+03 -0.26938320494E+03  0.30045928018E+03  0.00000000000E+00 0. -1.
         11    1    3    3    0    0  0.13506605081E+02  0.39267595890E+02 -0.21249797265E+03  0.21651734538E+03  0.00000000000E+00 0.  1.
</event>
<event>
 7    1  0.6145388E-006  0.2218869E+03  0.7561462E-02  0.1132484E+00
         -1   -1    0    0    0  501 -0.00000000000E+00  0.00000000000E+00  0.12740501482E+03  0.12740501482E+03  0.00000000000E+00 0.  1.
          1   -1    0    0  501    0  0.00000000000E+00 -0.00000000000E+00 -0.56910706415E+03  0.56910706415E+03  0.00000000000E+00 0. -1.
         23    2    1    2    0    0 -0.12273899489E+03 -0.15564118576E+03 -0.40384273969E+03  0.45908857500E+03  0.91565941932E+02 0.  0.
          5    1    1    2  502    0  0.13035870669E+03  0.81814173854E+02  0.85256297719E-01  0.15396243412E+03  0.41800000000E+01 0.  1.
         -5    1    1    2    0  502 -0.76197117985E+01  0.73827011909E+02 -0.37944565934E+02  0.83461069843E+02  0.41800000000E+01 0.  1.
        -11    1    3    3    0    0 -0.68433425253E+02 -0.23079292964E+02 -0.10202883156E+03  0.12500267967E+03  0.00000000000E+00 0.  1.
         11    1    3    3    0    0 -0.54305569634E+02 -0.13256189280E+03 -0.30181390813E+03  0.33408589533E+03  0.00000000000E+00 0. -1.
</event>
<event>
 7    1  0.6145388E-006  0.1063613E+03  0.7561462E-02  0.1267461E+00
         -2   -1    0    0    0  501 -0.00000000000E+00  0.00000000000E+00  0.81734432642E+02  0.81734432642E+02  0.00000000000E+00 0.  1.
          2   -1    0    0  501    0  0.00000000000E+00 -0.00000000000E+00 -0.15365873227E+03  0.15365873227E+03  0.00000000000E+00 0. -1.
         23    2    1    2    0    0  0.43403203500E+02 -0.46828074794E+01 -0.33466254698E+02  0.97434642535E+02  0.80422338951E+02 0.  0.
          5    1    1    2  502    0  0.81938192217E+01  0.57354687885E+02 -0.23187997507E+02  0.62544820123E+02  0.41800000000E+01 0. -1.
         -5    1    1    2    0  502 -0.51597022722E+02 -0.52671880406E+02 -0.15270047424E+02  0.75413702253E+02  0.41800000000E+01 0. -1.
        -11    1    3    3    0    0  0.24521836117E+02 -0.36389375836E+02 -0.40676843094E+02  0.59834042855E+02  0.00000000000E+00 0. -1.
         11    1    3    3    0    0  0.18881367383E+02  0.31706568357E+02  0.72105883965E+01  0.37600599679E+02  0.00000000000E+00 0.  1.
</event>
<event>
 7    1  0.6145388E-006  0.5362871E+02  0.7561462E-02  0.1426697E+00
          2   -1    0    0  501    0  0.00000000000E+00  0.00000000000E+00  0.12394994934E+03  0.12394994934E+03  0.00000000000E+00 0. -1.
         -2   -1    0    0    0  501 -0.00000000000E+00 -0.00000000000E+00 -0.13113900997E+03  0.13113900997E+03  0.00000000000E+00 0.  1.
         23    2    1    2    0    0 -0.81428010055E+00 -0.10982296598E+02  0.62655546217E+02  0.11139387009E+03  0.91441800789E+02 0.  0.
          5    1    1    2  502    0 -0.26715553072E+02  0.29962574320E+02  0.21926971310E+02  0.45931918168E+02  0.41800000000E+01 0. -1.
         -5    1    1    2    0  502  0.27529833172E+02 -0.18980277722E+02 -0.91771578158E+02  0.97763171053E+02  0.41800000000E+01 0. -1.
        -11    1    3    3    0    0 -0.88181873349E+01 -0.19566354408E+02  0.84182589551E+02  0.86875261359E+02  0.00000000000E+00 0. -1.
         11    1    3    3    0    0  0.80039072343E+01  0.85840578095E+01 -0.21527043334E+02  0.24518608733E+02  0.00000000000E+00 0.  1.
</event>
<event>
 7    1  0.6145388E-006  0.1295194E+03  0.7561462E-02  0.1228171E+00
          2   -1    0    0  501    0  0.00000000000E+00  0.00000000000E+00  0.51674380294E+03  0.51674380294E+03  0.00000000000E+00 0. -1.
         -2   -1    0    0    0  501 -0.00000000000E+00 -0.00000000000E+00 -0.35105841747E+02  0.35105841747E+02  0.00000000000E+00 0.  1.
         23    2    1    2    0    0 -0.12478930689E+02 -0.70716312705E+02  0.28322608115E+03  0.30654891800E+03  0.92729205163E+02 0.  0.
          5    1    1    2  502    0 -0.10031329493E+02 -0.33558811532E+02  0.69353762969E+02  0.77808985604E+02  0.41800000000E+01 0.  1.
         -5    1    1    2    0  502  0.22510260181E+02  0.10427512424E+03  0.12905811708E+03  0.16749174109E+03  0.41800000000E+01 0.  1.
        -11    1    3    3    0    0  0.40285989110E+02 -0.27173679802E+02  0.12812750278E+03  0.13703294043E+03  0.00000000000E+00 0. -1.
         11    1    3    3    0    0 -0.52764919799E+02 -0.43542632902E+02  0.15509857836E+03  0.16951597757E+03  0.00000000000E+00 0.  1.
</event>
<event>
 7    1  0.6145388E-006  0.1252155E+03  0.7561462E-02  0.1234733E+00
         -2   -1    0    0    0  501 -0.00000000000E+00  0.00000000000E+00  0.38960553720E+02  0.38960553720E+02  0.00000000000E+00 0.  1.
          2   -1    0    0  501    0  0.00000000000E+00 -0.00000000000E+00 -0.43201393429E+03  0.43201393429E+03  0.00000000000E+00 0. -1.
         23    2    1    2    0    0  0.16766334422E+02  0.61866824753E+02 -0.22651518228E+03  0.25305044571E+03  0.92826646472E+02 0.  0.
          5    1    1    2  502    0 -0.65412597072E+02 -0.97242126986E+01 -0.58419628348E+02  0.88338516767E+02  0.41800000000E+01 0.  1.
         -5    1    1    2    0  502  0.48646262650E+02 -0.52142612054E+02 -0.10811856995E+03  0.12958552554E+03  0.41800000000E+01 0.  1.
        -11    1    3    3    0    0 -0.33871587328E+02  0.14504227217E+01 -0.72359124504E+02  0.79907640769E+02  0.00000000000E+00 0.  1.
         11    1    3    3    0    0  0.50637921750E+02  0.60416402031E+02 -0.15415605777E+03  0.17314280494E+03  0.00000000000E+00 0. -1.
</event>
<event>
 7    1  0.6145388E-006  0.1434303E+03  0.7561462E-02  0.1208786E+00
         -1   -1    0    0    0  501 -0.00000000000E+00  0.00000000000E+00  0.70178942377E+03  0.70178942377E+03  0.00000000000E+00 0.  1.
          1   -1    0    0  501    0  0.00000000000E+00 -0.00000000000E+00 -0.47629646770E+02  0.47629646770E+02  0.00000000000E+00 0. -1.
         23    2    1    2    0    0  0.34117354109E+02  0.11627399897E+03  0.10200079556E+03  0.17044562962E+03  0.62959619381E+02 0.  0.
          5    1    1    2  502    0  0.90808023093E+01 -0.11764241395E+03  0.28786845238E+03  0.31113970625E+03  0.41800000000E+01 0. -1.
         -5    1    1    2    0  502 -0.43198156418E+02  0.13684149741E+01  0.26429052906E+03  0.26783373467E+03  0.41800000000E+01 0. -1.
        -11    1    3    3    0    0  0.39183942797E+02  0.83831417884E+02  0.10184927183E+03  0.13760945523E+03  0.00000000000E+00 0.  1.
         11    1    3    3    0    0 -0.50665886886E+01  0.32442581088E+02  0.15152372747E+00  0.32836174382E+02  0.00000000000E+00 0. -1.
</event>
<event>
 7    1  0.6145388E-006  0.8811999E+02  0.7561462E-02  0.1307469E+00
          1   -1    0    0  501    0  0.00000000000E+00  0.00000000000E+00  0.63232736895E+02  0.63232736895E+02  0.00000000000E+00 0. -1.
         -1   -1    0    0    0  501 -0.00000000000E+00 -0.00000000000E+00 -0.29312159185E+03  0.29312159185E+03  0.00000000000E+00 0.  1.
         23    2    1    2    0    0 -0.19372370217E+02  0.11480098783E+02 -0.17768169348E-01  0.93685893748E+02  0.90939347786E+02 0.  0.
          5    1    1    2  502    0  0.47877665349E+02 -0.31423979014E+02 -0.40955022353E+02  0.70530302369E+02  0.41800000000E+01 0. -1.
         -5    1    1    2    0  502 -0.28505295131E+02  0.19943880231E+02 -0.18891606443E+03  0.19213813262E+03  0.41800000000E+01 0. -1.
        -11    1    3    3    0    0  0.99349413073E+01 -0.30784129489E+02 -0.20532780861E+02  0.38313976263E+02  0.00000000000E+00 0.  1.
         11    1    3    3    0    0 -0.29307311525E+02  0.42264228272E+02  0.20515012692E+02  0.55371917485E+02  0.00000000000E+00 0. -1.
</event>
<event>
 7    1  0.6145388E-006  0.9995598E+02  0.7561462E-02  0.1280389E+00
          1   -1    0    0  501    0  0.00000000000E+00  0.00000000000E+00  0.51991730888E+03  0.51991730888E+03  0.00000000000E+00 0. -1.
         -1   -1    0    0    0  501 -0.00000000000E+00 -0.00000000000E+00 -0.24082495897E+02  0.24082495897E+02  0.00000000000E+00 0.  1.
         23    2    1    2    0    0  0.27792995180E+01 -0.42968901787E+01  0.30491973728E+03  0.31823832721E+03  0.90958226435E+02 0.  0.
          5    1    1    2  502    0  0.44142072174E+02 -0.32769607333E+02  0.58370201117E+02  0.80292729927E+02  0.41800000000E+01 0. -1.
         -5    1    1    2    0  502 -0.46921371692E+02  0.37066497512E+02  0.13254487459E+03  0.14546874764E+03  0.41800000000E+01 0.  1.
        -11    1    3    3    0    0  0.13933446002E+01 -0.44543344844E+02  0.21708336314E+03  0.22161055374E+03  0.00000000000E+00 0. -1.
         11    1    3    3    0    0  0.13859549177E+01  0.40246454665E+02  0.87836374136E+02  0.96627773469E+02  0.00000000000E+00 0.  1.
</event>
<event>
 7    1  0.6145388E-006  0.1511554E+03  0.7561462E-02  0.1199060E+00
         -2   -1    0    0    0  501 -0.00000000000E+00  0.00000000000E+00  0.10467539258E+03  0.10467539258E+03  0.00000000000E+00 0.  1.
          2   -1    0    0  501    0  0.00000000000E+00 -0.00000000000E+00 -0.53549681422E+03  0.53549681422E+03  0.00000000000E+00 0. -1.
         23    2    1    2    0    0  0.10434160127E+02 -0.82688444619E+02 -0.43608394719E+03  0.45356816946E+03  0.92782674999E+02 0.  0.
          5    1    1    2  502    0 -0.59630497034E+02 -0.27461790989E+02  0.36330020218E+01  0.65883360909E+02  0.41800000000E+01 0. -1.
         -5    1    1    2    0  502  0.49196336907E+02  0.11015023561E+03  0.16295235274E+01  0.12072067643E+03  0.41800000000E+01 0.  1.
        -11    1    3    3    0    0  0.44741001958E+02 -0.33706666174E+02 -0.29599782351E+03  0.30125173547E+03  0.00000000000E+00 0. -1.
         11    1    3    3    0    0 -0.34306841831E+02 -0.48981778445E+02 -0.14008612368E+03  0.15231643399E+03  0.00000000000E+00 0.  1.
</event>
<event>
 7    1  0.6145388E-006  0.1208773E+03  0.7561462E-02  0.1241657E+00
         -1   -1    0    0    0  501 -0.00000000000E+00  0.00000000000E+00  0.18410884993E+03  0.18410884993E+03  0.00000000000E+00 0.  1.
          1   -1    0    0  501    0  0.00000000000E+00 -0.00000000000E+00 -0.10426135650E+03  0.10426135650E+03  0.00000000000E+00 0. -1.
         23    2    1    2    0    0  0.20441408547E-01 -0.79075148688E+02  0.66558996271E+00  0.12052838528E+03  0.90960261053E+02 0.  0.
          5    1    1    2  502    0 -0.44166227744E+02  0.84768627727E+02  0.27590291257E+02  0.99574457023E+02  0.41800000000E+01 0.  1.
         -5    1    1    2    0  502  0.44145786335E+02 -0.56934790382E+01  0.51591612209E+02  0.68267364129E+02  0.41800000000E+01 0.  1.
        -11    1    3    3    0    0 -0.15144478486E+01  0.11090194831E+02 -0.24473363092E+02  0.26911549096E+02  0.00000000000E+00 0. -1.
         11    1    3    3    0    0  0.15348892572E+01 -0.90165343519E+02  0.25138953055E+02  0.93616836187E+02  0.00000000000E+00 0.  1.
</event>
<event>
 7    1  0.6145388E-006  0.1802390E+03  0.7561462E-02  0.1167572E+00
         -2   -1    0    0    0  501 -0.00000000000E+00  0.00000000000E+00  0.99211231052E+02  0.99211231052E+02  0.00000000000E+00 0.  1.
          2   -1    0    0  501    0  0.00000000000E+00 -0.00000000000E+00 -0.42282270263E+03  0.42282270263E+03  0.00000000000E+00 0. -1.
         23    2    1    2    0    0  0.30368397998E+01  0.16497491638E+03 -0.22088458167E+03  0.29089189195E+03  0.92747770631E+02 0.  0.
          5    1    1    2  502    0 -0.42478511270E+01  0.20575094507E+00 -0.60233052806E+02  0.60527511290E+02  0.41800000000E+01 0.  1.
         -5    1    1    2    0  502  0.12110113272E+01 -0.16518066732E+03 -0.42493837108E+02  0.17061453044E+03  0.41800000000E+01 0.  1.
        -11    1    3    3    0    0  0.47408249805E+02  0.99044135597E+02 -0.12929667869E+03  0.16963170124E+03  0.00000000000E+00 0.  1.
         11    1    3    3    0    0 -0.44371410005E+02  0.65930780779E+02 -0.91587902980E+02  0.12126019072E+03  0.00000000000E+00 0. -1.
</event>
<event>
 7    1  0.6145388E-006  0.2015053E+03  0.7561462E-02  0.1148475E+00
         -3   -1    0    0    0  501 -0.00000000000E+00  0.00000000000E+00  0.48734794810E+03  0.48734794810E+03  0.00000000000E+00 0.  1.
          3   -1    0    0  501    0  0.00000000000E+00 -0.00000000000E+00 -0.11282866668E+03  0.11282866668E+03  0.00000000000E+00 0. -1.
         23    2    1    2    0    0 -0.18227837985E+03 -0.31758090442E+02  0.60925035230E+02  0.21517991894E+03  0.91414186688E+02 0.  0.
          5    1    1    2  502    0  0.14217506748E+03  0.69272365099E+02  0.27660776726E+03  0.31865614648E+03  0.41800000000E+01 0. -1.
         -5    1    1    2    0  502  0.40103312374E+02 -0.37514274657E+02  0.36986478931E+02  0.66340549365E+02  0.41800000000E+01 0. -1.
        -11    1    3    3    0    0 -0.59847734958E+02  0.93659152795E+01  0.61083354071E+02  0.86027018391E+02  0.00000000000E+00 0.  1.
         11    1    3    3    0    0 -0.12243064490E+03 -0.41124005721E+02 -0.15831884091E+00  0.12915290055E+03  0.00000000000E+00 0. -1.
</event>
<event>
 7    1  0.6145388E-006  0.8614062E+02  0.7561462E-02  0.1312476E+00
          1   -1    0    0  501    0  0.00000000000E+00  0.00000000000E+00  0.40962441997E+02  0.40962441997E+02  0.00000000000E+00 0. -1.
         -1   -1    0    0    0  501 -0.00000000000E+00 -0.00000000000E+00 -0.36004532952E+03  0.36004532952E+03  0.00000000000E+00 0.  1.
         23    2    1    2    0    0 -0.23468059131E+02 -0.31701751311E+02 -0.74378819564E+02  0.12337642238E+03  0.90187482299E+02 0.  0.
          5    1    1    2  502    0  0.50612202463E+02  0.21231782174E+01 -0.22858623085E+03  0.23416925558E+03  0.41800000000E+01 0.  1.
         -5    1    1    2    0  502 -0.27144143332E+02  0.29578573094E+02 -0.16117837106E+02  0.43462093558E+02  0.41800000000E+01 0.  1.
        -11    1    3    3    0    0  0.19985622213E+02  0.86613198341E+01 -0.57840689215E+02  0.61806058646E+02  0.00000000000E+00 0.  1.
         11    1    3    3    0    0 -0.43453681344E+02 -0.40363071145E+02 -0.16538130349E+02  0.61570363732E+02  0.00000000000E+00 0. -1.
</event>
<event>
 7    1  0.6145388E-006  0.1100006E+03  0.7561462E-02  0.1260569E+00
          1   -1    0    0  501    0  0.00000000000E+00  0.00000000000E+00  0.27146898663E+02  0.27146898663E+02  0.00000000000E+00 0. -1.
         -1   -1    0    0    0  501 -0.00000000000E+00 -0.00000000000E+00 -0.82811104242E+03  0.82811104242E+03  0.00000000000E+00 0.  1.
         23    2    1    2    0    0  0.10163109278E+03  0.13958771447E+02 -0.38891134363E+03  0.41258554512E+03  0.91929715103E+02 0.  0.
          5    1    1    2  502    0 -0.70978288198E+02 -0.17879889656E+02 -0.77551741594E+02  0.10672091114E+03  0.41800000000E+01 0.  1.
         -5    1    1    2    0  502 -0.30652804583E+02  0.39211182089E+01 -0.33450105853E+03  0.33595148482E+03  0.41800000000E+01 0.  1.
        -11    1    3    3    0    0  0.32984138881E+02 -0.20352622304E+02 -0.41440789996E+02  0.56740829461E+02  0.00000000000E+00 0. -1.
         11    1    3    3    0    0  0.68646953899E+02  0.34311393751E+02 -0.34747055364E+03  0.35584471566E+03  0.00000000000E+00 0.  1.
</event>
<event>
 7    1  0.6145388E-006  0.1819555E+03  0.7561462E-02  0.1165924E+00
          2   -1    0    0  501    0  0.00000000000E+00  0.00000000000E+00  0.13919436409E+03  0.13919436409E+03  0.00000000000E+00 0. -1.
         -2   -1    0    0    0  501 -0.00000000000E+00 -0.00000000000E+00 -0.27136127132E+03  0.27136127132E+03  0.00000000000E+00 0.  1.
         23    2    1    2    0    0 -0.12711159827E+03 -0.10690922674E+03 -0.58071382918E+02  0.18981725981E+03  0.71213519998E+02 0.  0.
          5    1    1    2  502    0  0.13920452004E+03  0.66005884383E+02 -0.85693148041E+02  0.17633905749E+03  0.41800000000E+01 0. -1.
         -5    1    1    2    0  502 -0.12092921777E+02  0.40903342354E+02  0.11597623738E+02  0.44399318117E+02  0.41800000000E+01 0. -1.
        -11    1    3    3    0    0 -0.64103380166E+02 -0.43001123881E+02 -0.63434742551E+02  0.99911493664E+02  0.00000000000E+00 0.  1.
         11    1    3    3    0    0 -0.63008218102E+02 -0.63908102856E+02  0.53633596323E+01  0.89905766142E+02  0.00000000000E+00 0. -1.
</event>
<event>
 7    1  0.6145388E-006  0.1155041E+03  0.7561462E-02  0.1250704E+00
          2   -1    0    0  501    0  0.00000000000E+00  0.00000000000E+00  0.62894274483E+02  0.62894274483E+02  0.00000000000E+00 0. -1.
         -2   -1    0    0    0  501 -0.00000000000E+00 -0.00000000000E+00 -0.31127406402E+03  0.31127406402E+03  0.00000000000E+00 0.  1.
         23    2    1    2    0    0  0.32929063761E+02  0.76190782098E+02 -0.76645817859E+02  0.14607150641E+03  0.92590199653E+02 0.  0.
          5    1    1    2  502    0 -0.69839237239E+02 -0.71195143790E+02 -0.76527411282E+02  0.12577831544E+03  0.41800000000E+01 0.  1.
         -5    1    1    2    0  502  0.36910173478E+02 -0.49956383078E+01 -0.95206560399E+02  0.10231851666E+03  0.41800000000E+01 0.  1.
        -11    1    3    3    0    0  0.42639748629E+02  0.49644795718E+02 -0.92769805325E+02  0.11352969076E+03  0.00000000000E+00 0.  1.
         11    1    3    3    0    0 -0.97106848681E+01  0.26545986380E+02  0.16123987466E+02  0.32541815642E+02  0.00000000000E+00 0. -1.
</event>
<event>
 7    1  0.6145388E-006  0.7563941E+02  0.7561462E-02  0.1341902E+00
         -1   -1    0    0    0  501 -0.00000000000E+00  0.00000000000E+00  0.11164229262E+03  0.11164229262E+03  0.00000000000E+00 0.  1.
          1   -1    0    0  501    0  0.00000000000E+00 -0.00000000000E+00 -0.13663864130E+03  0.13663864130E+03  0.00000000000E+00 0. -1.
         23    2    1    2    0    0 -0.22859398921E+01  0.52217816870E+02 -0.36210446706E+02  0.11224691158E+03  0.92499982639E+02 0.  0.
          5    1    1    2  502    0  0.24125028206E+02 -0.26346703617E+02  0.63865684835E+02  0.73297093236E+02  0.41800000000E+01 0.  1.
         -5    1    1    2    0  502 -0.21839088314E+02 -0.25871113253E+02 -0.52651586815E+02  0.62736929104E+02  0.41800000000E+01 0.  1.
        -11    1    3    3    0    0  0.29006853293E+02  0.15274436184E+02 -0.51870654441E+02  0.61361801887E+02  0.00000000000E+00 0. -1.
         11    1    3    3    0    0 -0.31292793185E+02  0.36943380686E+02  0.15660207736E+02  0.50885109690E+02  0.00000000000E+00 0.  1.
</event>
<event>
 7    1  0.6145388E-006  0.8686970E+02  0.7561462E-02  0.1310614E+00
         -2   -1    0    0    0  501 -0.00000000000E+00  0.00000000000E+00  0.45354038302E+02  0.45354038302E+02  0.00000000000E+00 0.  1.
          2   -1    0    0  501    0  0.00000000000E+00 -0.00000000000E+00 -0.28502627600E+03  0.28502627600E+03  0.00000000000E+00 0. -1.
         23    2    1    2    0    0 -0.11641578780E+02 -0.16473823540E+02 -0.14539055679E+03  0.17243909372E+03  0.90498142637E+02 0.  0.
          5    1    1    2  502    0 -0.30739184157E+02 -0.18351375874E+02 -0.96369041443E+02  0.10288894493E+03  0.41800000000E+01 0.  1.
         -5    1    1    2    0  502  0.42380762938E+02  0.34825199414E+02  0.20873605312E+01  0.55052275661E+02  0.41800000000E+01 0.  1.
        -11    1    3    3    0    0 -0.41408867572E+02  0.10273447295E+02 -0.11354421105E+03  0.12129520145E+03  0.00000000000E+00 0. -1.
         11    1    3    3    0    0  0.29767288792E+02 -0.26747270835E+02 -0.31846345741E+02  0.51143892267E+02  0.00000000000E+00 0.  1.
</event>
<event>
 7    1  0.6145388E-006  0.2556673E+03  0.7561462E-02  0.1109775E+00
         -2   -1    0    0    0  501 -0.00000000000E+00  0.00000000000E+00  0.99104076633E+02  0.99104076633E+02  0.00000000000E+00 0.  1.
          2   -1    0    0  501    0  0.00000000000E+00 -0.00000000000E+00 -0.77067737184E+03  0.77067737184E+03  0.00000000000E+00 0. -1.
         23    2    1    2    0    0  0.23809144664E+03  0.78986991269E+02 -0.26756828623E+03  0.37805607415E+03  0.91690379287E+02 0.  0.
          5    1    1    2  502    0 -0.45210909314E+02 -0.17974425374E+02 -0.19419676564E+03  0.20024225946E+03  0.41800000000E+01 0. -1.
         -5    1    1    2    0  502 -0.19288053733E+03 -0.61012565895E+02 -0.20980824334E+03  0.29148311486E+03  0.41800000000E+01 0. -1.
        -11    1    3    3    0    0  0.24022486886E+03  0.68987590449E+02 -0.26960240108E+03  0.36763124176E+03  0.00000000000E+00 0. -1.
         11    1    3    3    0    0 -0.21334222190E+01  0.99994008203E+01  0.20341148454E+01  0.10424832389E+02  0.00000000000E+00 0.  1.
</event>
<event>
 7    1  0.6145388E-006  0.8152714E+02  0.7561462E-02  0.1324773E+00
         -1   -1    0    0    0  501 -0.00000000000E+00  0.00000000000E+00  0.63686563474E+02  0.63686563474E+02  0.00000000000E+00 0.  1.
          1   -1    0    0  501    0  0.00000000000E+00 -0.00000000000E+00 -0.18987622647E+03  0.18987622647E+03  0.00000000000E+00 0. -1.
         23    2    1    2    0    0 -0.13296807169E+02 -0.42395077304E+01 -0.62713915697E+02  0.11259534198E+03  0.92465654745E+02 0.  0.
          5    1    1    2  502    0 -0.50453188518E+02  0.22186709973E+02 -0.10980765072E+02  0.56354449093E+02  0.41800000000E+01 0. -1.
         -5    1    1    2    0  502  0.63749995687E+02 -0.17947202242E+02 -0.52494982228E+02  0.84612998868E+02  0.41800000000E+01 0. -1.
        -11    1    3    3    0    0  0.13885506394E+02  0.14605217863E+00  0.20603537675E+02  0.24846214677E+02  0.00000000000E+00 0.  1.
         11    1    3    3    0    0 -0.27182313563E+02 -0.43855599090E+01 -0.83317453372E+02  0.87749127305E+02  0.00000000000E+00 0. -1.
</event>
<event>
 7    1  0.6145388E-006  0.7727741E+02  0.7561462E-02  0.1336960E+00
         -1   -1    0    0    0  501 -0.00000000000E+00  0.00000000000E+00  0.80859682951E+02  0.80859682951E+02  0.00000000000E+00 0.  1.
          1   -1    0    0  501    0  0.00000000000E+00 -0.00000000000E+00 -0.27048523039E+03  0.27048523039E+03  0.00000000000E+00 0. -1.
         23    2    1    2    0    0  0.37576350209E+02  0.36234277943E+02 -0.18946542138E+03  0.21579916848E+03  0.89147239022E+02 0.  0.
          5    1    1    2  502    0 -0.22297176449E+02 -0.36612786789E+02 -0.59878956435E+02  0.73760572515E+02  0.41800000000E+01 0.  1.
         -5    1    1    2    0  502 -0.15279173760E+02  0.37850884617E+00  0.59718830378E+02  0.61785172343E+02  0.41800000000E+01 0.  1.
        -11    1    3    3    0    0  0.33832922774E+01  0.56027613690E+02 -0.14910496109E+03  0.15931989702E+03  0.00000000000E+00 0.  1.
         11    1    3    3    0    0  0.34193057932E+02 -0.19793335747E+02 -0.40360460290E+02  0.56479271468E+02  0.00000000000E+00 0. -1.
</event>
<event>
 7    1  0.6145388E-006  0.6723140E+02  0.7561462E-02  0.1369769E+00
         -2   -1    0    0    0  501 -0.00000000000E+00  0.00000000000E+00  0.13355113377E+03  0.13355113377E+03  0.00000000000E+00 0. -1.
          2   -1    0    0  501    0  0.00000000000E+00 -0.00000000000E+00 -0.10211016159E+03  0.10211016159E+03  0.00000000000E+00 0.  1.
         23    2    1    2    0    0 -0.26772107597E+02 -0.14069770954E+00 -0.15124624708E+02  0.99523501230E+02  0.94654146678E+02 0.  0.
          5    1    1    2  502    0  0.35572483799E+02  0.15845338046E+01 -0.37276230979E+02  0.51719456175E+02  0.41800000000E+01 0.  1.
         -5    1    1    2    0  502 -0.88003762021E+01 -0.14438360951E+01  0.83841827865E+02  0.84418337959E+02  0.41800000000E+01 0.  1.
        -11    1    3    3    0    0 -0.45995014223E+01 -0.41542448260E+02  0.14214628270E+02  0.44147322429E+02  0.00000000000E+00 0. -1.
         11    1    3    3    0    0 -0.22172606175E+02  0.41401750551E+02 -0.29339252978E+02  0.55376178801E+02  0.00000000000E+00 0.  1.
</event>
<event>
 7    1  0.6145388E-006  0.1252383E+03  0.7561462E-02  0.1234697E+00
          1   -1    0    0  501    0  0.00000000000E+00  0.00000000000E+00  0.55942729077E+03  0.55942729077E+03  0.00000000000E+00 0. -1.
         -1   -1    0    0    0  501 -0.00000000000E+00 -0.00000000000E+00 -0.52347061168E+02  0.52347061168E+02  0.00000000000E+00 0.  1.
         23    2    1    2    0    0  0.30288865708E+02  0.84555513796E+02  0.41102361858E+03  0.43027471937E+03  0.90160239580E+02 0.  0.
          5    1    1    2  502    0 -0.27420321961E+02  0.15611994123E+02 -0.12049913127E+02  0.34033530868E+02  0.41800000000E+01 0. -1.
         -5    1    1    2    0  502 -0.28685437468E+01 -0.10016750792E+03  0.10810652414E+03  0.14746610169E+03  0.41800000000E+01 0. -1.
        -11    1    3    3    0    0 -0.25453580199E+02  0.37937485243E+02  0.24228114236E+03  0.24655078478E+03  0.00000000000E+00 0.  1.
         11    1    3    3    0    0  0.55742445907E+02  0.46618028554E+02  0.16874247622E+03  0.18372393460E+03  0.00000000000E+00 0. -1.
</event>
<event>
 7    1  0.6145388E-006  0.2103526E+03  0.7561462E-02  0.1141287E+00
          2   -1    0    0  501    0  0.00000000000E+00  0.00000000000E+00  0.46048337246E+03  0.46048337246E+03  0.00000000000E+00 0. -1.
         -2   -1    0    0    0  501 -0.00000000000E+00 -0.00000000000E+00 -0.69598074632E+03  0.69598074632E+03  0.00000000000E+00 0.  1.
         23    2    1    2    0    0 -0.18927348364E+03  0.18110963320E+02  0.41567093487E+03  0.46621167191E+03  0.91752593038E+02 0.  0.
          5    1    1    2  502    0  0.10130769537E+03  0.48837236350E+02 -0.25101627229E+03  0.27509083254E+03  0.41800000000E+01 0. -1.
         -5    1    1    2    0  502  0.87965788274E+02 -0.66948199670E+02 -0.40015203644E+03  0.41516161433E+03  0.41800000000E+01 0.  1.
        -11    1    3    3    0    0 -0.93109795503E+02  0.35813500331E+02  0.12741234251E+03  0.16182072132E+03  0.00000000000E+00 0.  1.
         11    1    3    3    0    0 -0.96163688137E+02 -0.17702537012E+02  0.28825859236E+03  0.30439095059E+03  0.00000000000E+00 0. -1.
</event>
<event>
 7    1  0.6145388E-006  0.1072009E+03  0.7561462E-02  0.1265843E+00
         -3   -1    0    0    0  501 -0.00000000000E+00  0.00000000000E+00  0.86048182932E+02  0.86048182932E+02  0.00000000000E+00 0.  1.
          3   -1    0    0  501    0  0.00000000000E+00 -0.00000000000E+00 -0.14187553369E+03  0.14187553369E+03  0.00000000000E+00 0. -1.
         23    2    1    2    0    0 -0.47030285872E+01  0.21981328568E+02 -0.32446674070E+02  0.98695918067E+02  0.90458832080E+02 0.  0.
          5    1    1    2  502    0 -0.35194400990E+02  0.36504556704E+02  0.83001712874E+01  0.51551855104E+02  0.41800000000E+01 0. -1.
         -5    1    1    2    0  502  0.39897429577E+02 -0.58485885272E+02 -0.31680847977E+02  0.77675943454E+02  0.41800000000E+01 0. -1.
        -11    1    3    3    0    0 -0.31455368788E+02 -0.23889706169E+02 -0.19442516271E+02  0.44024649066E+02  0.00000000000E+00 0.  1.
         11    1    3    3    0    0  0.26752340201E+02  0.45871034737E+02 -0.13004157798E+02  0.54671269000E+02  0.00000000000E+00 0. -1.
</event>
<event>
 7    1  0.6145388E-006  0.1105736E+03  0.7561462E-02  0.1259511E+00
         -2   -1    0    0    0  501 -0.00000000000E+00  0.00000000000E+00  0.94728232373E+02  0.94728232373E+02  0.00000000000E+00 0.  1.
          2   -1    0    0  501    0  0.00000000000E+00 -0.00000000000E+00 -0.21920746670E+03  0.21920746670E+03  0.00000000000E+00 0. -1.
         23    2    1    2    0    0  0.46689940715E+01 -0.90881680410E+02 -0.80671409515E+02  0.15316368858E+03  0.93112619165E+02 0.  0.
          5    1    1    2  502    0 -0.38112844712E+02  0.60466215133E+01  0.25252594980E+02  0.46306765348E+02  0.41800000000E+01 0.  1.
         -5    1    1    2    0  502  0.33443850641E+02  0.84835058897E+02 -0.69060419796E+02  0.11446524514E+03  0.41800000000E+01 0.  1.
        -11    1    3    3    0    0  0.32369078079E+01 -0.35644494089E+02  0.18008775691E+02  0.40066488902E+02  0.00000000000E+00 0.  1.
         11    1    3    3    0    0  0.14320862636E+01 -0.55237186321E+02 -0.98680185206E+02  0.11309719968E+03  0.00000000000E+00 0. -1.
</event>
<event>
 7    1  0.6145388E-006  0.3896364E+03  0.7561462E-02  0.1047428E+00
          2   -1    0    0  501    0  0.00000000000E+00  0.00000000000E+00  0.10611555800E+04  0.10611555800E+04  0.00000000000E+00 0. -1.
         -2   -1    0    0    0  501 -0.00000000000E+00 -0.00000000000E+00 -0.18724639237E+03  0.18724639237E+03  0.00000000000E+00 0.  1.
         23    2    1    2    0    0  0.22931630616E+03 -0.30515043548E+03  0.71628136461E+03  0.81689676600E+03  0.92512574641E+02 0.  0.
          5    1    1    2  502    0  0.17522805528E+01  0.34110376508E+02  0.47544003873E+02  0.58689803006E+02  0.41800000000E+01 0.  1.
         -5    1    1    2    0  502 -0.23106858671E+03  0.27104005897E+03  0.11008381913E+03  0.37281540334E+03  0.41800000000E+01 0.  1.
        -11    1    3    3    0    0  0.14915529263E+03 -0.13759854033E+03  0.31491129628E+03  0.37463286581E+03  0.00000000000E+00 0.  1.
         11    1    3    3    0    0  0.80161013531E+02 -0.16755189515E+03  0.40137006834E+03  0.44226390019E+03  0.00000000000E+00 0. -1.
</event>
<event>
 7    1  0.6145388E-006  0.1217524E+03  0.7561462E-02  0.1240234E+00
         -2   -1    0    0    0  501 -0.00000000000E+00  0.00000000000E+00  0.19427688875E+02  0.19427688875E+02  0.00000000000E+00 0.  1.
          2   -1    0    0  501    0  0.00000000000E+00 -0.00000000000E+00 -0.82403837500E+03  0.82403837500E+03  0.00000000000E+00 0. -1.
         23    2    1    2    0    0  0.48959382453E+02  0.29331030095E+02 -0.44543766145E+03  0.45887691090E+03  0.94318495911E+02 0.  0.
          5    1    1    2  502    0  0.36520740084E+02  0.11657362058E+02 -0.65983871865E+02  0.76426450216E+02  0.41800000000E+01 0. -1.
         -5    1    1    2    0  502 -0.85480122537E+02 -0.40988392152E+02 -0.29318915282E+03  0.30816270275E+03  0.41800000000E+01 0. -1.
        -11    1    3    3    0    0  0.28932396297E+02 -0.33406458502E+02 -0.16575931313E+03  0.17154948240E+03  0.00000000000E+00 0.  1.
         11    1    3    3    0    0  0.20026986155E+02  0.62737488597E+02 -0.27967834832E+03  0.28732742850E+03  0.00000000000E+00 0. -1.
</event>
<event>
 7    1  0.6145388E-006  0.1744919E+03  0.7561462E-02  0.1173243E+00
         -1   -1    0    0    0  501 -0.00000000000E+00  0.00000000000E+00  0.15509180424E+03  0.15509180424E+03  0.00000000000E+00 0.  1.
          1   -1    0    0  501    0  0.00000000000E+00 -0.00000000000E+00 -0.26946313092E+03  0.26946313092E+03  0.00000000000E+00 0. -1.
         23    2    1    2    0    0 -0.61628107937E+02 -0.15804138447E+03 -0.91513130634E+02  0.21255357675E+03  0.89606177329E+02 0.  0.
          5    1    1    2  502    0  0.64504048128E+02  0.15947424466E+03  0.15970921521E+02  0.17281594159E+03  0.41800000000E+01 0.  1.
         -5    1    1    2    0  502 -0.28759401911E+01 -0.14328601839E+01 -0.38829117570E+02  0.39185416822E+02  0.41800000000E+01 0.  1.
        -11    1    3    3    0    0 -0.17306504199E+02 -0.80329981914E+02  0.32439865825E+01  0.82237123800E+02  0.00000000000E+00 0.  1.
         11    1    3    3    0    0 -0.44321603738E+02 -0.77711402558E+02 -0.94757117217E+02  0.13031645295E+03  0.00000000000E+00 0. -1.
</event>
<event>
 7    1  0.6145388E-006  0.1252305E+03  0.7561462E-02  0.1234709E+00
         -2   -1    0    0    0  501 -0.00000000000E+00  0.00000000000E+00  0.62980430026E+02  0.62980430026E+02  0.00000000000E+00 0.  1.
          2   -1    0    0  501    0  0.00000000000E+00 -0.00000000000E+00 -0.32354407883E+03  0.32354407883E+03  0.00000000000E+00 0. -1.
         23    2    1    2    0    0  0.83588916996E+02 -0.12816207699E+02 -0.17183931129E+03  0.21139412601E+03  0.89483883361E+02 0.  0.
          5    1    1    2  502    0 -0.12295327543E+02  0.59129381004E+02 -0.60158953983E+02  0.85346534327E+02  0.41800000000E+01 0. -1.
         -5    1    1    2    0  502 -0.71293589453E+02 -0.46313173305E+02 -0.28565383529E+02  0.89783848519E+02  0.41800000000E+01 0. -1.
        -11    1    3    3    0    0  0.11151541153E+02 -0.28573444102E+02 -0.11200276689E+03  0.11612673409E+03  0.00000000000E+00 0. -1.
         11    1    3    3    0    0  0.72437375843E+02  0.15757236403E+02 -0.59836544398E+02  0.95267391922E+02  0.00000000000E+00 0.  1.
</event>
<event>
 7    1  0.6145388E-006  0.1283195E+03  0.7561462E-02  0.1229971E+00
          1   -1    0    0  501    0  0.00000000000E+00  0.00000000000E+00  0.23609666732E+03  0.23609666732E+03  0.00000000000E+00 0. -1.
         -1   -1    0    0    0  501 -0.00000000000E+00 -0.00000000000E+00 -0.87469451781E+02  0.87469451781E+02  0.00000000000E+00 0.  1.
         23    2    1    2    0    0 -0.27596479608E+02  0.87054981622E+02  0.80848977903E+02  0.15450419884E+03  0.94841207925E+02 0.  0.
          5    1    1    2  502    0  0.11381733901E+02 -0.11537304051E+03  0.70992424181E+02  0.13600690804E+03  0.41800000000E+01 0. -1.
         -5    1    1    2    0  502  0.16214745707E+02  0.28318058886E+02 -0.32141865480E+01  0.33055012216E+02  0.41800000000E+01 0. -1.
        -11    1    3    3    0    0 -0.35186698796E+02  0.20453368751E+02 -0.97036717580E+01  0.41840235551E+02  0.00000000000E+00 0.  1.
         11    1    3    3    0    0  0.75902191877E+01  0.66601612872E+02  0.90552649661E+02  0.11266396329E+03  0.00000000000E+00 0. -1.
</event>
<event>
 7    1  0.6145388E-006  0.1015968E+03  0.7561462E-02  0.1276973E+00
          2   -1    0    0  501    0  0.00000000000E+00  0.00000000000E+00  0.37963948179E+02  0.37963948179E+02  0.00000000000E+00 0.  1.
         -2   -1    0    0    0  501 -0.00000000000E+00 -0.00000000000E+00 -0.62069624993E+03  0.62069624993E+03  0.00000000000E+00 0. -1.
         23    2    1    2    0    0 -0.51246505026E+02 -0.78389147272E+02 -0.15358705762E+03  0.20194959073E+03  0.91780118972E+02 0.  0.
          5    1    1    2  502    0  0.37530667923E+02  0.61971473709E+02 -0.84536749380E+02  0.11141341474E+03  0.41800000000E+01 0.  1.
         -5    1    1    2    0  502  0.13715837103E+02  0.16417673563E+02 -0.34460849475E+03  0.34529719265E+03  0.41800000000E+01 0.  1.
        -11    1    3    3    0    0 -0.26788831971E+02 -0.79949320310E+02 -0.15599469681E+03  0.17732422499E+03  0.00000000000E+00 0. -1.
         11    1    3    3    0    0 -0.24457673054E+02  0.15601730372E+01  0.24076391875E+01  0.24625365735E+02  0.00000000000E+00 0.  1.
</event>
<event>
 7    1  0.6145388E-006  0.1415795E+03  0.7561462E-02  0.1211219E+00
         -1   -1    0    0    0  501 -0.00000000000E+00  0.00000000000E+00  0.26437027457E+03  0.26437027457E+03  0.00000000000E+00 0.  1.
          1   -1    0    0  501    0  0.00000000000E+00 -0.00000000000E+00 -0.87779080580E+02  0.87779080580E+02  0.00000000000E+00 0. -1.
         23    2    1    2    0    0  0.11033053207E+03  0.41206750366E+02  0.55093594680E+02  0.14171969935E+03  0.56376825262E+02 0.  0.
          5    1    1    2  502    0 -0.10038306109E+03 -0.77903335388E+02  0.11539673746E+03  0.17169615032E+03  0.41800000000E+01 0.  1.
         -5    1    1    2    0  502 -0.99474709802E+01  0.36696585022E+02  0.61008618555E+01  0.38733505477E+02  0.41800000000E+01 0.  1.
        -11    1    3    3    0    0  0.72290701520E+02  0.27106488340E+02  0.63884125088E+02  0.10020922450E+03  0.00000000000E+00 0.  1.
         11    1    3    3    0    0  0.38039830555E+02  0.14100262026E+02 -0.87905304086E+01  0.41510474855E+02  0.00000000000E+00 0. -1.
</event>
<event>
 7    1  0.6145388E-006  0.1093361E+03  0.7561462E-02  0.1261804E+00
          3   -1    0    0  501    0  0.00000000000E+00  0.00000000000E+00  0.12945318734E+02  0.12945318734E+02  0.00000000000E+00 0. -1.
         -3   -1    0    0    0  501 -0.00000000000E+00 -0.00000000000E+00 -0.98903122017E+03  0.98903122017E+03  0.00000000000E+00 0.  1.
         23    2    1    2    0    0  0.29927904024E+02  0.31117899027E+02 -0.38843593824E+03  0.39961110825E+03  0.83322005746E+02 0.  0.
          5    1    1    2  502    0  0.14458025116E+02  0.41548072459E+02 -0.14513730968E+03  0.15171548331E+03  0.41800000000E+01 0. -1.
         -5    1    1    2    0  502 -0.44385929140E+02 -0.72665971486E+02 -0.44251265352E+03  0.45064994734E+03  0.41800000000E+01 0. -1.
        -11    1    3    3    0    0  0.13031682707E+02  0.56917436848E+02 -0.30758183963E+03  0.31307508276E+03  0.00000000000E+00 0.  1.
         11    1    3    3    0    0  0.16896221317E+02 -0.25799537821E+02 -0.80854098609E+02  0.86536025495E+02  0.00000000000E+00 0. -1.
</event>
<event>
 7    1  0.6145388E-006  0.1374345E+03  0.7561462E-02  0.1216823E+00
         -2   -1    0    0    0  501 -0.00000000000E+00  0.00000000000E+00  0.27186214519E+03  0.27186214519E+03  0.00000000000E+00 0.  1.
          2   -1    0    0  501    0  0.00000000000E+00 -0.00000000000E+00 -0.93796164300E+02  0.93796164300E+02  0.00000000000E+00 0. -1.
         23    2    1    2    0    0  0.41232445392E+02  0.79252294717E+02 -0.53607925403E+00  0.13001686435E+03  0.94461933404E+02 0.  0.
          5    1    1    2  502    0 -0.68145002062E+02 -0.93279679435E+02  0.10599170906E+03  0.15683288779E+03  0.41800000000E+01 0.  1.
         -5    1    1    2    0  502  0.26912556670E+02  0.14027384717E+02  0.72610351076E+02  0.78808557352E+02  0.41800000000E+01 0.  1.
        -11    1    3    3    0    0 -0.17051056923E+02  0.66928007620E+02  0.91257488999E+01  0.69666175718E+02  0.00000000000E+00 0.  1.
         11    1    3    3    0    0  0.58283502315E+02  0.12324287097E+02 -0.96618281539E+01  0.60350688628E+02  0.00000000000E+00 0. -1.
</event>
<event>
 7    1  0.6145388E-006  0.1357991E+03  0.7561462E-02  0.1219096E+00
          1   -1    0    0  501    0  0.00000000000E+00  0.00000000000E+00  0.19008109081E+03  0.19008109081E+03  0.00000000000E+00 0. -1.
         -1   -1    0    0    0  501 -0.00000000000E+00 -0.00000000000E+00 -0.14701077528E+03  0.14701077528E+03  0.00000000000E+00 0.  1.
         23    2    1    2    0    0  0.86298515875E+02  0.85751575357E+02  0.56490950397E+02  0.16342185847E+03  0.93352610199E+02 0.  0.
          5    1    1    2  502    0 -0.62315132870E+02 -0.40229150413E+02 -0.66442822136E+02  0.99667855104E+02  0.41800000000E+01 0. -1.
         -5    1    1    2    0  502 -0.23983383005E+02 -0.45522424945E+02  0.53022187268E+02  0.74002152508E+02  0.41800000000E+01 0. -1.
        -11    1    3    3    0    0  0.81151581377E+01 -0.15657835985E+02 -0.87761676100E+01  0.19698851166E+02  0.00000000000E+00 0.  1.
         11    1    3    3    0    0  0.78183357737E+02  0.10140941134E+03  0.65267118007E+02  0.14372300731E+03  0.00000000000E+00 0. -1.
</event>
<event>
 7    1  0.6145388E-006  0.8636175E+02  0.7561462E-02  0.1311909E+00
         -2   -1    0    0    0  501 -0.00000000000E+00  0.00000000000E+00  0.57283688483E+02  0.57283688483E+02  0.00000000000E+00 0.  1.
          2   -1    0    0  501    0  0.00000000000E+00 -0.00000000000E+00 -0.36382607629E+03  0.36382607629E+03  0.00000000000E+00 0. -1.
         23    2    1    2    0    0 -0.55131842964E+01 -0.18876038611E+02 -0.27599692268E+03  0.29076494963E+03  0.89349060251E+02 0.  0.
          5    1    1    2  502    0 -0.38770135517E+02 -0.16411311272E+02 -0.54267859267E+02  0.68810809435E+02  0.41800000000E+01 0. -1.
         -5    1    1    2    0  502  0.44283319813E+02  0.35287349882E+02  0.23722394139E+02  0.61534005713E+02  0.41800000000E+01 0.  1.
        -11    1    3    3    0    0  0.43489975465E+00  0.27188269750E+02 -0.30282286023E+02  0.40698992575E+02  0.00000000000E+00 0.  1.
         11    1    3    3    0    0 -0.59480840510E+01 -0.46064308361E+02 -0.24571463666E+03  0.25006595705E+03  0.00000000000E+00 0. -1.
</event>
<event>
 7    1  0.6145388E-006  0.1630807E+03  0.7561462E-02  0.1185262E+00
          1   -1    0    0  501    0  0.00000000000E+00  0.00000000000E+00  0.88350628849E+03  0.88350628849E+03  0.00000000000E+00 0. -1.
         -1   -1    0    0    0  501 -0.00000000000E+00 -0.00000000000E+00 -0.36384244883E+02  0.36384244883E+02  0.00000000000E+00 0.  1.
         23    2    1    2    0    0 -0.10834752445E+02  0.97549959627E+01  0.33355609899E+03  0.34605154568E+03  0.90991479200E+02 0.  0.
          5    1    1    2  502    0 -0.53082826180E+02 -0.11132591164E+03  0.17131862908E+03  0.21113689898E+03  0.41800000000E+01 0. -1.
         -5    1    1    2    0  502  0.63917578625E+02  0.10157091568E+03  0.34224731553E+03  0.36270208871E+03  0.41800000000E+01 0.  1.
        -11    1    3    3    0    0 -0.13156828180E+02 -0.35242187041E+02  0.78521974386E+02  0.87067872011E+02  0.00000000000E+00 0. -1.
         11    1    3    3    0    0  0.23220757348E+01  0.44997183003E+02  0.25503412461E+03  0.25898367367E+03  0.00000000000E+00 0.  1.
</event>
<event>
 7    1  0.6145388E-006  0.1106380E+03  0.7561462E-02  0.1259393E+00
         -2   -1    0    0    0  501 -0.00000000000E+00  0.00000000000E+00  0.14157635891E+03  0.14157635891E+03  0.00000000000E+00 0.  1.
          2   -1    0    0  501    0  0.00000000000E+00 -0.00000000000E+00 -0.18607688239E+03  0.18607688239E+03  0.00000000000E+00 0. -1.
         23    2    1    2    0    0 -0.82616337817E+01  0.80054489373E+02 -0.10490848132E+03  0.16711128732E+03  0.10219303809E+03 0.  0.
          5    1    1    2  502    0  0.27536076349E+02 -0.62264374997E+02  0.94986344436E+02  0.11694000994E+03  0.41800000000E+01 0.  1.
         -5    1    1    2    0  502 -0.19274442568E+02 -0.17790114375E+02 -0.34578386586E+02  0.43601944047E+02  0.41800000000E+01 0.  1.
        -11    1    3    3    0    0  0.44344661351E+02  0.45682012002E+02 -0.33329833446E+02  0.71862180654E+02  0.00000000000E+00 0.  1.
         11    1    3    3    0    0 -0.52606295133E+02  0.34372477371E+02 -0.71578647878E+02  0.95249106663E+02  0.00000000000E+00 0. -1.
</event>
<event>
 7    1  0.6145388E-006  0.1066286E+03  0.7561462E-02  0.1266944E+00
          2   -1    0    0  501    0  0.00000000000E+00  0.00000000000E+00  0.42836618389E+02  0.42836618389E+02  0.00000000000E+00 0. -1.
         -2   -1    0    0    0  501 -0.00000000000E+00 -0.00000000000E+00 -0.33669425428E+03  0.33669425428E+03  0.00000000000E+00 0.  1.
         23    2    1    2    0    0 -0.20461194166E+01 -0.14854118416E+02 -0.53260254932E+02  0.10727763593E+03  0.91907589336E+02 0.  0.
          5    1    1    2  502    0  0.46656359180E+02 -0.33929176372E+02 -0.81689425520E+02  0.10009315413E+03  0.41800000000E+01 0. -1.
         -5    1    1    2    0  502 -0.44610239764E+02  0.48783294788E+02 -0.15890795544E+03  0.17216008261E+03  0.41800000000E+01 0.  1.
        -11    1    3    3    0    0  0.42101944201E+02 -0.15940181369E+02 -0.42306859143E+02  0.61778098208E+02  0.00000000000E+00 0. -1.
         11    1    3    3    0    0 -0.44148063618E+02  0.10860629533E+01 -0.10953395789E+02  0.45499537726E+02  0.00000000000E+00 0.  1.
</event>
<event>
 7    1  0.6145388E-006  0.1195653E+03  0.7561462E-02  0.1243816E+00
         -4   -1    0    0    0  501 -0.00000000000E+00  0.00000000000E+00  0.59784306114E+02  0.59784306114E+02  0.00000000000E+00 0.  1.
          4   -1    0    0  501    0  0.00000000000E+00 -0.00000000000E+00 -0.40892726970E+03  0.40892726970E+03  0.00000000000E+00 0. -1.
         23    2    1    2    0    0  0.67963664686E+02 -0.80282383050E+02 -0.21991921921E+03  0.26036464762E+03  0.91438318049E+02 0.  0.
          5    1    1    2  502    0 -0.24317152629E+02  0.38702609580E+02  0.17924657892E+02  0.49274553888E+02  0.41800000000E+01 0.  1.
         -5    1    1    2    0  502 -0.43646512057E+02  0.41579773470E+02 -0.14714840226E+03  0.15907237430E+03  0.41800000000E+01 0.  1.
        -11    1    3    3    0    0  0.34109728442E+02 -0.91090893200E+02 -0.19177732401E+03  0.21503387268E+03  0.00000000000E+00 0. -1.
         11    1    3    3    0    0  0.33853936245E+02  0.10808510149E+02 -0.28141895206E+02  0.45330774940E+02  0.00000000000E+00 0.  1.
</event>
<event>
 7    1  0.6145388E-006  0.3398428E+03  0.7561462E-02  0.1066863E+00
          1   -1    0    0  501    0  0.00000000000E+00  0.00000000000E+00  0.92961094782E+03  0.92961094782E+03  0.00000000000E+00 0. -1.
         -1   -1    0    0    0  501 -0.00000000000E+00 -0.00000000000E+00 -0.15564822144E+03  0.15564822144E+03  0.00000000000E+00 0.  1.
         23    2    1    2    0    0 -0.20248460566E+03  0.25816133014E+03  0.60764278424E+03  0.69672716064E+03  0.92475376268E+02 0.  0.
          5    1    1    2  502    0  0.80752793575E+02 -0.18377822312E+03  0.13634279237E+03  0.24269791593E+03  0.41800000000E+01 0.  1.
         -5    1    1    2    0  502  0.12173181209E+03 -0.74383107023E+02  0.29977149765E+02  0.14583409270E+03  0.41800000000E+01 0.  1.
        -11    1    3    3    0    0 -0.13281902607E+03  0.10997390818E+03  0.25386399203E+03  0.30689099142E+03  0.00000000000E+00 0.  1.
         11    1    3    3    0    0 -0.69665579587E+02  0.14818742197E+03  0.35377879221E+03  0.38983616921E+03  0.00000000000E+00 0. -1.
</event>
<event>
 7    1  0.6145388E-006  0.1205525E+03  0.7561462E-02  0.1242188E+00
         -1   -1    0    0    0  501 -0.00000000000E+00  0.00000000000E+00  0.12204430903E+02  0.12204430903E+02  0.00000000000E+00 0.  1.
          1   -1    0    0  501    0  0.00000000000E+00 -0.00000000000E+00 -0.12041572992E+04  0.12041572992E+04  0.00000000000E+00 0. -1.
         23    2    1    2    0    0  0.12405442910E+02 -0.52290847370E+02 -0.54885120499E+03  0.55900623394E+03  0.91444500292E+02 0.  0.
          5    1    1    2  502    0  0.55893473220E+02  0.14425275404E+02 -0.28381535412E+03  0.28965634216E+03  0.41800000000E+01 0. -1.
         -5    1    1    2    0  502 -0.68298916130E+02  0.37865571966E+02 -0.35928630915E+03  0.36769915397E+03  0.41800000000E+01 0. -1.
        -11    1    3    3    0    0  0.48677279820E+02 -0.10701933906E+02 -0.29979702591E+03  0.30391160838E+03  0.00000000000E+00 0. -1.
         11    1    3    3    0    0 -0.36271836911E+02 -0.41588913464E+02 -0.24905417908E+03  0.25509462557E+03  0.00000000000E+00 0.  1.
</event>
<event>
 7    1  0.6145388E-006  0.1340478E+03  0.7561462E-02  0.1221570E+00
         -2   -1    0    0    0  501 -0.00000000000E+00  0.00000000000E+00  0.42284355853E+02  0.42284355853E+02  0.00000000000E+00 0.  1.
          2   -1    0    0  501    0  0.00000000000E+00 -0.00000000000E+00 -0.48794214021E+03  0.48794214021E+03  0.00000000000E+00 0. -1.
         23    2    1    2    0    0 -0.49643264653E+02 -0.74355457467E+02 -0.25653144966E+03  0.28646599208E+03  0.90891100615E+02 0.  0.
          5    1    1    2  502    0  0.42857861206E+02 -0.19383819898E+02 -0.22271548293E+02  0.52211330230E+02  0.41800000000E+01 0. -1.
         -5    1    1    2    0  502  0.67854034467E+01  0.93739277365E+02 -0.16685478640E+03  0.19154917375E+03  0.41800000000E+01 0. -1.
        -11    1    3    3    0    0 -0.26569013105E+02  0.17678402457E+02 -0.52252468465E+02  0.61227108632E+02  0.00000000000E+00 0. -1.
         11    1    3    3    0    0 -0.23074251548E+02 -0.92033859924E+02 -0.20427898120E+03  0.22523888345E+03  0.00000000000E+00 0.  1.
</event>
<event>
 7    1  0.6145388E-006  0.2886117E+03  0.7561462E-02  0.1091076E+00
          1   -1    0    0  501    0  0.00000000000E+00  0.00000000000E+00  0.88345142642E+02  0.88345142642E+02  0.00000000000E+00 0. -1.
         -1   -1    0    0    0  501 -0.00000000000E+00 -0.00000000000E+00 -0.10820946769E+04  0.10820946769E+04  0.00000000000E+00 0.  1.
         23    2    1    2    0    0  0.14216615686E+03 -0.24505248787E+03 -0.56647420999E+03  0.64273299275E+03  0.10931940093E+03 0.  0.
          5    1    1    2  502    0 -0.67971497861E+02  0.79751767852E+02 -0.67091234831E+02  0.12449568341E+03  0.41800000000E+01 0.  1.
         -5    1    1    2    0  502 -0.74194659001E+02  0.16530072002E+03 -0.36018408945E+03  0.40321114339E+03  0.41800000000E+01 0.  1.
        -11    1    3    3    0    0  0.59408457295E+02 -0.44708283922E+02 -0.23664846807E+03  0.24805381047E+03  0.00000000000E+00 0.  1.
         11    1    3    3    0    0  0.82757699567E+02 -0.20034420395E+03 -0.32982574193E+03  0.39467918229E+03  0.00000000000E+00 0. -1.
</event>
<event>
 7    1  0.6145388E-006  0.7058681E+02  0.7561462E-02  0.1358109E+00
         -2   -1    0    0    0  501 -0.00000000000E+00  0.00000000000E+00  0.35496664082E+02  0.35496664082E+02  0.00000000000E+00 0.  1.
          2   -1    0    0  501    0  0.00000000000E+00 -0.00000000000E+00 -0.46643285836E+03  0.46643285836E+03  0.00000000000E+00 0. -1.
         23    2    1    2    0    0  0.32816522413E+02  0.21538988805E+01 -0.26870903890E+03  0.28460431817E+03  0.87826572894E+02 0.  0.
          5    1    1    2  502    0 -0.33123938680E+02  0.11397574632E+02 -0.18617696115E+03  0.18948992924E+03  0.41800000000E+01 0. -1.
         -5    1    1    2    0  502  0.30741626682E+00 -0.13551473512E+02  0.23949805780E+02  0.27835275030E+02  0.41800000000E+01 0.  1.
        -11    1    3    3    0    0 -0.24796144388E+02  0.19497563268E+02 -0.12258071308E+03  0.12657422711E+03  0.00000000000E+00 0.  1.
         11    1    3    3    0    0  0.57612666801E+02 -0.17343664388E+02 -0.14612832583E+03  0.15803009106E+03  0.00000000000E+00 0. -1.
</event>
<event>
 6    1  0.6145388E-006  0.4141903E+03  0.7561462E-02  0.1038974E+00
          1   -1    0    0  501    0  0.00000000000E+00  0.00000000000E+00  0.75756563691E+03  0.75756563691E+03  0.00000000000E+00 0. -1.
         -1   -1    0    0    0  501 -0.00000000000E+00 -0.00000000000E+00 -0.27625100622E+03  0.27625100622E+03  0.00000000000E+00 0.  1.
          5    1    1    2  502    0 -0.18330490075E+03  0.28768938185E+03 -0.10547162027E+02  0.34131302656E+03  0.41800000000E+01 0.  1.
         -5    1    1    2    0  502 -0.27047863994E+02  0.50335510552E+02  0.53051626604E+02  0.78084557081E+02  0.41800000000E+01 0. -1.
        -11    1    1    2    0    0  0.39229892220E+02 -0.21656385358E+03  0.21707450340E+03  0.30912817269E+03  0.00000000000E+00 0. -1.
         11    1    1    2    0    0  0.17112287253E+03 -0.12146103882E+03  0.22173566271E+03  0.30529088681E+03  0.00000000000E+00 0.  1.
</event>
<event>
 7    1  0.6145388E-006  0.9840294E+02  0.7561462E-02  0.1283691E+00
         -2   -1    0    0    0  501 -0.00000000000E+00  0.00000000000E+00  0.34827916323E+02  0.34827916323E+02  0.00000000000E+00 0. -1.
          2   -1    0    0  501    0  0.00000000000E+00 -0.00000000000E+00 -0.46149168474E+03  0.46149168474E+03  0.00000000000E+00 0.  1.
         23    2    1    2    0    0 -0.31921414221E+02  0.49382967100E+02 -0.24413748788E+03  0.26729073715E+03  0.91561842754E+02 0.  0.
          5    1    1    2  502    0  0.62432203261E+02 -0.62905784337E+02 -0.74398813761E+02  0.11579107736E+03  0.41800000000E+01 0.  1.
         -5    1    1    2    0  502 -0.30510789040E+02  0.13522817237E+02 -0.10812746677E+03  0.11323778656E+03  0.41800000000E+01 0.  1.
        -11    1    3    3    0    0 -0.34754377254E+02  0.11721928379E+02 -0.23762036187E+02  0.43702456533E+02  0.00000000000E+00 0. -1.
         11    1    3    3    0    0  0.28329630336E+01  0.37661038721E+02 -0.22037545170E+03  0.22358828061E+03  0.00000000000E+00 0.  1.
</event>
<event>
 7    1  0.6145388E-006  0.9934528E+02  0.7561462E-02  0.1281679E+00
          2   -1    0    0  501    0  0.00000000000E+00  0.00000000000E+00  0.10381261127E+03  0.10381261127E+03  0.00000000000E+00 0.  1.
         -2   -1    0    0    0  501 -0.00000000000E+00 -0.00000000000E+00 -0.15470064900E+03  0.15470064900E+03  0.00000000000E+00 0. -1.
         23    2    1    2    0    0 -0.58210383900E+02 -0.35822903771E+02 -0.34867021583E+02  0.11507023370E+03  0.85753835258E+02 0.  0.
          5    1    1    2  502    0  0.85052401126E+02  0.49948132412E+02  0.15000618055E+02  0.99855985353E+02  0.41800000000E+01 0. -1.
         -5    1    1    2    0  502 -0.26842017226E+02 -0.14125228641E+02 -0.31021634206E+02  0.43587041214E+02  0.41800000000E+01 0. -1.
        -11    1    3    3    0    0 -0.28589349527E+02 -0.24455006347E+02 -0.62530828222E+02  0.72976042096E+02  0.00000000000E+00 0. -1.
         11    1    3    3    0    0 -0.29621034373E+02 -0.11367897424E+02  0.27663806639E+02  0.42094191605E+02  0.00000000000E+00 0.  1.
</event>
<event>
 7    1  0.6145388E-006  0.1077904E+03  0.7561462E-02  0.1264717E+00
         -4   -1    0    0    0  501 -0.00000000000E+00  0.00000000000E+00  0.71769237919E+03  0.71769237919E+03  0.00000000000E+00 0. -1.
          4   -1    0    0  501    0  0.00000000000E+00 -0.00000000000E+00 -0.31967169212E+02  0.31967169212E+02  0.00000000000E+00 0.  1.
         23    2    1    2    0    0  0.43259177252E+02  0.74630453469E+02  0.16866075125E+03  0.21073054918E+03  0.92303057049E+02 0.  0.
          5    1    1    2  502    0  0.20602289032E+02  0.51830932102E+01  0.27868017470E+03  0.27952000097E+03  0.41800000000E+01 0. -1.
         -5    1    1    2    0  502 -0.63861466283E+02 -0.79813546679E+02  0.23838428402E+03  0.25940899826E+03  0.41800000000E+01 0. -1.
        -11    1    3    3    0    0  0.28240575197E+02  0.70655521275E+02  0.17731168868E+03  0.19294861419E+03  0.00000000000E+00 0. -1.
         11    1    3    3    0    0  0.15018602055E+02  0.39749321934E+01 -0.86509374248E+01  0.17781934989E+02  0.00000000000E+00 0.  1.
</event>
<event>
 7    1  0.6145388E-006  0.9027501E+02  0.7561462E-02  0.1302187E+00
          4   -1    0    0  501    0  0.00000000000E+00  0.00000000000E+00  0.20532507903E+03  0.20532507903E+03  0.00000000000E+00 0. -1.
         -4   -1    0    0    0  501 -0.00000000000E+00 -0.00000000000E+00 -0.82850418752E+02  0.82850418752E+02  0.00000000000E+00 0.  1.
         23    2    1    2    0    0  0.79181580586E+01  0.69529166755E+01  0.13516983477E+03  0.16200449113E+03  0.88676550663E+02 0.  0.
          5    1    1    2  502    0 -0.40538637602E+02  0.46620912809E+02  0.56565279853E+00  0.61924817423E+02  0.41800000000E+01 0.  1.
         -5    1    1    2    0  502  0.32620479543E+02 -0.53573829485E+02 -0.13260827282E+02  0.64246189237E+02  0.41800000000E+01 0.  1.
        -11    1    3    3    0    0  0.28245056985E+02  0.17129134075E+02  0.96087844504E+01  0.34402314121E+02  0.00000000000E+00 0.  1.
         11    1    3    3    0    0 -0.20326898926E+02 -0.10176217400E+02  0.12556105032E+03  0.12760217701E+03  0.00000000000E+00 0. -1.
</event>
<event>
 7    1  0.6145388E-006  0.9204014E+02  0.7561462E-02  0.1297985E+00
          1   -1    0    0  501    0  0.00000000000E+00  0.00000000000E+00  0.28864415263E+03  0.28864415263E+03  0.00000000000E+00 0. -1.
         -1   -1    0    0    0  501 -0.00000000000E+00 -0.00000000000E+00 -0.70208555528E+02  0.70208555528E+02  0.00000000000E+00 0.  1.
         23    2    1    2    0    0 -0.78647952401E+02 -0.39616749628E+02  0.11255029580E+03  0.17280299812E+03  0.97151015471E+02 0.  0.
          5    1    1    2  502    0  0.26919934119E+01  0.15403980624E+02 -0.26736469746E+02  0.31254450276E+02  0.41800000000E+01 0.  1.
         -5    1    1    2    0  502  0.75955958989E+02  0.24212769004E+02  0.13262177104E+03  0.15479525976E+03  0.41800000000E+01 0.  1.
        -11    1    3    3    0    0 -0.13222306624E+02 -0.67156288781E+01 -0.17874057354E+02  0.23225223142E+02  0.00000000000E+00 0.  1.
         11    1    3    3    0    0 -0.65425645777E+02 -0.32901120750E+02  0.13042435316E+03  0.14957777498E+03  0.00000000000E+00 0. -1.
</event>
<event>
 7    1  0.6145388E-006  0.8340005E+02  0.7561462E-02  0.1319670E+00
          4   -1    0    0  501    0  0.00000000000E+00  0.00000000000E+00  0.15331864370E+03  0.15331864370E+03  0.00000000000E+00 0. -1.
         -4   -1    0    0    0  501 -0.00000000000E+00 -0.00000000000E+00 -0.10571881242E+03  0.10571881242E+03  0.00000000000E+00 0.  1.
         23    2    1    2    0    0 -0.42724479219E+02 -0.50210426763E+02  0.31787276024E+02  0.11675888222E+03  0.90971081006E+02 0.  0.
          5    1    1    2  502    0  0.10780047836E+02  0.12831139207E+02  0.68174194933E+02  0.70328094098E+02  0.41800000000E+01 0. -1.
         -5    1    1    2    0  502  0.31944431383E+02  0.37379287555E+02 -0.52361639681E+02  0.71950479808E+02  0.41800000000E+01 0. -1.
        -11    1    3    3    0    0  0.16388919097E+02 -0.35745772941E+02 -0.12757061826E+02  0.41341257585E+02  0.00000000000E+00 0.  1.
         11    1    3    3    0    0 -0.59113398316E+02 -0.14464653822E+02  0.44544337850E+02  0.75417624632E+02  0.00000000000E+00 0. -1.
</event>
<event>
 7    1  0.6145388E-006  0.1252012E+03  0.7561462E-02  0.1234755E+00
          1   -1    0    0  501    0  0.00000000000E+00  0.00000000000E+00  0.70438776640E+03  0.70438776640E+03  0.00000000000E+00 0. -1.
         -1   -1    0    0    0  501 -0.00000000000E+00 -0.00000000000E+00 -0.23287116997E+02  0.23287116997E+02  0.00000000000E+00 0.  1.
         23    2    1    2    0    0  0.45285209124E+02 -0.46387134710E+02  0.34744756737E+03  0.36549419235E+03  0.93078870524E+02 0.  0.
          5    1    1    2  502    0 -0.85441249669E+02  0.16005418316E+02  0.24686041104E+03  0.26175162941E+03  0.41800000000E+01 0. -1.
         -5    1    1    2    0  502  0.40156040545E+02  0.30381716394E+02  0.86792671000E+02  0.10042906164E+03  0.41800000000E+01 0. -1.
        -11    1    3    3    0    0 -0.20062268829E+02 -0.42955265941E+02  0.16451312554E+03  0.17120811306E+03  0.00000000000E+00 0.  1.
         11    1    3    3    0    0  0.65347477953E+02 -0.34318687700E+01  0.18293444183E+03  0.19428607929E+03  0.00000000000E+00 0. -1.
</event>
<event>
 7    1  0.6374961E-006  0.3091659E+03  0.7561462E-02  0.1080746E+00
         -2   -1    0    0    0  501 -0.00000000000E+00  0.00000000000E+00  0.62704102014E+02  0.62704102014E+02  0.00000000000E+00 0.  1.
          2   -1    0    0  501    0  0.00000000000E+00 -0.00000000000E+00 -0.16196346121E+04  0.16196346121E+04  0.00000000000E+00 0. -1.
         23    2    1    2    0    0  0.28789801081E+03  0.74878776944E+02 -0.67445346640E+03  0.74270844571E+03  0.90753849112E+02 0.  0.
          5    1    1    2  502    0 -0.11018922165E+03  0.20961682495E+02 -0.42480305235E+03  0.43938156810E+03  0.41800000000E+01 0. -1.
         -5    1    1    2    0  502 -0.17770878916E+03 -0.95840459438E+02 -0.45767399133E+03  0.50024870030E+03  0.41800000000E+01 0. -1.
        -11    1    3    3    0    0  0.14539846354E+03  0.51370478143E+01 -0.24570821038E+03  0.28555144389E+03  0.00000000000E+00 0.  1.
         11    1    3    3    0    0  0.14249954726E+03  0.69741729129E+02 -0.42874525602E+03  0.45715700182E+03  0.00000000000E+00 0. -1.
</event>
<event>
 7    1  0.6145388E-006  0.3131472E+03  0.7561462E-02  0.1078847E+00
         -2   -1    0    0    0  501 -0.00000000000E+00  0.00000000000E+00  0.12340668539E+03  0.12340668539E+03  0.00000000000E+00 0.  1.
          2   -1    0    0  501    0  0.00000000000E+00 -0.00000000000E+00 -0.86887677867E+03  0.86887677867E+03  0.00000000000E+00 0. -1.
         23    2    1    2    0    0  0.30553088513E+03  0.27788186639E+02 -0.35876880565E+03  0.48306303544E+03  0.10253553146E+03 0.  0.
          5    1    1    2  502    0 -0.25955341995E+03 -0.46610288151E+02 -0.24876058251E+03  0.36254626819E+03  0.41800000000E+01 0. -1.
         -5    1    1    2    0  502 -0.45977465181E+02  0.18822101512E+02 -0.13794070512E+03  0.14667416043E+03  0.41800000000E+01 0. -1.
        -11    1    3    3    0    0  0.52536936184E+02 -0.18120036493E+02 -0.11968526044E+03  0.13195842888E+03  0.00000000000E+00 0. -1.
         11    1    3    3    0    0  0.25299394895E+03  0.45908223132E+02 -0.23908354521E+03  0.35110460655E+03  0.00000000000E+00 0.  1.
</event>
<event>
 7    1  0.6145388E-006  0.1101362E+03  0.7561462E-02  0.1260318E+00
         -2   -1    0    0    0  501 -0.00000000000E+00  0.00000000000E+00  0.26521297659E+03  0.26521297659E+03  0.00000000000E+00 0.  1.
          2   -1    0    0  501    0  0.00000000000E+00 -0.00000000000E+00 -0.49151225577E+02  0.49151225577E+02  0.00000000000E+00 0. -1.
         23    2    1    2    0    0 -0.52454412897E+01  0.24738264611E+02  0.11352423006E+03  0.15065291105E+03  0.95755169097E+02 0.  0.
          5    1    1    2  502    0 -0.56036453850E+02  0.84560942724E+01  0.36028659839E+02  0.67283923936E+02  0.41800000000E+01 0.  1.
         -5    1    1    2    0  502  0.61281895140E+02 -0.33194358883E+02  0.66508861117E+02  0.96427367177E+02  0.41800000000E+01 0.  1.
        -11    1    3    3    0    0 -0.72134252016E+01 -0.34050439169E+02  0.67573216710E+02  0.76010561946E+02  0.00000000000E+00 0.  1.
         11    1    3    3    0    0  0.19679839119E+01  0.58788703780E+02  0.45951013348E+02  0.74642349109E+02  0.00000000000E+00 0. -1.
</event>
<event>
 7    1  0.6145388E-006  0.1722346E+03  0.7561462E-02  0.1175537E+00
          2   -1    0    0  501    0  0.00000000000E+00  0.00000000000E+00  0.34827992076E+03  0.34827992076E+03  0.00000000000E+00 0. -1.
         -2   -1    0    0    0  501 -0.00000000000E+00 -0.00000000000E+00 -0.95892828596E+02  0.95892828596E+02  0.00000000000E+00 0.  1.
         23    2    1    2    0    0  0.14316629160E+03 -0.14307397096E+02  0.88419593363E+02  0.19270894527E+03  0.92830083660E+02 0.  0.
          5    1    1    2  502    0 -0.14401528252E+02  0.43342170062E+02  0.87677188595E+02  0.98948014238E+02  0.41800000000E+01 0.  1.
         -5    1    1    2    0  502 -0.12876476335E+03 -0.29034772966E+02  0.76290310205E+02  0.15251578985E+03  0.41800000000E+01 0.  1.
        -11    1    3    3    0    0  0.27704845110E+02 -0.39613408392E+02  0.47102135142E+02  0.67493641937E+02  0.00000000000E+00 0. -1.
         11    1    3    3    0    0  0.11546144649E+03  0.25306011297E+02  0.41317458221E+02  0.12521530333E+03  0.00000000000E+00 0.  1.
</event>
<event>
 7    1  0.6145388E-006  0.1334784E+03  0.7561462E-02  0.1222384E+00
          1   -1    0    0  501    0  0.00000000000E+00  0.00000000000E+00  0.72747079199E+03  0.72747079199E+03  0.00000000000E+00 0. -1.
         -1   -1    0    0    0  501 -0.00000000000E+00 -0.00000000000E+00 -0.35641496465E+02  0.35641496465E+02  0.00000000000E+00 0.  1.
         23    2    1    2    0    0 -0.11069470877E+03  0.41016041453E+02  0.35355398351E+03  0.38362375538E+03  0.90725587515E+02 0.  0.
          5    1    1    2  502    0  0.27606524188E+02 -0.60304760357E+01 -0.83192326799E+00  0.28577111738E+02  0.41800000000E+01 0. -1.
         -5    1    1    2    0  502  0.83088184577E+02 -0.34985565417E+02  0.33910723528E+03  0.35091142133E+03  0.41800000000E+01 0. -1.
        -11    1    3    3    0    0 -0.47789724767E+02 -0.27492727796E+02  0.15054762130E+03  0.16032558796E+03  0.00000000000E+00 0.  1.
         11    1    3    3    0    0 -0.62904983998E+02  0.68508769248E+02  0.20300636222E+03  0.22329816743E+03  0.00000000000E+00 0. -1.
</event>
<event>
 7    1  0.6145388E-006  0.1138048E+03  0.7561462E-02  0.1253682E+00
          2   -1    0    0  501    0  0.00000000000E+00  0.00000000000E+00  0.33232441874E+03  0.33232441874E+03  0.00000000000E+00 0. -1.
         -2   -1    0    0    0  501 -0.00000000000E+00 -0.00000000000E+00 -0.57284702503E+02  0.57284702503E+02  0.00000000000E+00 0.  1.
         23    2    1    2    0    0 -0.17104412458E+02 -0.49090965918E+02  0.22351477152E+03  0.24467407071E+03  0.84876757293E+02 0.  0.
          5    1    1    2  502    0 -0.52218759642E+02  0.25138530975E+02  0.57772258807E+01  0.58391723189E+02  0.41800000000E+01 0.  1.
         -5    1    1    2    0  502  0.69323172100E+02  0.23952434943E+02  0.45747718836E+02  0.86543327348E+02  0.41800000000E+01 0.  1.
        -11    1    3    3    0    0 -0.42035246127E+02 -0.56139479056E+02  0.18844382818E+03  0.20107132915E+03  0.00000000000E+00 0. -1.
         11    1    3    3    0    0  0.24930833668E+02  0.70485131384E+01  0.35070943342E+02  0.43602741562E+02  0.00000000000E+00 0.  1.
</event>
<event>
 7    1  0.6145388E-006  0.2668307E+03  0.7561462E-02  0.1103107E+00
          1   -1    0    0  501    0  0.00000000000E+00  0.00000000000E+00  0.11628082115E+04  0.11628082115E+04  0.00000000000E+00 0. -1.
         -1   -1    0    0    0  501 -0.00000000000E+00 -0.00000000000E+00 -0.90495880872E+02  0.90495880872E+02  0.00000000000E+00 0.  1.
         23    2    1    2    0    0  0.24256862190E+03  0.10417745416E+03  0.82355830398E+03  0.86961581180E+03  0.91054389251E+02 0.  0.
          5    1    1    2  502    0 -0.17866686069E+03 -0.71974559410E+02  0.24531283412E+03  0.31192634274E+03  0.41800000000E+01 0. -1.
         -5    1    1    2    0  502 -0.63901761212E+02 -0.32202894749E+02  0.34411925413E+01  0.71761937839E+02  0.41800000000E+01 0. -1.
        -11    1    3    3    0    0  0.67253536204E+02  0.39382217276E+01  0.11966340089E+03  0.13732398638E+03  0.00000000000E+00 0.  1.
         11    1    3    3    0    0  0.17531508570E+03  0.10023923243E+03  0.70389490309E+03  0.73229182543E+03  0.00000000000E+00 0. -1.
</event>
<event>
 7    1  0.6145388E-006  0.1041336E+03  0.7561462E-02  0.1271836E+00
         -2   -1    0    0    0  501 -0.00000000000E+00  0.00000000000E+00  0.90509584446E+02  0.90509584446E+02  0.00000000000E+00 0. -1.
          2   -1    0    0  501    0  0.00000000000E+00 -0.00000000000E+00 -0.15227467432E+03  0.15227467432E+03  0.00000000000E+00 0.  1.
         23    2    1    2    0    0  0.71014707944E+01  0.43670979042E+02 -0.33065249751E+02  0.10703238016E+03  0.91678974493E+02 0.  0.
          5    1    1    2  502    0 -0.81626942532E+00  0.31441679840E+02 -0.48271111289E+02  0.57765198104E+02  0.41800000000E+01 0.  1.
         -5    1    1    2    0  502 -0.62852013691E+01 -0.75112658882E+02  0.19571271164E+02  0.77986680501E+02  0.41800000000E+01 0.  1.
        -11    1    3    3    0    0 -0.38602970025E+02  0.11470803093E+01 -0.18997221580E+02  0.43039511101E+02  0.00000000000E+00 0.  1.
         11    1    3    3    0    0  0.45704440820E+02  0.42523898733E+02 -0.14068028171E+02  0.63992869062E+02  0.00000000000E+00 0. -1.
</event>
<event>
 7    1  0.6145388E-006  0.1255352E+03  0.7561462E-02  0.1234235E+00
         -1   -1    0    0    0  501 -0.00000000000E+00  0.00000000000E+00  0.47781100225E+03  0.47781100225E+03  0.00000000000E+00 0.  1.
          1   -1    0    0  501    0  0.00000000000E+00 -0.00000000000E+00 -0.39590648548E+02  0.39590648548E+02  0.00000000000E+00 0. -1.
         23    2    1    2    0    0  0.56668587015E+02  0.37878867022E+02  0.10583927762E+03  0.15577971516E+03  0.91756360256E+02 0.  0.
          5    1    1    2  502    0 -0.74638187904E+02 -0.69865950734E+02  0.27465691403E+03  0.29309725859E+03  0.41800000000E+01 0. -1.
         -5    1    1    2    0  502  0.17969600889E+02  0.31987083712E+02  0.57724162051E+02  0.68524677052E+02  0.41800000000E+01 0. -1.
        -11    1    3    3    0    0  0.53244068755E+02  0.65262195900E+02  0.64549056870E+02  0.10611628440E+03  0.00000000000E+00 0. -1.
         11    1    3    3    0    0  0.34245182604E+01 -0.27383328878E+02  0.41290220749E+02  0.49663430764E+02  0.00000000000E+00 0.  1.
</event>
<event>
 7    1  0.6145388E-006  0.1106928E+03  0.7561462E-02  0.1259292E+00
          3   -1    0    0  501    0  0.00000000000E+00  0.00000000000E+00  0.90006459077E+03  0.90006459077E+03  0.00000000000E+00 0. -1.
         -3   -1    0    0    0  501 -0.00000000000E+00 -0.00000000000E+00 -0.14234680107E+02  0.14234680107E+02  0.00000000000E+00 0.  1.
         23    2    1    2    0    0  0.12097578558E+02  0.18996400002E+02  0.46993959117E+03  0.47942088965E+03  0.92162657636E+02 0.  0.
          5    1    1    2  502    0  0.48767096220E+02 -0.38738154843E+02  0.22550083860E+03  0.23398071485E+03  0.41800000000E+01 0. -1.
         -5    1    1    2    0  502 -0.60864674778E+02  0.19741754841E+02  0.19038948090E+03  0.20089766638E+03  0.41800000000E+01 0. -1.
        -11    1    3    3    0    0  0.23504383463E+02  0.53535611203E+02  0.28358337630E+03  0.28954800814E+03  0.00000000000E+00 0.  1.
         11    1    3    3    0    0 -0.11406804905E+02 -0.34539211202E+02  0.18635621487E+03  0.18987288150E+03  0.00000000000E+00 0. -1.
</event>
<event>
 7    1  0.6145388E-006  0.1581415E+03  0.7561462E-02  0.1190811E+00
          1   -1    0    0  501    0  0.00000000000E+00  0.00000000000E+00  0.35338134949E+03  0.35338134949E+03  0.00000000000E+00 0. -1.
         -1   -1    0    0    0  501 -0.00000000000E+00 -0.00000000000E+00 -0.85894230437E+02  0.85894230437E+02  0.00000000000E+00 0.  1.
         23    2    1    2    0    0  0.12855562275E+03  0.23558324892E+02  0.17431095529E+03  0.24360487503E+03  0.10898386666E+03 0.  0.
          5    1    1    2  502    0  0.12467517438E+02 -0.20313949463E+02  0.36062957528E+02  0.43429308532E+02  0.41800000000E+01 0. -1.
         -5    1    1    2    0  502 -0.14102314019E+03 -0.32443754298E+01  0.57113206227E+02  0.15224139636E+03  0.41800000000E+01 0.  1.
        -11    1    3    3    0    0 -0.86152454570E+01  0.98834138413E+01 -0.77597762673E+01  0.15235434065E+02  0.00000000000E+00 0.  1.
         11    1    3    3    0    0  0.13717086821E+03  0.13674911051E+02  0.18207073156E+03  0.22836944097E+03  0.00000000000E+00 0. -1.
</event>
<event>
 7    1  0.6145388E-006  0.1646122E+03  0.7561462E-02  0.1183586E+00
         -1   -1    0    0    0  501 -0.00000000000E+00  0.00000000000E+00  0.10543203846E+03  0.10543203846E+03  0.00000000000E+00 0.  1.
          1   -1    0    0  501    0  0.00000000000E+00 -0.00000000000E+00 -0.48780503109E+03  0.48780503109E+03  0.00000000000E+00 0. -1.
         23    2    1    2    0    0  0.15409756541E+03 -0.49765478805E+02 -0.32092851201E+03  0.37959048804E+03  0.12194739130E+03 0.  0.
          5    1    1    2  502    0 -0.67256881438E+02  0.37019801877E+02 -0.92652245046E+02  0.12039877385E+03  0.41800000000E+01 0. -1.
         -5    1    1    2    0  502 -0.86840683969E+02  0.12745676928E+02  0.31207764435E+02  0.93247807661E+02  0.41800000000E+01 0. -1.
        -11    1    3    3    0    0  0.62263804221E+02 -0.35084398837E+02 -0.25696279428E+03  0.26671627997E+03  0.00000000000E+00 0. -1.
         11    1    3    3    0    0  0.91833761186E+02 -0.14681079968E+02 -0.63965717729E+02  0.11287420807E+03  0.00000000000E+00 0.  1.
</event>
<event>
 7    1  0.6145388E-006  0.1178671E+03  0.7561462E-02  0.1246658E+00
         -1   -1    0    0    0  501 -0.00000000000E+00  0.00000000000E+00  0.98787411310E+02  0.98787411310E+02  0.00000000000E+00 0.  1.
          1   -1    0    0  501    0  0.00000000000E+00 -0.00000000000E+00 -0.15700291196E+03  0.15700291196E+03  0.00000000000E+00 0. -1.
         23    2    1    2    0    0  0.43397839832E+02  0.25784017854E+02 -0.61303196397E+02  0.12086049366E+03  0.91109763262E+02 0.  0.
          5    1    1    2  502    0 -0.87615350807E+02 -0.20534976650E+02 -0.18033693651E+00  0.90086846345E+02  0.41800000000E+01 0.  1.
         -5    1    1    2    0  502  0.44217510975E+02 -0.52490412035E+01  0.32680326795E+01  0.44842983264E+02  0.41800000000E+01 0.  1.
        -11    1    3    3    0    0  0.56460684102E+02 -0.14734502865E+02 -0.49923430150E+02  0.76793641026E+02  0.00000000000E+00 0. -1.
         11    1    3    3    0    0 -0.13062844271E+02  0.40518520719E+02 -0.11379766247E+02  0.44066852639E+02  0.00000000000E+00 0.  1.
</event>
<event>
 7    1  0.6145388E-006  0.1017208E+03  0.7561462E-02  0.1276718E+00
         -1   -1    0    0    0  501 -0.00000000000E+00  0.00000000000E+00  0.32026123507E+03  0.32026123507E+03  0.00000000000E+00 0.  1.
          1   -1    0    0  501    0  0.00000000000E+00 -0.00000000000E+00 -0.65869158372E+02  0.65869158372E+02  0.00000000000E+00 0. -1.
         23    2    1    2    0    0 -0.12434713328E+02  0.69959166591E+02  0.27526154318E+02  0.11748955399E+03  0.89427059889E+02 0.  0.
          5    1    1    2  502    0 -0.27810373923E+02 -0.61371547825E+02  0.42681518518E+02  0.79869069127E+02  0.41800000000E+01 0. -1.
         -5    1    1    2    0  502  0.40245087251E+02 -0.85876187663E+01  0.18418440386E+03  0.18877177032E+03  0.41800000000E+01 0. -1.
        -11    1    3    3    0    0  0.75876926477E+01  0.73794889363E+02 -0.99292334015E+01  0.74845497204E+02  0.00000000000E+00 0. -1.
         11    1    3    3    0    0 -0.20022405976E+02 -0.38357227716E+01  0.37455387720E+02  0.42644056790E+02  0.00000000000E+00 0.  1.
</event>
<event>
 7    1  0.6145388E-006  0.1026861E+03  0.7561462E-02  0.1274747E+00
         -2   -1    0    0    0  501 -0.00000000000E+00  0.00000000000E+00  0.64149910319E+02  0.64149910319E+02  0.00000000000E+00 0.  1.
          2   -1    0    0  501    0  0.00000000000E+00 -0.00000000000E+00 -0.19490977627E+03  0.19490977627E+03  0.00000000000E+00 0. -1.
         23    2    1    2    0    0 -0.31523076454E+01  0.28330357496E+02 -0.60241299881E+02  0.11266267165E+03  0.90836761127E+02 0.  0.
          5    1    1    2  502    0  0.43280194073E+02  0.26417203848E+02 -0.36283477662E+01  0.51006677658E+02  0.41800000000E+01 0. -1.
         -5    1    1    2    0  502 -0.40127886428E+02 -0.54747561344E+02 -0.66890218306E+02  0.95390337285E+02  0.41800000000E+01 0. -1.
        -11    1    3    3    0    0 -0.16516638091E+02  0.54583815208E+02 -0.60582853613E+02  0.83201408452E+02  0.00000000000E+00 0. -1.
         11    1    3    3    0    0  0.13364330446E+02 -0.26253457712E+02  0.34155373226E+00  0.29461263195E+02  0.00000000000E+00 0.  1.
</event>
<event>
 7    1  0.6145388E-006  0.1531752E+03  0.7561462E-02  0.1196625E+00
          4   -1    0    0  501    0  0.00000000000E+00  0.00000000000E+00  0.25693314321E+02  0.25693314321E+02  0.00000000000E+00 0. -1.
         -4   -1    0    0    0  501 -0.00000000000E+00 -0.00000000000E+00 -0.93403363718E+03  0.93403363718E+03  0.00000000000E+00 0.  1.
         23    2    1    2    0    0  0.10314426434E+03  0.38271910194E+02 -0.38627829367E+03  0.41173042191E+03  0.90595484382E+02 0.  0.
          5    1    1    2  502    0  0.25007722714E+02 -0.24180314789E+02 -0.76563741950E+02  0.84199482184E+02  0.41800000000E+01 0.  1.
         -5    1    1    2    0  502 -0.12815198706E+03 -0.14091595406E+02 -0.44549828724E+03  0.46379704740E+03  0.41800000000E+01 0.  1.
        -11    1    3    3    0    0  0.48735285486E+01 -0.24982494103E+02 -0.61168077124E+02  0.66252622221E+02  0.00000000000E+00 0.  1.
         11    1    3    3    0    0  0.98270735796E+02  0.63254404298E+02 -0.32511021655E+03  0.34547779969E+03  0.00000000000E+00 0. -1.
</event>
<event>
 7    1  0.6145388E-006  0.1171175E+03  0.7561462E-02  0.1247929E+00
         -1   -1    0    0    0  501 -0.00000000000E+00  0.00000000000E+00  0.27623458894E+02  0.27623458894E+02  0.00000000000E+00 0.  1.
          1   -1    0    0  501    0  0.00000000000E+00 -0.00000000000E+00 -0.67747074920E+03  0.67747074920E+03  0.00000000000E+00 0. -1.
         23    2    1    2    0    0 -0.85189061742E+02  0.25386771735E+02 -0.28553778019E+03  0.30978380499E+03  0.80823990867E+02 0.  0.
          5    1    1    2  502    0  0.29917075367E+02  0.34893368364E+02 -0.40812880820E+02  0.61609594992E+02  0.41800000000E+01 0.  1.
         -5    1    1    2    0  502  0.55271986375E+02 -0.60280140098E+02 -0.32349662930E+03  0.33370080811E+03  0.41800000000E+01 0.  1.
        -11    1    3    3    0    0 -0.29422837323E+02 -0.18907723747E+02 -0.35631533582E+02  0.49928063840E+02  0.00000000000E+00 0.  1.
         11    1    3    3    0    0 -0.55766224419E+02  0.44294495481E+02 -0.24990624661E+03  0.25985574115E+03  0.00000000000E+00 0. -1.
</event>
<event>
 7    1  0.6145388E-006  0.3677415E+03  0.7561462E-02  0.1055560E+00
          2   -1    0    0  501    0  0.00000000000E+00  0.00000000000E+00  0.32323391281E+03  0.32323391281E+03  0.00000000000E+00 0.  1.
         -2   -1    0    0    0  501 -0.00000000000E+00 -0.00000000000E+00 -0.44706122066E+03  0.44706122066E+03  0.00000000000E+00 0. -1.
         23    2    1    2    0    0 -0.63643569482E+02  0.35221804348E+03  0.72442889240E+01  0.36912716708E+03  0.89968503730E+02 0.  0.
          5    1    1    2  502    0  0.45543067441E+02 -0.57875197602E+02  0.96406085202E+01  0.74391687856E+02  0.41800000000E+01 0.  1.
         -5    1    1    2    0  502  0.18100502041E+02 -0.29434284588E+03 -0.14071220529E+03  0.32677627853E+03  0.41800000000E+01 0.  1.
        -11    1    3    3    0    0 -0.74857677552E+02  0.19044521875E+03 -0.16248829677E+02  0.20527317823E+03  0.00000000000E+00 0.  1.
         11    1    3    3    0    0  0.11214108070E+02  0.16177282473E+03  0.23493118601E+02  0.16385398885E+03  0.00000000000E+00 0. -1.
</event>
<event>
 7    1  0.6145388E-006  0.8937691E+02  0.7561462E-02  0.1304368E+00
          2   -1    0    0  501    0  0.00000000000E+00  0.00000000000E+00  0.46586100068E+02  0.46586100068E+02  0.00000000000E+00 0. -1.
         -2   -1    0    0    0  501 -0.00000000000E+00 -0.00000000000E+00 -0.26320469020E+03  0.26320469020E+03  0.00000000000E+00 0.  1.
         23    2    1    2    0    0  0.22869881938E+02 -0.22535876458E+02 -0.65655513147E+02  0.11911928413E+03  0.94063065114E+02 0.  0.
          5    1    1    2  502    0 -0.40523578976E+02 -0.10498589332E+02 -0.79991917150E+01  0.42823361604E+02  0.41800000000E+01 0. -1.
         -5    1    1    2    0  502  0.17653697038E+02  0.33034465790E+02 -0.14296388527E+03  0.14784814453E+03  0.41800000000E+01 0.  1.
        -11    1    3    3    0    0  0.39952863376E+02  0.25915069241E+02 -0.36900457621E+02  0.60245048580E+02  0.00000000000E+00 0.  1.
         11    1    3    3    0    0 -0.17082981438E+02 -0.48450945699E+02 -0.28755055526E+02  0.58874235555E+02  0.00000000000E+00 0. -1.
</event>
<event>
 7    1  0.6145388E-006  0.1247791E+03  0.7561462E-02  0.1235415E+00
          1   -1    0    0  501    0  0.00000000000E+00  0.00000000000E+00  0.22111032797E+03  0.22111032797E+03  0.00000000000E+00 0. -1.
         -1   -1    0    0    0  501 -0.00000000000E+00 -0.00000000000E+00 -0.11361240120E+03  0.11361240120E+03  0.00000000000E+00 0.  1.
         23    2    1    2    0    0 -0.77413437729E+02 -0.81624281920E+02  0.80524603038E+02  0.16433886147E+03  0.88699977189E+02 0.  0.
          5    1    1    2  502    0  0.67178216296E+02  0.16303991917E+02 -0.36802176790E+02  0.78425796226E+02  0.41800000000E+01 0. -1.
         -5    1    1    2    0  502  0.10235221433E+02  0.65320290003E+02  0.63775500515E+02  0.91958071477E+02  0.41800000000E+01 0. -1.
        -11    1    3    3    0    0 -0.66293069831E+02 -0.58578687204E+02  0.96550693328E+01  0.88991314554E+02  0.00000000000E+00 0.  1.
         11    1    3    3    0    0 -0.11120367898E+02 -0.23045594715E+02  0.70869533706E+02  0.75347546912E+02  0.00000000000E+00 0. -1.
</event>
<event>
 7    1  0.6145388E-006  0.1260946E+03  0.7561462E-02  0.1233369E+00
          1   -1    0    0  501    0  0.00000000000E+00  0.00000000000E+00  0.68968543263E+03  0.68968543263E+03  0.00000000000E+00 0. -1.
         -1   -1    0    0    0  501 -0.00000000000E+00 -0.00000000000E+00 -0.34056833904E+02  0.34056833904E+02  0.00000000000E+00 0.  1.
         23    2    1    2    0    0  0.66239820540E+02 -0.59758528691E+02  0.44639663137E+03  0.46415778097E+03  0.90629451941E+02 0.  0.
          5    1    1    2  502    0 -0.10069500001E+03  0.59874585919E+02  0.14389456123E+03  0.18560055554E+03  0.41800000000E+01 0. -1.
         -5    1    1    2    0  502  0.34455179474E+02 -0.11605722883E+00  0.65337406131E+02  0.73983930023E+02  0.41800000000E+01 0. -1.
        -11    1    3    3    0    0 -0.42357541989E+01 -0.17665129116E+02  0.11319063785E+02  0.21403728771E+02  0.00000000000E+00 0.  1.
         11    1    3    3    0    0  0.70475574739E+02 -0.42093399575E+02  0.43507756758E+03  0.44275405220E+03  0.00000000000E+00 0. -1.
</event>
<event>
 7    1  0.6145388E-006  0.7949939E+02  0.7561462E-02  0.1330478E+00
         -1   -1    0    0    0  501 -0.00000000000E+00  0.00000000000E+00  0.31236143010E+03  0.31236143010E+03  0.00000000000E+00 0.  1.
          1   -1    0    0  501    0  0.00000000000E+00 -0.00000000000E+00 -0.45700511797E+02  0.45700511797E+02  0.00000000000E+00 0. -1.
         23    2    1    2    0    0  0.25895889900E+02  0.43279127680E+02  0.98237477340E+02  0.14229389966E+03  0.89740024068E+02 0.  0.
          5    1    1    2  502    0  0.14047502203E+02  0.31520010497E+01  0.15129073319E+03  0.15203166045E+03  0.41800000000E+01 0.  1.
         -5    1    1    2    0  502 -0.39943392103E+02 -0.46431128729E+02  0.17132707768E+02  0.63736381786E+02  0.41800000000E+01 0.  1.
        -11    1    3    3    0    0  0.29718288536E+02 -0.83321967251E+01  0.82680694996E+02  0.88253608996E+02  0.00000000000E+00 0.  1.
         11    1    3    3    0    0 -0.38223986363E+01  0.51611324405E+02  0.15556782345E+02  0.54040290664E+02  0.00000000000E+00 0. -1.
</event>
<event>
 7    1  0.6145388E-006  0.1099473E+03  0.7561462E-02  0.1260667E+00
         -2   -1    0    0    0  501 -0.00000000000E+00  0.00000000000E+00  0.35616017582E+02  0.35616017582E+02  0.00000000000E+00 0.  1.
          2   -1    0    0  501    0  0.00000000000E+00 -0.00000000000E+00 -0.55456735236E+03  0.55456735236E+03  0.00000000000E+00 0. -1.
         23    2    1    2    0    0  0.72219330132E+02  0.39120610585E+02 -0.30642778272E+03  0.33026298395E+03  0.91812846212E+02 0.  0.
          5    1    1    2  502    0 -0.93106559455E+02 -0.44355034410E+02 -0.21435274113E+03  0.23790916443E+03  0.41800000000E+01 0.  1.
         -5    1    1    2    0  502  0.20887229323E+02  0.52344238246E+01  0.18291890758E+01  0.22011221553E+02  0.41800000000E+01 0.  1.
        -11    1    3    3    0    0  0.58363990518E+02  0.57939179172E+01 -0.27855086208E+03  0.28465858083E+03  0.00000000000E+00 0. -1.
         11    1    3    3    0    0  0.13855339614E+02  0.33326692668E+02 -0.27876920642E+02  0.45604403126E+02  0.00000000000E+00 0.  1.
</event>
<event>
 7    1  0.6145388E-006  0.1135048E+03  0.7561462E-02  0.1254214E+00
         -1   -1    0    0    0  501 -0.00000000000E+00  0.00000000000E+00  0.25872970906E+02  0.25872970906E+02  0.00000000000E+00 0.  1.
          1   -1    0    0  501    0  0.00000000000E+00 -0.00000000000E+00 -0.57972907874E+03  0.57972907874E+03  0.00000000000E+00 0. -1.
         23    2    1    2    0    0 -0.41886150911E+02  0.16540159226E+02 -0.32817140370E+03  0.34366226332E+03  0.91538268047E+02 0.  0.
          5    1    1    2  502    0  0.61786719888E+02 -0.56687624965E+02 -0.17539923980E+03  0.19445681089E+03  0.41800000000E+01 0. -1.
         -5    1    1    2    0  502 -0.19900568976E+02  0.40147465739E+02 -0.50285464335E+02  0.67482975440E+02  0.41800000000E+01 0. -1.
        -11    1    3    3    0    0  0.27349235010E+02  0.31233657470E+01 -0.14064147573E+03  0.14331001627E+03  0.00000000000E+00 0. -1.
         11    1    3    3    0    0 -0.69235385921E+02  0.13416793479E+02 -0.18752992797E+03  0.20035224705E+03  0.00000000000E+00 0.  1.
</event>
<event>
 7    1  0.6145388E-006  0.1408077E+03  0.7561462E-02  0.1212246E+00
         -1   -1    0    0    0  501 -0.00000000000E+00  0.00000000000E+00  0.14588013407E+03  0.14588013407E+03  0.00000000000E+00 0.  1.
          1   -1    0    0  501    0  0.00000000000E+00 -0.00000000000E+00 -0.17708828491E+03  0.17708828491E+03  0.00000000000E+00 0. -1.
         23    2    1    2    0    0  0.10335008611E+03 -0.38579899572E+02 -0.58431399106E+02  0.15390482502E+03  0.90015653155E+02 0.  0.
          5    1    1    2  502    0 -0.86501778779E+02  0.79494011822E+02  0.37602871472E+02  0.12342327167E+03  0.41800000000E+01 0. -1.
         -5    1    1    2    0  502 -0.16848307329E+02 -0.40914112249E+02 -0.10379623205E+02  0.45640322292E+02  0.41800000000E+01 0. -1.
        -11    1    3    3    0    0  0.44406873455E+02 -0.41252702139E+02  0.12245346165E+02  0.61836108759E+02  0.00000000000E+00 0.  1.
         11    1    3    3    0    0  0.58943212653E+02  0.26728025663E+01 -0.70676745272E+02  0.92068716259E+02  0.00000000000E+00 0. -1.
</event>
<event>
 7    1  0.6145388E-006  0.1369781E+03  0.7561462E-02  0.1217454E+00
         -1   -1    0    0    0  501 -0.00000000000E+00  0.00000000000E+00  0.63714873603E+02  0.63714873603E+02  0.00000000000E+00 0.  1.
          1   -1    0    0  501    0  0.00000000000E+00 -0.00000000000E+00 -0.58816696640E+03  0.58816696640E+03  0.00000000000E+00 0. -1.
         23    2    1    2    0    0 -0.70358909086E+02  0.86267650371E+02 -0.43133574252E+03  0.46028132749E+03  0.11582700061E+03 0.  0.
          5    1    1    2  502    0  0.49721508080E+01 -0.68205722978E+02  0.88250655640E+01  0.69080367058E+02  0.41800000000E+01 0. -1.
         -5    1    1    2    0  502  0.65386758278E+02 -0.18061927393E+02 -0.10194141585E+03  0.12252014546E+03  0.41800000000E+01 0. -1.
        -11    1    3    3    0    0 -0.66550390497E+02  0.17780629665E+02 -0.33507196879E+03  0.34207941992E+03  0.00000000000E+00 0.  1.
         11    1    3    3    0    0 -0.38085185885E+01  0.68487020706E+02 -0.96263773728E+02  0.11820190756E+03  0.00000000000E+00 0. -1.
</event>
<event>
 7    1  0.6145388E-006  0.5324389E+02  0.7561462E-02  0.1428591E+00
         -1   -1    0    0    0  501 -0.00000000000E+00  0.00000000000E+00  0.52242423918E+02  0.52242423918E+02  0.00000000000E+00 0.  1.
          1   -1    0    0  501    0  0.00000000000E+00 -0.00000000000E+00 -0.26507672699E+03  0.26507672699E+03  0.00000000000E+00 0. -1.
         23    2    1    2    0    0 -0.85719583979E+01 -0.42638562737E+02 -0.10924672800E+03  0.14918404697E+03  0.91812345512E+02 0.  0.
          5    1    1    2  502    0  0.11188959261E+02  0.34281224389E+02 -0.13263308043E+03  0.13751145981E+03  0.41800000000E+01 0. -1.
         -5    1    1    2    0  502 -0.26170008630E+01  0.83573383485E+01  0.29045505361E+02  0.30623644125E+02  0.41800000000E+01 0. -1.
        -11    1    3    3    0    0  0.54501189690E+01 -0.45786988911E+02 -0.12171601750E+03  0.13015737039E+03  0.00000000000E+00 0. -1.
         11    1    3    3    0    0 -0.14022077367E+02  0.31484261741E+01  0.12469289501E+02  0.19026676581E+02  0.00000000000E+00 0.  1.
</event>
<event>
 7    1  0.6145388E-006  0.1101260E+03  0.7561462E-02  0.1260337E+00
         -2   -1    0    0    0  501 -0.00000000000E+00  0.00000000000E+00  0.42876049641E+02  0.42876049641E+02  0.00000000000E+00 0.  1.
          2   -1    0    0  501    0  0.00000000000E+00 -0.00000000000E+00 -0.49310593933E+03  0.49310593933E+03  0.00000000000E+00 0. -1.
         23    2    1    2    0    0 -0.13862785102E+01 -0.71066959580E+02 -0.32654436623E+03  0.34625126009E+03  0.90588506396E+02 0.  0.
          5    1    1    2  502    0  0.22399241078E+02 -0.11196650149E+02  0.13186732935E+02  0.28608622842E+02  0.41800000000E+01 0.  1.
         -5    1    1    2    0  502 -0.21012962568E+02  0.82263609729E+02 -0.13687225640E+03  0.16112210604E+03  0.41800000000E+01 0.  1.
        -11    1    3    3    0    0 -0.33957774366E+02 -0.26252610324E+01 -0.15515567167E+03  0.15884994456E+03  0.00000000000E+00 0.  1.
         11    1    3    3    0    0  0.32571495856E+02 -0.68441698547E+02 -0.17138869455E+03  0.18740131553E+03  0.00000000000E+00 0. -1.
</event>
<event>
 7    1  0.6145388E-006  0.1147021E+03  0.7561462E-02  0.1252102E+00
         -1   -1    0    0    0  501 -0.00000000000E+00  0.00000000000E+00  0.13763920101E+02  0.13763920101E+02  0.00000000000E+00 0.  1.
          1   -1    0    0  501    0  0.00000000000E+00 -0.00000000000E+00 -0.13574691271E+04  0.13574691271E+04  0.00000000000E+00 0. -1.
         23    2    1    2    0    0 -0.17812525887E+01  0.80753394792E+02 -0.70538927393E+03  0.71577805048E+03  0.90773928754E+02 0.  0.
          5    1    1    2  502    0  0.14326595863E+02 -0.90340430142E+02 -0.24107467413E+03  0.25787810216E+03  0.41800000000E+01 0.  1.
         -5    1    1    2    0  502 -0.12545343275E+02  0.95870353501E+01 -0.39724125893E+03  0.39757689455E+03  0.41800000000E+01 0.  1.
        -11    1    3    3    0    0  0.44208234602E+02  0.46511831392E+02 -0.37439074446E+03  0.37985016520E+03  0.00000000000E+00 0.  1.
         11    1    3    3    0    0 -0.45989487191E+02  0.34241563400E+02 -0.33099852947E+03  0.33592788528E+03  0.00000000000E+00 0. -1.
</event>
<event>
 7    1  0.6145388E-006  0.9914526E+02  0.7561462E-02  0.1282104E+00
         -1   -1    0    0    0  501 -0.00000000000E+00  0.00000000000E+00  0.37787596546E+02  0.37787596546E+02  0.00000000000E+00 0.  1.
          1   -1    0    0  501    0  0.00000000000E+00 -0.00000000000E+00 -0.34778845988E+03  0.34778845988E+03  0.00000000000E+00 0. -1.
         23    2    1    2    0    0  0.21364231998E+01 -0.89696396935E+01 -0.19446678183E+03  0.21504432515E+03  0.91332983113E+02 0.  0.
          5    1    1    2  502    0 -0.58649380135E+02  0.11469063380E+02 -0.27762175321E+02  0.66026509703E+02  0.41800000000E+01 0.  1.
         -5    1    1    2    0  502  0.56512956935E+02 -0.24994236861E+01 -0.87771906178E+02  0.10450522157E+03  0.41800000000E+01 0.  1.
        -11    1    3    3    0    0 -0.34717290873E+02 -0.23633399469E+02 -0.14852886984E+03  0.15435236646E+03  0.00000000000E+00 0. -1.
         11    1    3    3    0    0  0.36853714073E+02  0.14663759775E+02 -0.45937911987E+02  0.60691958688E+02  0.00000000000E+00 0.  1.
</event>
<event>
 7    1  0.6145388E-006  0.1145081E+03  0.7561462E-02  0.1252442E+00
         -1   -1    0    0    0  501 -0.00000000000E+00  0.00000000000E+00  0.15747584836E+03  0.15747584836E+03  0.00000000000E+00 0.  1.
          1   -1    0    0  501    0  0.00000000000E+00 -0.00000000000E+00 -0.99954249628E+02  0.99954249628E+02  0.00000000000E+00 0. -1.
         23    2    1    2    0    0  0.38320975442E+02 -0.10517355295E+02  0.98540779575E+01  0.10640165296E+03  0.98209454634E+02 0.  0.
          5    1    1    2  502    0  0.51738937497E+02  0.48896636178E+01  0.96540677504E+01  0.53023578602E+02  0.41800000000E+01 0. -1.
         -5    1    1    2    0  502 -0.90059912939E+02  0.56276916777E+01  0.38013453026E+02  0.98004866426E+02  0.41800000000E+01 0.  1.
        -11    1    3    3    0    0  0.48710408751E+02  0.21234860758E+02 -0.24471437383E+02  0.58501918598E+02  0.00000000000E+00 0. -1.
         11    1    3    3    0    0 -0.10389433309E+02 -0.31752216054E+02  0.34325515340E+02  0.47899734364E+02  0.00000000000E+00 0.  1.
</event>
<event>
 7    1  0.6145388E-006  0.9159294E+02  0.7561462E-02  0.1299039E+00
         -1   -1    0    0    0  501 -0.00000000000E+00  0.00000000000E+00  0.46823184492E+02  0.46823184492E+02  0.00000000000E+00 0.  1.
          1   -1    0    0  501    0  0.00000000000E+00 -0.00000000000E+00 -0.47279289350E+03  0.47279289350E+03  0.00000000000E+00 0. -1.
         23    2    1    2    0    0  0.51861768373E+02 -0.72911533105E+01 -0.34913772359E+03  0.36375174318E+03  0.87609227219E+02 0.  0.
          5    1    1    2  502    0 -0.46908510219E+02 -0.21799424626E+02  0.19185284988E+02  0.55327848368E+02  0.41800000000E+01 0. -1.
         -5    1    1    2    0  502 -0.49532581546E+01  0.29090577936E+02 -0.96017270400E+02  0.10053648644E+03  0.41800000000E+01 0. -1.
        -11    1    3    3    0    0  0.14162350023E+02 -0.45594409597E+02 -0.18373427704E+03  0.18983600002E+03  0.00000000000E+00 0.  1.
         11    1    3    3    0    0  0.37699418350E+02  0.38303256287E+02 -0.16540344656E+03  0.17391574316E+03  0.00000000000E+00 0. -1.
</event>
<event>
 7    1  0.6145388E-006  0.9899777E+02  0.7561462E-02  0.1282418E+00
         -1   -1    0    0    0  501 -0.00000000000E+00  0.00000000000E+00  0.29931092060E+03  0.29931092060E+03  0.00000000000E+00 0.  1.
          1   -1    0    0  501    0  0.00000000000E+00 -0.00000000000E+00 -0.53073507519E+02  0.53073507519E+02  0.00000000000E+00 0. -1.
         23    2    1    2    0    0 -0.20483012921E+02  0.33020802931E+02  0.38181106236E+02  0.10652509582E+03  0.91541640366E+02 0.  0.
          5    1    1    2  502    0 -0.34711666067E+02  0.20985131201E+02  0.26801427490E+02  0.48796151571E+02  0.41800000000E+01 0.  1.
         -5    1    1    2    0  502  0.55194678988E+02 -0.54005934132E+02  0.18125487935E+03  0.19706318073E+03  0.41800000000E+01 0.  1.
        -11    1    3    3    0    0  0.12905219057E+02  0.43114110892E+02  0.52209780243E+02  0.68929183877E+02  0.00000000000E+00 0.  1.
         11    1    3    3    0    0 -0.33388231978E+02 -0.10093307961E+02 -0.14028674007E+02  0.37595911940E+02  0.00000000000E+00 0. -1.
</event>
<event>
 7    1  0.6145388E-006  0.9229642E+02  0.7561462E-02  0.1297384E+00
          1   -1    0    0  501    0  0.00000000000E+00  0.00000000000E+00  0.19440697866E+03  0.19440697866E+03  0.00000000000E+00 0. -1.
         -1   -1    0    0    0  501 -0.00000000000E+00 -0.00000000000E+00 -0.97364288793E+02  0.97364288793E+02  0.00000000000E+00 0.  1.
         23    2    1    2    0    0  0.45738149332E+02 -0.47347101274E+02  0.91203816036E+02  0.15029496215E+03  0.99683064188E+02 0.  0.
          5    1    1    2  502    0  0.13374881798E+02 -0.13345541428E+02 -0.40451533057E+02  0.44841831650E+02  0.41800000000E+01 0.  1.
         -5    1    1    2    0  502 -0.59113031129E+02  0.60692642702E+02  0.46290406887E+02  0.96634473648E+02  0.41800000000E+01 0.  1.
        -11    1    3    3    0    0 -0.62206438872E+01 -0.21502887885E+02 -0.16597333019E+02  0.27866504286E+02  0.00000000000E+00 0.  1.
         11    1    3    3    0    0  0.51958793219E+02 -0.25844213389E+02  0.10780114905E+03  0.12242845787E+03  0.00000000000E+00 0. -1.
</event>
<event>
 7    1  0.6145388E-006  0.1283079E+03  0.7561462E-02  0.1229988E+00
         -1   -1    0    0    0  501 -0.00000000000E+00  0.00000000000E+00  0.77608608382E+03  0.77608608382E+03  0.00000000000E+00 0.  1.
          1   -1    0    0  501    0  0.00000000000E+00 -0.00000000000E+00 -0.29117435080E+02  0.29117435080E+02  0.00000000000E+00 0. -1.
         23    2    1    2    0    0  0.66756257706E+02 -0.19731706696E+02  0.13933715373E+03  0.18093609940E+03  0.92072207871E+02 0.  0.
          5    1    1    2  502    0 -0.37179709115E+02  0.72997625946E+02  0.35718747845E+03  0.36648513111E+03  0.41800000000E+01 0.  1.
         -5    1    1    2    0  502 -0.29576548590E+02 -0.53265919250E+02  0.25044401655E+03  0.25778228839E+03  0.41800000000E+01 0.  1.
        -11    1    3    3    0    0  0.39570631994E+01 -0.45475867196E+02  0.72545002960E+02  0.85711669572E+02  0.00000000000E+00 0.  1.
         11    1    3    3    0    0  0.62799194506E+02  0.25744160499E+02  0.66792150774E+02  0.95224429825E+02  0.00000000000E+00 0. -1.
</event>
<event>
 7    1  0.6145388E-006  0.1142332E+03  0.7561462E-02  0.1252926E+00
         -1   -1    0    0    0  501 -0.00000000000E+00  0.00000000000E+00  0.36778820373E+02  0.36778820373E+02  0.00000000000E+00 0.  1.
          1   -1    0    0  501    0  0.00000000000E+00 -0.00000000000E+00 -0.48091932379E+03  0.48091932379E+03  0.00000000000E+00 0. -1.
         23    2    1    2    0    0 -0.12344482906E+02  0.65149202411E+02 -0.28209843984E+03  0.30418844688E+03  0.92489332457E+02 0.  0.
          5    1    1    2  502    0 -0.18716472464E+02 -0.89596097075E+02 -0.77178585923E+02  0.11979888763E+03  0.41800000000E+01 0. -1.
         -5    1    1    2    0  502  0.31060955370E+02  0.24446894664E+02 -0.84863477646E+02  0.93710809650E+02  0.41800000000E+01 0.  1.
        -11    1    3    3    0    0 -0.28441848397E+02  0.73605523825E+02 -0.27236155792E+03  0.28356221559E+03  0.00000000000E+00 0.  1.
         11    1    3    3    0    0  0.16097365491E+02 -0.84563214141E+01 -0.97368819286E+01  0.20626231292E+02  0.00000000000E+00 0. -1.
</event>
<event>
 7    1  0.6145388E-006  0.8977649E+02  0.7561462E-02  0.1303394E+00
         -2   -1    0    0    0  501 -0.00000000000E+00  0.00000000000E+00  0.68208686243E+02  0.68208686243E+02  0.00000000000E+00 0. -1.
          2   -1    0    0  501    0  0.00000000000E+00 -0.00000000000E+00 -0.23724646219E+03  0.23724646219E+03  0.00000000000E+00 0.  1.
         23    2    1    2    0    0  0.11930678669E+02  0.62001461012E+02 -0.97996896295E+02  0.14834955902E+03  0.91747903059E+02 0.  0.
          5    1    1    2  502    0 -0.13473309966E+02 -0.13621157084E+02 -0.99085568569E+02  0.10100736755E+03  0.41800000000E+01 0. -1.
         -5    1    1    2    0  502  0.15426312966E+01 -0.48380303928E+02  0.28044688917E+02  0.56098221861E+02  0.41800000000E+01 0. -1.
        -11    1    3    3    0    0 -0.10065639231E+02  0.81406130527E+02 -0.71074774865E+02  0.10853524221E+03  0.00000000000E+00 0. -1.
         11    1    3    3    0    0  0.21996317900E+02 -0.19404669514E+02 -0.26922121430E+02  0.39814316802E+02  0.00000000000E+00 0.  1.
</event>
<event>
 7    1  0.6145388E-006  0.6056995E+02  0.7561462E-02  0.1395455E+00
          1   -1    0    0  501    0  0.00000000000E+00  0.00000000000E+00  0.80249117687E+02  0.80249117687E+02  0.00000000000E+00 0. -1.
         -1   -1    0    0    0  501 -0.00000000000E+00 -0.00000000000E+00 -0.24034531174E+03  0.24034531174E+03  0.00000000000E+00 0.  1.
         23    2    1    2    0    0 -0.11280504884E+02  0.49867224274E+02  0.10330339045E+02  0.10309172572E+03  0.88922427769E+02 0.  0.
          5    1    1    2  502    0 -0.10190587629E+02 -0.45556718427E+02 -0.18501481591E+03  0.19085915533E+03  0.41800000000E+01 0.  1.
         -5    1    1    2    0  502  0.21471092514E+02 -0.43105058466E+01  0.14588282809E+02  0.26643548369E+02  0.41800000000E+01 0.  1.
        -11    1    3    3    0    0 -0.12095303140E+00  0.21384347758E+02  0.49189145628E+02  0.53636526792E+02  0.00000000000E+00 0. -1.
         11    1    3    3    0    0 -0.11159551853E+02  0.28482876515E+02 -0.38858806583E+02  0.49455198930E+02  0.00000000000E+00 0.  1.
</event>
<event>
 7    1  0.6145388E-006  0.3125464E+03  0.7561462E-02  0.1079132E+00
          1   -1    0    0  501    0  0.00000000000E+00  0.00000000000E+00  0.66834915550E+03  0.66834915550E+03  0.00000000000E+00 0. -1.
         -1   -1    0    0    0  501 -0.00000000000E+00 -0.00000000000E+00 -0.19067548267E+03  0.19067548267E+03  0.00000000000E+00 0.  1.
         23    2    1    2    0    0 -0.26093845597E+03  0.16283363694E+03  0.40908846145E+03  0.51997495108E+03  0.91743715490E+02 0.  0.
          5    1    1    2  502    0  0.20503845245E+03 -0.11901554459E+03  0.10476773318E+03  0.25922811799E+03  0.41800000000E+01 0.  1.
         -5    1    1    2    0  502  0.55900003518E+02 -0.43818092343E+02 -0.36182521810E+02  0.79821569105E+02  0.41800000000E+01 0.  1.
        -11    1    3    3    0    0 -0.25592036888E+03  0.13655021883E+03  0.34638398018E+03  0.45179979990E+03  0.00000000000E+00 0.  1.
         11    1    3    3    0    0 -0.50180870902E+01  0.26283418110E+02  0.62704481274E+02  0.68175151173E+02  0.00000000000E+00 0. -1.
</event>
<event>
 7    1  0.6145388E-006  0.9768375E+02  0.7561462E-02  0.1285243E+00
          1   -1    0    0  501    0  0.00000000000E+00  0.00000000000E+00  0.55447023464E+02  0.55447023464E+02  0.00000000000E+00 0. -1.
         -1   -1    0    0    0  501 -0.00000000000E+00 -0.00000000000E+00 -0.21030212599E+03  0.21030212599E+03  0.00000000000E+00 0.  1.
         23    2    1    2    0    0 -0.22597177415E+01 -0.11538406129E+02 -0.57197940266E+02  0.10661659807E+03  0.89203438689E+02 0.  0.
          5    1    1    2  502    0 -0.53251765409E+02  0.52769891550E+01 -0.86822789613E+02  0.10207480752E+03  0.41800000000E+01 0.  1.
         -5    1    1    2    0  502  0.55511483151E+02  0.62614169737E+01 -0.10834372650E+02  0.57057743864E+02  0.41800000000E+01 0.  1.
        -11    1    3    3    0    0 -0.35103079266E+02 -0.31562410603E+02 -0.15033238091E+02  0.49542004244E+02  0.00000000000E+00 0. -1.
         11    1    3    3    0    0  0.32843361524E+02  0.20024004474E+02 -0.42164702175E+02  0.57074593831E+02  0.00000000000E+00 0.  1.
</event>
<event>
 7    1  0.6145388E-006  0.1991552E+03  0.7561462E-02  0.1150454E+00
          2   -1    0    0  501    0  0.00000000000E+00  0.00000000000E+00  0.17856993264E+03  0.17856993264E+03  0.00000000000E+00 0. -1.
         -2   -1    0    0    0  501 -0.00000000000E+00 -0.00000000000E+00 -0.25159450478E+03  0.25159450478E+03  0.00000000000E+00 0.  1.
         23    2    1    2    0    0 -0.15656312660E+03  0.74700308822E+02  0.21221550434E+02  0.19645259950E+03  0.89728038522E+02 0.  0.
          5    1    1    2  502    0  0.15264643928E+03 -0.27124818007E+02 -0.37734199074E+02  0.15961839918E+03  0.41800000000E+01 0. -1.
         -5    1    1    2    0  502  0.39166873161E+01 -0.47575490815E+02 -0.56511923506E+02  0.74093438739E+02  0.41800000000E+01 0. -1.
        -11    1    3    3    0    0  0.10224146617E+02  0.14988041758E+02  0.15315553988E+01  0.18207697046E+02  0.00000000000E+00 0. -1.
         11    1    3    3    0    0 -0.16678727322E+03  0.59712267064E+02  0.19689995035E+02  0.17824490245E+03  0.00000000000E+00 0.  1.
</event>
<event>
 7    1  0.6145388E-006  0.1762960E+03  0.7561462E-02  0.1171437E+00
          1   -1    0    0  501    0  0.00000000000E+00  0.00000000000E+00  0.99164288644E+03  0.99164288644E+03  0.00000000000E+00 0. -1.
         -1   -1    0    0    0  501 -0.00000000000E+00 -0.00000000000E+00 -0.40157376474E+02  0.40157376474E+02  0.00000000000E+00 0.  1.
         23    2    1    2    0    0  0.35949144554E+02 -0.16059916848E+03  0.52788279585E+03  0.56045039491E+03  0.91432844747E+02 0.  0.
          5    1    1    2  502    0  0.73239346855E+01  0.44939304226E+02  0.27179065708E+03  0.27560989598E+03  0.41800000000E+01 0.  1.
         -5    1    1    2    0  502 -0.43273079240E+02  0.11565986425E+03  0.15181205704E+03  0.19573997202E+03  0.41800000000E+01 0.  1.
        -11    1    3    3    0    0  0.54852469076E+02 -0.61440955213E+02  0.30216075224E+03  0.31318509629E+03  0.00000000000E+00 0. -1.
         11    1    3    3    0    0 -0.18903324522E+02 -0.99158213263E+02  0.22572204360E+03  0.24726529862E+03  0.00000000000E+00 0.  1.
</event>
<event>
 7    1  0.6145388E-006  0.1392162E+03  0.7561462E-02  0.1214388E+00
         -1   -1    0    0    0  501 -0.00000000000E+00  0.00000000000E+00  0.34635782561E+03  0.34635782561E+03  0.00000000000E+00 0.  1.
          1   -1    0    0  501    0  0.00000000000E+00 -0.00000000000E+00 -0.65312952711E+02  0.65312952711E+02  0.00000000000E+00 0. -1.
         23    2    1    2    0    0 -0.98959905305E+02 -0.26766638777E+02  0.10244321642E+03  0.17072235001E+03  0.90232989494E+02 0.  0.
          5    1    1    2  502    0  0.63774608823E+02  0.64899123747E+02  0.53948010792E+02  0.10586291731E+03  0.41800000000E+01 0.  1.
         -5    1    1    2    0  502  0.35185296482E+02 -0.38132484969E+02  0.12465364569E+03  0.13508551100E+03  0.41800000000E+01 0.  1.
        -11    1    3    3    0    0 -0.77571863629E+02  0.23179118207E+02  0.49692564197E+02  0.94994823460E+02  0.00000000000E+00 0. -1.
         11    1    3    3    0    0 -0.21388041676E+02 -0.49945756984E+02  0.52750652221E+02  0.75727526548E+02  0.00000000000E+00 0.  1.
</event>
<event>
 7    1  0.6145388E-006  0.8676849E+02  0.7561462E-02  0.1310871E+00
         -1   -1    0    0    0  501 -0.00000000000E+00  0.00000000000E+00  0.37368423084E+03  0.37368423084E+03  0.00000000000E+00 0.  1.
          1   -1    0    0  501    0  0.00000000000E+00 -0.00000000000E+00 -0.39641065737E+02  0.39641065737E+02  0.00000000000E+00 0. -1.
         23    2    1    2    0    0  0.37445980595E+02 -0.18622114951E+02  0.84646814592E+02  0.13119977465E+03  0.91100565426E+02 0.  0.
          5    1    1    2  502    0 -0.28799657521E+02  0.42467487664E+02  0.25113749963E+03  0.25635994988E+03  0.41800000000E+01 0. -1.
         -5    1    1    2    0  502 -0.86463230739E+01 -0.23845372713E+02 -0.17411491173E+01  0.25765572044E+02  0.41800000000E+01 0. -1.
        -11    1    3    3    0    0  0.20831453548E+02  0.34713882951E+02  0.53971445779E+02  0.67467918939E+02  0.00000000000E+00 0.  1.
         11    1    3    3    0    0  0.16614527047E+02 -0.53335997902E+02  0.30675368813E+02  0.63731855716E+02  0.00000000000E+00 0. -1.
</event>
<event>
 7    1  0.6145388E-006  0.1309372E+03  0.7561462E-02  0.1226072E+00
          3   -1    0    0  501    0  0.00000000000E+00  0.00000000000E+00  0.30536380145E+03  0.30536380145E+03  0.00000000000E+00 0. -1.
         -3   -1    0    0    0  501 -0.00000000000E+00 -0.00000000000E+00 -0.96725184942E+02  0.96725184942E+02  0.00000000000E+00 0.  1.
         23    2    1    2    0    0 -0.58577249289E+02  0.89301187020E+02  0.19053619348E+03  0.23661173157E+03  0.90967435654E+02 0.  0.
          5    1    1    2  502    0  0.64142668951E+02 -0.48102819342E+02  0.64539797795E+02  0.10300981074E+03  0.41800000000E+01 0.  1.
         -5    1    1    2    0  502 -0.55654196624E+01 -0.41198367678E+02 -0.46437374771E+02  0.62467444089E+02  0.41800000000E+01 0.  1.
        -11    1    3    3    0    0  0.23669426322E+02  0.10466819760E+02  0.43309003913E+02  0.50452610222E+02  0.00000000000E+00 0. -1.
         11    1    3    3    0    0 -0.82246675610E+02  0.78834367260E+02  0.14722718957E+03  0.18615912134E+03  0.00000000000E+00 0.  1.
</event>
<event>
 7    1  0.6145388E-006  0.1055715E+03  0.7561462E-02  0.1268998E+00
         -2   -1    0    0    0  501 -0.00000000000E+00  0.00000000000E+00  0.32660546436E+02  0.32660546436E+02  0.00000000000E+00 0.  1.
          2   -1    0    0  501    0  0.00000000000E+00 -0.00000000000E+00 -0.54287677494E+03  0.54287677494E+03  0.00000000000E+00 0. -1.
         23    2    1    2    0    0 -0.65594339698E+02 -0.29785964877E+02 -0.28558830767E+03  0.30852735079E+03  0.91861981294E+02 0.  0.
          5    1    1    2  502    0  0.37540106276E+02 -0.20925856240E+02 -0.19877811957E+03  0.20341426759E+03  0.41800000000E+01 0.  1.
         -5    1    1    2    0  502  0.28054233423E+02  0.50711821118E+02 -0.25849801270E+02  0.63595702997E+02  0.41800000000E+01 0.  1.
        -11    1    3    3    0    0 -0.54834202739E+02  0.20418158776E+02 -0.20313781154E+03  0.21139692873E+03  0.00000000000E+00 0.  1.
         11    1    3    3    0    0 -0.10760136959E+02 -0.50204123654E+02 -0.82450496125E+02  0.97130422065E+02  0.00000000000E+00 0. -1.
</event>
<event>
 7    1  0.6145388E-006  0.1202860E+03  0.7561462E-02  0.1242626E+00
         -3   -1    0    0    0  501 -0.00000000000E+00  0.00000000000E+00  0.17253010550E+03  0.17253010550E+03  0.00000000000E+00 0.  1.
          3   -1    0    0  501    0  0.00000000000E+00 -0.00000000000E+00 -0.95257568078E+02  0.95257568078E+02  0.00000000000E+00 0. -1.
         23    2    1    2    0    0 -0.15427765915E+02  0.37405495060E+01 -0.20437453891E+01  0.11882544244E+03  0.11774252080E+03 0.  0.
          5    1    1    2  502    0 -0.45790820652E+02  0.28330305820E+02  0.19358935735E+02  0.57372870563E+02  0.41800000000E+01 0.  1.
         -5    1    1    2    0  502  0.61218586567E+02 -0.32070855326E+02  0.59957347079E+02  0.91589360579E+02  0.41800000000E+01 0.  1.
        -11    1    3    3    0    0  0.76738722020E+00 -0.55707408560E+02  0.83675057153E+01  0.56337548789E+02  0.00000000000E+00 0.  1.
         11    1    3    3    0    0 -0.16195153135E+02  0.59447958066E+02 -0.10411251104E+02  0.62487893650E+02  0.00000000000E+00 0. -1.
</event>
<event>
 7    1  0.6145388E-006  0.1193533E+03  0.7561462E-02  0.1244168E+00
         -2   -1    0    0    0  501 -0.00000000000E+00  0.00000000000E+00  0.58432092232E+02  0.58432092232E+02  0.00000000000E+00 0.  1.
          2   -1    0    0  501    0  0.00000000000E+00 -0.00000000000E+00 -0.48762590637E+03  0.48762590637E+03  0.00000000000E+00 0. -1.
         23    2    1    2    0    0 -0.65752679944E+02 -0.13893024232E+02 -0.38187636638E+03  0.39638129274E+03  0.82293006924E+02 0.  0.
          5    1    1    2  502    0  0.10223778827E+03 -0.53555670380E+00 -0.37846313987E+02  0.10909934946E+03  0.41800000000E+01 0.  1.
         -5    1    1    2    0  502 -0.36485108325E+02  0.14428580935E+02 -0.94711337648E+01  0.40577356396E+02  0.41800000000E+01 0.  1.
        -11    1    3    3    0    0  0.11031258083E+02  0.11611963408E+02 -0.20271401012E+02  0.25835170758E+02  0.00000000000E+00 0.  1.
         11    1    3    3    0    0 -0.76783938028E+02 -0.25504987640E+02 -0.36160496537E+03  0.37054612198E+03  0.00000000000E+00 0. -1.
</event>
<event>
 7    1  0.6145388E-006  0.1115841E+03  0.7561462E-02  0.1257664E+00
          2   -1    0    0  501    0  0.00000000000E+00  0.00000000000E+00  0.47962498284E+03  0.47962498284E+03  0.00000000000E+00 0. -1.
         -2   -1    0    0    0  501 -0.00000000000E+00 -0.00000000000E+00 -0.45976646037E+02  0.45976646037E+02  0.00000000000E+00 0.  1.
         23    2    1    2    0    0 -0.72359830576E+02  0.58857944131E+02  0.26960749874E+03  0.29920198232E+03  0.90185476556E+02 0.  0.
          5    1    1    2  502    0  0.16472829885E+02 -0.32789449501E+02  0.16027566655E+03  0.16447572408E+03  0.41800000000E+01 0. -1.
         -5    1    1    2    0  502  0.55887000690E+02 -0.26068494629E+02  0.37651715149E+01  0.61923922477E+02  0.41800000000E+01 0. -1.
        -11    1    3    3    0    0 -0.90992430502E+02  0.48714341786E+02  0.24935844211E+03  0.26987467861E+03  0.00000000000E+00 0. -1.
         11    1    3    3    0    0  0.18632599927E+02  0.10143602345E+02  0.20249056625E+02  0.29327303708E+02  0.00000000000E+00 0.  1.
</event>
<event>
 7    1  0.6145388E-006  0.1370882E+03  0.7561462E-02  0.1217302E+00
         -2   -1    0    0    0  501 -0.00000000000E+00  0.00000000000E+00  0.98484761758E+02  0.98484761758E+02  0.00000000000E+00 0.  1.
          2   -1    0    0  501    0  0.00000000000E+00 -0.00000000000E+00 -0.21060270217E+03  0.21060270217E+03  0.00000000000E+00 0. -1.
         23    2    1    2    0    0  0.87246702169E+02 -0.74684079470E+01 -0.93047291198E+02  0.15520676427E+03  0.88111163421E+02 0.  0.
          5    1    1    2  502    0  0.27054957833E+01 -0.45842037935E+02 -0.17207455551E+02  0.49217690681E+02  0.41800000000E+01 0.  1.
         -5    1    1    2    0  502 -0.89952197952E+02  0.53310445882E+02 -0.18631936592E+01  0.10466300897E+03  0.41800000000E+01 0.  1.
        -11    1    3    3    0    0  0.29887589531E+02  0.39324920850E+02 -0.46001474107E+02  0.67497059401E+02  0.00000000000E+00 0.  1.
         11    1    3    3    0    0  0.57359112638E+02 -0.46793328797E+02 -0.47045817091E+02  0.87709704869E+02  0.00000000000E+00 0. -1.
</event>
<event>
 7    1  0.6145388E-006  0.1006166E+03  0.7561462E-02  0.1279005E+00
         -2   -1    0    0    0  501 -0.00000000000E+00  0.00000000000E+00  0.84028922014E+02  0.84028922014E+02  0.00000000000E+00 0.  1.
          2   -1    0    0  501    0  0.00000000000E+00 -0.00000000000E+00 -0.14438502014E+03  0.14438502014E+03  0.00000000000E+00 0. -1.
         23    2    1    2    0    0 -0.29486670621E+02  0.70991013154E+01 -0.32576249854E+02  0.96737178413E+02  0.85889514197E+02 0.  0.
          5    1    1    2  502    0 -0.43404997789E+02 -0.25883848479E+02 -0.24238301162E+02  0.56204404528E+02  0.41800000000E+01 0.  1.
         -5    1    1    2    0  502  0.72891668410E+02  0.18784747164E+02 -0.35415471138E+01  0.75472359215E+02  0.41800000000E+01 0.  1.
        -11    1    3    3    0    0 -0.51296137544E+02 -0.23864031340E+01  0.57071927702E+01  0.51667791671E+02  0.00000000000E+00 0.  1.
         11    1    3    3    0    0  0.21809466923E+02  0.94855044494E+01 -0.38283442624E+02  0.45069386742E+02  0.00000000000E+00 0. -1.
</event>
<event>
 7    1  0.6145388E-006  0.7073359E+02  0.7561462E-02  0.1357616E+00
         -1   -1    0    0    0  501 -0.00000000000E+00  0.00000000000E+00  0.19836782384E+03  0.19836782384E+03  0.00000000000E+00 0.  1.
          1   -1    0    0  501    0  0.00000000000E+00 -0.00000000000E+00 -0.67654268565E+02  0.67654268565E+02  0.00000000000E+00 0. -1.
         23    2    1    2    0    0 -0.30718679833E+02  0.13895624966E+02  0.35249912229E+02  0.10509524493E+03  0.93089894780E+02 0.  0.
          5    1    1    2  502    0 -0.36359856257E+02 -0.12680723866E+02  0.84318334249E+02  0.92789513391E+02  0.41800000000E+01 0.  1.
         -5    1    1    2    0  502  0.67078536090E+02 -0.12149011007E+01  0.11145308799E+02  0.68137334090E+02  0.41800000000E+01 0.  1.
        -11    1    3    3    0    0 -0.19649644649E+02  0.28127925939E+01  0.66899179210E+02  0.69781949786E+02  0.00000000000E+00 0.  1.
         11    1    3    3    0    0 -0.11069035184E+02  0.11082832372E+02 -0.31649266980E+02  0.35313295141E+02  0.00000000000E+00 0. -1.
</event>
<event>
 7    1  0.6145388E-006  0.9189991E+02  0.7561462E-02  0.1298315E+00
         -2   -1    0    0    0  501 -0.00000000000E+00  0.00000000000E+00  0.29475117298E+02  0.29475117298E+02  0.00000000000E+00 0.  1.
          2   -1    0    0  501    0  0.00000000000E+00 -0.00000000000E+00 -0.38700570113E+03  0.38700570113E+03  0.00000000000E+00 0. -1.
         23    2    1    2    0    0 -0.57612657336E+01  0.61782196300E+01 -0.17761063892E+03  0.20016438851E+03  0.91917793648E+02 0.  0.
          5    1    1    2  502    0  0.48770204131E+02 -0.10682711049E+02 -0.16156079986E+03  0.16915087223E+03  0.41800000000E+01 0. -1.
         -5    1    1    2    0  502 -0.43008938398E+02  0.45044914190E+01 -0.18359145060E+02  0.47165557691E+02  0.41800000000E+01 0.  1.
        -11    1    3    3    0    0 -0.15978464735E+02 -0.39939416147E+02 -0.10580146745E+03  0.11421216578E+03  0.00000000000E+00 0.  1.
         11    1    3    3    0    0  0.10217199001E+02  0.46117635777E+02 -0.71809171470E+02  0.85952222730E+02  0.00000000000E+00 0. -1.
</event>
<event>
 7    1  0.6145388E-006  0.9900773E+02  0.7561462E-02  0.1282396E+00
          4   -1    0    0  501    0  0.00000000000E+00  0.00000000000E+00  0.42595103149E+02  0.42595103149E+02  0.00000000000E+00 0. -1.
         -4   -1    0    0    0  501 -0.00000000000E+00 -0.00000000000E+00 -0.31852676629E+03  0.31852676629E+03  0.00000000000E+00 0.  1.
         23    2    1    2    0    0  0.35970488777E+02  0.27367374992E+02 -0.13892319905E+03  0.17016483102E+03  0.87255745982E+02 0.  0.
          5    1    1    2  502    0 -0.53097464814E+02  0.13767020536E+02 -0.13542928034E+03  0.14617603770E+03  0.41800000000E+01 0. -1.
         -5    1    1    2    0  502  0.17126976038E+02 -0.41134395529E+02 -0.15791837529E+01  0.44781000715E+02  0.41800000000E+01 0. -1.
        -11    1    3    3    0    0  0.63990074974E+02  0.28846454107E+02 -0.10066648619E+03  0.12272159162E+03  0.00000000000E+00 0. -1.
         11    1    3    3    0    0 -0.28019586197E+02 -0.14790791149E+01 -0.38256712862E+02  0.47443239400E+02  0.00000000000E+00 0.  1.
</event>
<event>
 7    1  0.6145388E-006  0.8785045E+02  0.7561462E-02  0.1308142E+00
          1   -1    0    0  501    0  0.00000000000E+00  0.00000000000E+00  0.27519945952E+02  0.27519945952E+02  0.00000000000E+00 0. -1.
         -1   -1    0    0    0  501 -0.00000000000E+00 -0.00000000000E+00 -0.65398707319E+03  0.65398707319E+03  0.00000000000E+00 0.  1.
         23    2    1    2    0    0  0.49528126668E+02 -0.61316582169E+02 -0.27018612909E+03  0.29576349159E+03  0.90899615124E+02 0.  0.
          5    1    1    2  502    0 -0.65833538311E+01  0.32380081799E+02 -0.32150649851E+03  0.32322702738E+03  0.41800000000E+01 0. -1.
         -5    1    1    2    0  502 -0.42944772836E+02  0.28936500370E+02 -0.34774499640E+02  0.62516500165E+02  0.41800000000E+01 0. -1.
        -11    1    3    3    0    0  0.34783465871E+02 -0.87775999809E+01 -0.22972720206E+02  0.42599080191E+02  0.00000000000E+00 0. -1.
         11    1    3    3    0    0  0.14744660796E+02 -0.52538982188E+02 -0.24721340888E+03  0.25316441140E+03  0.00000000000E+00 0.  1.
</event>
<event>
 7    1  0.6145388E-006  0.1222397E+03  0.7561462E-02  0.1239447E+00
          3   -1    0    0  501    0  0.00000000000E+00  0.00000000000E+00  0.12279817398E+03  0.12279817398E+03  0.00000000000E+00 0. -1.
         -3   -1    0    0    0  501 -0.00000000000E+00 -0.00000000000E+00 -0.14048651698E+03  0.14048651698E+03  0.00000000000E+00 0.  1.
         23    2    1    2    0    0 -0.66332282967E+02  0.62306441252E+01  0.29520000766E+02  0.11740225989E+03  0.92049266657E+02 0.  0.
          5    1    1    2  502    0  0.49807272796E+02  0.54003209559E+02 -0.13594012980E+02  0.74829009448E+02  0.41800000000E+01 0. -1.
         -5    1    1    2    0  502  0.16525010171E+02 -0.60233853685E+02 -0.33614330779E+02  0.71053421625E+02  0.41800000000E+01 0.  1.
        -11    1    3    3    0    0  0.20777577215E+02 -0.15766106871E+01 -0.78861598558E+01  0.22279697786E+02  0.00000000000E+00 0.  1.
         11    1    3    3    0    0 -0.87109860182E+02  0.78072548123E+01  0.37406160622E+02  0.95122562103E+02  0.00000000000E+00 0. -1.
</event>
<event>
 7    1  0.6145388E-006  0.1149134E+03  0.7561462E-02  0.1251732E+00
          2   -1    0    0  501    0  0.00000000000E+00  0.00000000000E+00  0.39947702509E+03  0.39947702509E+03  0.00000000000E+00 0.  1.
         -2   -1    0    0    0  501 -0.00000000000E+00 -0.00000000000E+00 -0.67427932554E+02  0.67427932554E+02  0.00000000000E+00 0. -1.
         23    2    1    2    0    0  0.36696065351E+02  0.23812133196E+02  0.31799745192E+03  0.33364590698E+03  0.91014245702E+02 0.  0.
          5    1    1    2  502    0 -0.15855732696E+02  0.50909070541E+02  0.15068520014E+02  0.55566810401E+02  0.41800000000E+01 0. -1.
         -5    1    1    2    0  502 -0.20840332654E+02 -0.74721203737E+02 -0.10168793948E+01  0.77692240261E+02  0.41800000000E+01 0. -1.
        -11    1    3    3    0    0  0.45523181988E+02 -0.23011080196E+02  0.19973800265E+03  0.20614834370E+03  0.00000000000E+00 0. -1.
         11    1    3    3    0    0 -0.88271166374E+01  0.46823213392E+02  0.11825944927E+03  0.12749756328E+03  0.00000000000E+00 0.  1.
</event>
<event>
 7    1  0.6145388E-006  0.1109094E+03  0.7561462E-02  0.1258895E+00
          1   -1    0    0  501    0  0.00000000000E+00  0.00000000000E+00  0.45617872936E+02  0.45617872936E+02  0.00000000000E+00 0.  1.
         -1   -1    0    0    0  501 -0.00000000000E+00 -0.00000000000E+00 -0.44083276217E+03  0.44083276217E+03  0.00000000000E+00 0. -1.
         23    2    1    2    0    0 -0.51046857918E+02 -0.11811854172E+02 -0.72182877329E+02  0.13610458579E+03  0.10280461512E+03 0.  0.
          5    1    1    2  502    0  0.80334682704E+02  0.41019342025E+02 -0.17977131746E+03  0.20117516409E+03  0.41800000000E+01 0. -1.
         -5    1    1    2    0  502 -0.29287824786E+02 -0.29207487853E+02 -0.14326069444E+03  0.14917088523E+03  0.41800000000E+01 0. -1.
        -11    1    3    3    0    0 -0.11195284235E+02  0.30099589181E+02  0.11732626935E+02  0.34190264590E+02  0.00000000000E+00 0.  1.
         11    1    3    3    0    0 -0.39851573683E+02 -0.41911443353E+02 -0.83915504264E+02  0.10191432120E+03  0.00000000000E+00 0. -1.
</event>
<event>
 7    1  0.6145388E-006  0.1996000E+03  0.7561462E-02  0.1150077E+00
         -1   -1    0    0    0  501 -0.00000000000E+00  0.00000000000E+00  0.12757146552E+03  0.12757146552E+03  0.00000000000E+00 0.  1.
          1   -1    0    0  501    0  0.00000000000E+00 -0.00000000000E+00 -0.49401753551E+03  0.49401753551E+03  0.00000000000E+00 0. -1.
         23    2    1    2    0    0  0.35797737514E+02  0.19075105212E+03 -0.32128023676E+03  0.38632852201E+03  0.91440114243E+02 0.  0.
          5    1    1    2  502    0 -0.27475881135E+02 -0.14080432299E+03  0.27957693904E+02  0.14621862557E+03  0.41800000000E+01 0.  1.
         -5    1    1    2    0  502 -0.83218563790E+01 -0.49946729131E+02 -0.73123527139E+02  0.89041853449E+02  0.41800000000E+01 0.  1.
        -11    1    3    3    0    0  0.48231129897E+02  0.79923335182E+02 -0.90508795067E+02  0.13002239570E+03  0.00000000000E+00 0.  1.
         11    1    3    3    0    0 -0.12433392382E+02  0.11082771694E+03 -0.23077144169E+03  0.25630612631E+03  0.00000000000E+00 0. -1.
</event>
<event>
 7    1  0.6145388E-006  0.1574932E+03  0.7561462E-02  0.1191556E+00
         -3   -1    0    0    0  501 -0.00000000000E+00  0.00000000000E+00  0.39379306576E+03  0.39379306576E+03  0.00000000000E+00 0.  1.
          3   -1    0    0  501    0  0.00000000000E+00 -0.00000000000E+00 -0.64538516973E+02  0.64538516973E+02  0.00000000000E+00 0. -1.
         23    2    1    2    0    0 -0.10746915077E+03 -0.41664690994E+02  0.12173997882E+03  0.19001247328E+03  0.89434628170E+02 0.  0.
          5    1    1    2  502    0  0.12926666083E+03  0.57824252297E+02  0.18363481792E+03  0.23193260338E+03  0.41800000000E+01 0.  1.
         -5    1    1    2    0  502 -0.21797510065E+02 -0.16159561303E+02  0.23879752047E+02  0.36386506076E+02  0.41800000000E+01 0.  1.
        -11    1    3    3    0    0 -0.18064018015E+01 -0.40145760633E+02  0.31810186356E+02  0.51252640325E+02  0.00000000000E+00 0. -1.
         11    1    3    3    0    0 -0.10566274897E+03 -0.15189303603E+01  0.89929792465E+02  0.13875983295E+03  0.00000000000E+00 0.  1.
</event>
<event>
 7    1  0.6145388E-006  0.1005258E+03  0.7561462E-02  0.1279194E+00
          1   -1    0    0  501    0  0.00000000000E+00  0.00000000000E+00  0.64655277005E+03  0.64655277005E+03  0.00000000000E+00 0. -1.
         -1   -1    0    0    0  501 -0.00000000000E+00 -0.00000000000E+00 -0.19396504733E+02  0.19396504733E+02  0.00000000000E+00 0.  1.
         23    2    1    2    0    0 -0.26708616779E+02 -0.74944465667E+01  0.26497416739E+03  0.28176989665E+03  0.91724851226E+02 0.  0.
          5    1    1    2  502    0  0.13468845253E+02 -0.58707842990E+02  0.16281504097E+03  0.17364973535E+03  0.41800000000E+01 0.  1.
         -5    1    1    2    0  502  0.13239771526E+02  0.66202289556E+02  0.19936705695E+03  0.21052964278E+03  0.41800000000E+01 0.  1.
        -11    1    3    3    0    0  0.92038765506E+01 -0.29507003227E+02  0.30083223769E+02  0.43132063889E+02  0.00000000000E+00 0.  1.
         11    1    3    3    0    0 -0.35912493330E+02  0.22012556660E+02  0.23489094362E+03  0.23863783276E+03  0.00000000000E+00 0. -1.
</event>
<event>
 7    1  0.6145388E-006  0.1094339E+03  0.7561462E-02  0.1261622E+00
          4   -1    0    0  501    0  0.00000000000E+00  0.00000000000E+00  0.29928008692E+03  0.29928008692E+03  0.00000000000E+00 0. -1.
         -4   -1    0    0    0  501 -0.00000000000E+00 -0.00000000000E+00 -0.50361092546E+02  0.50361092546E+02  0.00000000000E+00 0.  1.
         23    2    1    2    0    0  0.12053368235E+02  0.49622298037E+02  0.14042339656E+03  0.17635879475E+03  0.93680510441E+02 0.  0.
          5    1    1    2  502    0 -0.43361169412E+02 -0.77471131420E+02  0.92383392191E+02  0.12819567375E+03  0.41800000000E+01 0. -1.
         -5    1    1    2    0  502  0.31307801177E+02  0.27848833383E+02  0.16112205624E+02  0.45086710962E+02  0.41800000000E+01 0. -1.
        -11    1    3    3    0    0  0.60997875159E+01 -0.18509239449E+02 -0.73811566355E+00  0.19502414401E+02  0.00000000000E+00 0.  1.
         11    1    3    3    0    0  0.59535807192E+01  0.68131537486E+02  0.14116151222E+03  0.15685638035E+03  0.00000000000E+00 0. -1.
</event>
<event>
 7    1  0.6145388E-006  0.1602262E+03  0.7561462E-02  0.1188442E+00
         -2   -1    0    0    0  501 -0.00000000000E+00  0.00000000000E+00  0.43833659955E+02  0.43833659955E+02  0.00000000000E+00 0.  1.
          2   -1    0    0  501    0  0.00000000000E+00 -0.00000000000E+00 -0.80219837342E+03  0.80219837342E+03  0.00000000000E+00 0. -1.
         23    2    1    2    0    0  0.15204074531E+03  0.11403044464E+02 -0.36835697404E+03  0.40899675781E+03  0.91351354249E+02 0.  0.
          5    1    1    2  502    0  0.58937723190E+00 -0.14214345068E+02  0.32385855454E+01  0.15177476983E+02  0.41800000000E+01 0.  1.
         -5    1    1    2    0  502 -0.15263012254E+03  0.28113006032E+01 -0.39324632497E+03  0.42185779858E+03  0.41800000000E+01 0.  1.
        -11    1    3    3    0    0  0.10844792813E+03  0.13400480201E+02 -0.14580987662E+03  0.18221154219E+03  0.00000000000E+00 0. -1.
         11    1    3    3    0    0  0.43592817176E+02 -0.19974357362E+01 -0.22254709742E+03  0.22678521563E+03  0.00000000000E+00 0.  1.
</event>
<event>
 7    1  0.6145388E-006  0.1066381E+03  0.7561462E-02  0.1266925E+00
          3   -1    0    0  501    0  0.00000000000E+00  0.00000000000E+00  0.48016411948E+02  0.48016411948E+02  0.00000000000E+00 0. -1.
         -3   -1    0    0    0  501 -0.00000000000E+00 -0.00000000000E+00 -0.30365117575E+03  0.30365117575E+03  0.00000000000E+00 0.  1.
         23    2    1    2    0    0  0.52236836676E+02  0.36566356371E+01 -0.12327274821E+03  0.16217084659E+03  0.91439351169E+02 0.  0.
          5    1    1    2  502    0  0.39166923143E+02 -0.10269866258E+02 -0.23007403496E+02  0.46758218925E+02  0.41800000000E+01 0. -1.
         -5    1    1    2    0  502 -0.91403759819E+02  0.66132306214E+01 -0.10935461210E+03  0.14273852219E+03  0.41800000000E+01 0. -1.
        -11    1    3    3    0    0 -0.50175570027E+01 -0.18704601030E+02 -0.90430323912E+02  0.92480708587E+02  0.00000000000E+00 0.  1.
         11    1    3    3    0    0  0.57254393679E+02  0.22361236668E+02 -0.32842424293E+02  0.69690137999E+02  0.00000000000E+00 0. -1.
</event>
<event>
 7    1  0.6145388E-006  0.1265928E+03  0.7561462E-02  0.1232601E+00
         -2   -1    0    0    0  501 -0.00000000000E+00  0.00000000000E+00  0.23795051373E+03  0.23795051373E+03  0.00000000000E+00 0.  1.
          2   -1    0    0  501    0  0.00000000000E+00 -0.00000000000E+00 -0.98185879376E+02  0.98185879376E+02  0.00000000000E+00 0. -1.
         23    2    1    2    0    0  0.81418273904E+02  0.61526621844E+02  0.19522209816E+02  0.13484308956E+03  0.85948133230E+02 0.  0.
          5    1    1    2  502    0 -0.86999652391E+02 -0.17071981874E+02  0.12786778103E+03  0.15565357017E+03  0.41800000000E+01 0.  1.
         -5    1    1    2    0  502  0.55813784867E+01 -0.44454639970E+02 -0.76253564922E+01  0.45639733372E+02  0.41800000000E+01 0.  1.
        -11    1    3    3    0    0  0.87292551238E+02  0.38041652478E+02 -0.11034619229E+02  0.95858852728E+02  0.00000000000E+00 0. -1.
         11    1    3    3    0    0 -0.58742773335E+01  0.23484969366E+02  0.30556829045E+02  0.38984236835E+02  0.00000000000E+00 0.  1.
</event>
<event>
 7    1  0.6145388E-006  0.1351723E+03  0.7561462E-02  0.1219977E+00
         -1   -1    0    0    0  501 -0.00000000000E+00  0.00000000000E+00  0.55575980796E+02  0.55575980796E+02  0.00000000000E+00 0.  1.
          1   -1    0    0  501    0  0.00000000000E+00 -0.00000000000E+00 -0.34731039768E+03  0.34731039768E+03  0.00000000000E+00 0. -1.
         23    2    1    2    0    0  0.71152490942E+02 -0.41208313556E+02 -0.17079979724E+03  0.21045026941E+03  0.91410847738E+02 0.  0.
          5    1    1    2  502    0  0.34185691766E+02 -0.45072480835E+01 -0.26047096007E+02  0.43415439848E+02  0.41800000000E+01 0. -1.
         -5    1    1    2    0  502 -0.10533818271E+03  0.45715561639E+02 -0.94887523638E+02  0.14902066922E+03  0.41800000000E+01 0. -1.
        -11    1    3    3    0    0 -0.63369457668E+01 -0.42732308585E+02 -0.42781126008E+02  0.60798287979E+02  0.00000000000E+00 0.  1.
         11    1    3    3    0    0  0.77489436708E+02  0.15239950295E+01 -0.12801867123E+03  0.14965198143E+03  0.00000000000E+00 0. -1.
</event>
<event>
 7    1  0.6145388E-006  0.1468291E+03  0.7561462E-02  0.1204424E+00
         -1   -1    0    0    0  501 -0.00000000000E+00  0.00000000000E+00  0.83339689251E+02  0.83339689251E+02  0.00000000000E+00 0.  1.
          1   -1    0    0  501    0  0.00000000000E+00 -0.00000000000E+00 -0.68195743792E+03  0.68195743792E+03  0.00000000000E+00 0. -1.
         23    2    1    2    0    0 -0.36818697656E+02  0.92437744512E+02 -0.58996865111E+03  0.60523127676E+03  0.91332009515E+02 0.  0.
          5    1    1    2  502    0 -0.34175527788E+02  0.83766043975E+01 -0.95106363894E+01  0.36688674074E+02  0.41800000000E+01 0.  1.
         -5    1    1    2    0  502  0.70994225443E+02 -0.10081434891E+03  0.86153883294E+00  0.12337717634E+03  0.41800000000E+01 0.  1.
        -11    1    3    3    0    0 -0.64112519831E+02  0.39538759588E+02 -0.34631272544E+03  0.35440969585E+03  0.00000000000E+00 0. -1.
         11    1    3    3    0    0  0.27293822175E+02  0.52898984924E+02 -0.24365592567E+03  0.25082158091E+03  0.00000000000E+00 0.  1.
</event>
<event>
 7    1  0.6145388E-006  0.1093838E+03  0.7561462E-02  0.1261715E+00
          1   -1    0    0  501    0  0.00000000000E+00  0.00000000000E+00  0.12438341995E+03  0.12438341995E+03  0.00000000000E+00 0. -1.
         -1   -1    0    0    0  501 -0.00000000000E+00 -0.00000000000E+00 -0.12076939941E+03  0.12076939941E+03  0.00000000000E+00 0.  1.
         23    2    1    2    0    0  0.32915335637E+02  0.17191172188E+02  0.44606613835E+02  0.10840592490E+03  0.91559482497E+02 0.  0.
          5    1    1    2  502    0 -0.19536604864E+02 -0.66885272451E+02 -0.47892252426E+02  0.84654939861E+02  0.41800000000E+01 0.  1.
         -5    1    1    2    0  502 -0.13378730772E+02  0.49694100263E+02  0.68996591342E+01  0.52091954601E+02  0.41800000000E+01 0.  1.
        -11    1    3    3    0    0 -0.14774477937E+02  0.41320551649E+02  0.10892144780E+02  0.45214068660E+02  0.00000000000E+00 0.  1.
         11    1    3    3    0    0  0.47689813574E+02 -0.24129379461E+02  0.33714469055E+02  0.63191856244E+02  0.00000000000E+00 0. -1.
</event>
<event>
 7    1  0.6145388E-006  0.1582736E+03  0.7561462E-02  0.1190660E+00
          2   -1    0    0  501    0  0.00000000000E+00  0.00000000000E+00  0.48572271134E+03  0.48572271134E+03  0.00000000000E+00 0. -1.
         -2   -1    0    0    0  501 -0.00000000000E+00 -0.00000000000E+00 -0.55071461544E+02  0.55071461544E+02  0.00000000000E+00 0.  1.
         23    2    1    2    0    0 -0.47748479026E+02  0.11230882291E+03  0.20342729694E+03  0.25413837095E+03  0.91161710699E+02 0.  0.
          5    1    1    2  502    0 -0.35250517564E+02 -0.62801426046E+02  0.61641654324E+02  0.94888271402E+02  0.41800000000E+01 0. -1.
         -5    1    1    2    0  502  0.82998996591E+02 -0.49507396861E+02  0.16558229854E+03  0.19176753054E+03  0.41800000000E+01 0. -1.
        -11    1    3    3    0    0 -0.50963207824E+02  0.19122061211E+02  0.46453601509E+02  0.71560036821E+02  0.00000000000E+00 0.  1.
         11    1    3    3    0    0  0.32147287978E+01  0.93186761696E+02  0.15697369543E+03  0.18257833413E+03  0.00000000000E+00 0. -1.
</event>
<event>
 7    1  0.6145388E-006  0.1577445E+03  0.7561462E-02  0.1191267E+00
         -3   -1    0    0    0  501 -0.00000000000E+00  0.00000000000E+00  0.13149673038E+03  0.13149673038E+03  0.00000000000E+00 0.  1.
          3   -1    0    0  501    0  0.00000000000E+00 -0.00000000000E+00 -0.25820997192E+03  0.25820997192E+03  0.00000000000E+00 0. -1.
         23    2    1    2    0    0 -0.13278604580E+02 -0.11786629388E+03 -0.15272502925E+03  0.21537435394E+03  0.94828229985E+02 0.  0.
          5    1    1    2  502    0 -0.30997143642E+02  0.12029315595E+03  0.32992962683E+01  0.12433673648E+03  0.41800000000E+01 0. -1.
         -5    1    1    2    0  502  0.44275748222E+02 -0.24268620673E+01  0.22712491441E+02  0.49995611883E+02  0.41800000000E+01 0. -1.
        -11    1    3    3    0    0 -0.49387126525E+02 -0.53182267587E+02 -0.47690037301E+02  0.86843431012E+02  0.00000000000E+00 0.  1.
         11    1    3    3    0    0  0.36108521945E+02 -0.64684026292E+02 -0.10503499195E+03  0.12853092293E+03  0.00000000000E+00 0. -1.
</event>
<event>
 7    1  0.6145388E-006  0.9316615E+02  0.7561462E-02  0.1295361E+00
          2   -1    0    0  501    0  0.00000000000E+00  0.00000000000E+00  0.10311376966E+03  0.10311376966E+03  0.00000000000E+00 0. -1.
         -2   -1    0    0    0  501 -0.00000000000E+00 -0.00000000000E+00 -0.11752033193E+03  0.11752033193E+03  0.00000000000E+00 0.  1.
         23    2    1    2    0    0  0.56968596464E+01  0.22781230761E+02 -0.29044660070E+01  0.92839212353E+02  0.89773296379E+02 0.  0.
          5    1    1    2  502    0  0.55285404318E+02 -0.32767706950E+02  0.18803049797E+01  0.64429857179E+02  0.41800000000E+01 0.  1.
         -5    1    1    2    0  502 -0.60982263964E+02  0.99864761884E+01 -0.13382401244E+02  0.63365032060E+02  0.41800000000E+01 0.  1.
        -11    1    3    3    0    0  0.20950038236E+02  0.34769696818E+02 -0.36143626968E+02  0.54352531581E+02  0.00000000000E+00 0.  1.
         11    1    3    3    0    0 -0.15253178590E+02 -0.11988466056E+02  0.33239160961E+02  0.38486680772E+02  0.00000000000E+00 0. -1.
</event>
<event>
 7    1  0.6145388E-006  0.2026974E+03  0.7561462E-02  0.1147483E+00
          3   -1    0    0  501    0  0.00000000000E+00  0.00000000000E+00  0.88192724923E+02  0.88192724923E+02  0.00000000000E+00 0.  1.
         -3   -1    0    0    0  501 -0.00000000000E+00 -0.00000000000E+00 -0.51456912988E+03  0.51456912988E+03  0.00000000000E+00 0. -1.
         23    2    1    2    0    0  0.17263178428E+03 -0.60326603210E+02 -0.20517685763E+03  0.28968582366E+03  0.91538524816E+02 0.  0.
          5    1    1    2  502    0  0.17142424109E+02 -0.38819865642E+01 -0.60258355917E+01  0.19045094344E+02  0.41800000000E+01 0.  1.
         -5    1    1    2    0  502 -0.18977420839E+03  0.64208589775E+02 -0.21517371173E+03  0.29403093679E+03  0.41800000000E+01 0.  1.
        -11    1    3    3    0    0  0.91500903376E+02 -0.11420265938E+02 -0.16014640746E+03  0.18479640044E+03  0.00000000000E+00 0.  1.
         11    1    3    3    0    0  0.81130880904E+02 -0.48906337272E+02 -0.45030450169E+02  0.10488942322E+03  0.00000000000E+00 0. -1.
</event>
<event>
 7    1  0.6145388E-006  0.2804293E+03  0.7561462E-02  0.1095455E+00
          2   -1    0    0  501    0  0.00000000000E+00  0.00000000000E+00  0.39345729533E+03  0.39345729533E+03  0.00000000000E+00 0. -1.
         -2   -1    0    0    0  501 -0.00000000000E+00 -0.00000000000E+00 -0.26283794623E+03  0.26283794623E+03  0.00000000000E+00 0.  1.
         23    2    1    2    0    0  0.27189045758E+02  0.27767783219E+03  0.18338686969E+03  0.34601110511E+03  0.90822454171E+02 0.  0.
          5    1    1    2  502    0 -0.32476455750E+02 -0.26135708573E+03 -0.82228228939E+02  0.27593695017E+03  0.41800000000E+01 0. -1.
         -5    1    1    2    0  502  0.52874099920E+01 -0.16320746465E+02  0.29460708344E+02  0.34347186285E+02  0.41800000000E+01 0. -1.
        -11    1    3    3    0    0  0.25288003192E+02  0.15058439527E+03  0.15120901144E+03  0.21489371407E+03  0.00000000000E+00 0. -1.
         11    1    3    3    0    0  0.19010425662E+01  0.12709343692E+03  0.32177858249E+02  0.13111739104E+03  0.00000000000E+00 0.  1.
</event>
<event>
 7    1  0.6145388E-006  0.1067890E+03  0.7561462E-02  0.1266634E+00
          2   -1    0    0  501    0  0.00000000000E+00  0.00000000000E+00  0.53071434730E+03  0.53071434730E+03  0.00000000000E+00 0. -1.
         -2   -1    0    0    0  501 -0.00000000000E+00 -0.00000000000E+00 -0.29358312191E+02  0.29358312191E+02  0.00000000000E+00 0.  1.
         23    2    1    2    0    0  0.30108515016E+02 -0.51080524875E+02  0.26504097839E+03  0.28619660687E+03  0.90255386874E+02 0.  0.
          5    1    1    2  502    0 -0.26683000224E+02  0.91458692535E+02  0.18698642462E+03  0.20990014372E+03  0.41800000000E+01 0.  1.
         -5    1    1    2    0  502 -0.34255147925E+01 -0.40378167660E+02  0.49328632102E+02  0.63975908905E+02  0.41800000000E+01 0.  1.
        -11    1    3    3    0    0  0.21905349261E+01 -0.49463369590E+02  0.24917097416E+03  0.25404251167E+03  0.00000000000E+00 0. -1.
         11    1    3    3    0    0  0.27917980090E+02 -0.16171552847E+01  0.15870004232E+02  0.32154095196E+02  0.00000000000E+00 0.  1.
</event>
<event>
 7    1  0.6145388E-006  0.6890064E+02  0.7561462E-02  0.1363872E+00
         -2   -1    0    0    0  501 -0.00000000000E+00  0.00000000000E+00  0.25763558365E+02  0.25763558365E+02  0.00000000000E+00 0.  1.
          2   -1    0    0  501    0  0.00000000000E+00 -0.00000000000E+00 -0.53028995962E+03  0.53028995962E+03  0.00000000000E+00 0. -1.
         23    2    1    2    0    0  0.26648093654E+02  0.33858692325E+02 -0.25564144837E+03  0.27418851679E+03  0.89276316399E+02 0.  0.
          5    1    1    2  502    0  0.58072871612E+01 -0.22308531502E+01  0.13565347734E+02  0.15498140181E+02  0.41800000000E+01 0. -1.
         -5    1    1    2    0  502 -0.32455380815E+02 -0.31627839174E+02 -0.26245030061E+03  0.26636686102E+03  0.41800000000E+01 0. -1.
        -11    1    3    3    0    0  0.34012055909E+02  0.53738008903E+02 -0.23877124685E+03  0.24709573422E+03  0.00000000000E+00 0. -1.
         11    1    3    3    0    0 -0.73639622549E+01 -0.19879316578E+02 -0.16870201525E+02  0.27092782567E+02  0.00000000000E+00 0.  1.
</event>
<event>
 7    1  0.6145388E-006  0.7884832E+02  0.7561462E-02  0.1332352E+00
          2   -1    0    0  501    0  0.00000000000E+00  0.00000000000E+00  0.50283272366E+02  0.50283272366E+02  0.00000000000E+00 0. -1.
         -2   -1    0    0    0  501 -0.00000000000E+00 -0.00000000000E+00 -0.27137563264E+03  0.27137563264E+03  0.00000000000E+00 0.  1.
         23    2    1    2    0    0  0.39999397764E+02 -0.19049742619E+02 -0.10108274296E+03  0.14270699119E+03  0.90469441773E+02 0.  0.
          5    1    1    2  502    0 -0.35839069733E+02 -0.17663555705E+02  0.11902104567E+02  0.41899553847E+02  0.41800000000E+01 0. -1.
         -5    1    1    2    0  502 -0.41603280309E+01  0.36713298325E+02 -0.13191172189E+03  0.13705235997E+03  0.41800000000E+01 0. -1.
        -11    1    3    3    0    0  0.41495101005E+02  0.16574983105E+02 -0.11280374017E+02  0.46084924979E+02  0.00000000000E+00 0. -1.
         11    1    3    3    0    0 -0.14957032412E+01 -0.35624725724E+02 -0.89802368941E+02  0.96622066209E+02  0.00000000000E+00 0.  1.
</event>
<event>
 7    1  0.6145388E-006  0.9567343E+02  0.7561462E-02  0.1289667E+00
         -2   -1    0    0    0  501 -0.00000000000E+00  0.00000000000E+00  0.57238601780E+03  0.57238601780E+03  0.00000000000E+00 0.  1.
          2   -1    0    0  501    0  0.00000000000E+00 -0.00000000000E+00 -0.24543406835E+02  0.24543406835E+02  0.00000000000E+00 0. -1.
         23    2    1    2    0    0 -0.45757983626E+02  0.17250944311E+01  0.20404660481E+03  0.22822946374E+03  0.91416093603E+02 0.  0.
          5    1    1    2  502    0  0.86756476368E+02  0.31604278881E+01  0.27446321210E+03  0.28789616478E+03  0.41800000000E+01 0.  1.
         -5    1    1    2    0  502 -0.40998492742E+02 -0.48855223192E+01  0.69332794056E+02  0.80803796118E+02  0.41800000000E+01 0.  1.
        -11    1    3    3    0    0 -0.17148285215E+02 -0.20484052316E+02  0.66391659841E+01  0.27527052332E+02  0.00000000000E+00 0. -1.
         11    1    3    3    0    0 -0.28609698411E+02  0.22209146747E+02  0.19740743883E+03  0.20070241141E+03  0.00000000000E+00 0.  1.
</event>
<event>
 7    1  0.6145388E-006  0.1492444E+03  0.7561462E-02  0.1201405E+00
          1   -1    0    0  501    0  0.00000000000E+00  0.00000000000E+00  0.86100561962E+03  0.86100561962E+03  0.00000000000E+00 0. -1.
         -1   -1    0    0    0  501 -0.00000000000E+00 -0.00000000000E+00 -0.88086010616E+02  0.88086010616E+02  0.00000000000E+00 0.  1.
         23    2    1    2    0    0  0.11633984308E+03  0.39018076562E+02  0.75790336719E+03  0.77322204697E+03  0.91637604341E+02 0.  0.
          5    1    1    2  502    0 -0.73872393576E+02  0.22993022058E+02  0.50669532460E+02  0.92577986129E+02  0.41800000000E+01 0.  1.
         -5    1    1    2    0  502 -0.42467449503E+02 -0.62011098620E+02 -0.35653290651E+02  0.83291597136E+02  0.41800000000E+01 0.  1.
        -11    1    3    3    0    0  0.12503830632E+03  0.47334989976E+02  0.73760573977E+03  0.74962484394E+03  0.00000000000E+00 0. -1.
         11    1    3    3    0    0 -0.86984632366E+01 -0.83169134143E+01  0.20297627429E+02  0.23597203026E+02  0.00000000000E+00 0.  1.
</event>
<event>
 7    1  0.6145388E-006  0.1463405E+03  0.7561462E-02  0.1205043E+00
         -1   -1    0    0    0  501 -0.00000000000E+00  0.00000000000E+00  0.41166982144E+02  0.41166982144E+02  0.00000000000E+00 0.  1.
          1   -1    0    0  501    0  0.00000000000E+00 -0.00000000000E+00 -0.68236162127E+03  0.68236162127E+03  0.00000000000E+00 0. -1.
         23    2    1    2    0    0  0.12370364561E+03 -0.27308623091E+02 -0.37107666059E+03  0.40001738321E+03  0.79168592251E+02 0.  0.
          5    1    1    2  502    0 -0.52830692218E+02  0.51308582610E+02 -0.22324799939E+03  0.23511868135E+03  0.41800000000E+01 0.  1.
         -5    1    1    2    0  502 -0.70872953395E+02 -0.23999959519E+02 -0.46869979144E+02  0.88392538853E+02  0.41800000000E+01 0.  1.
        -11    1    3    3    0    0  0.46439647689E+02  0.22951208710E+02 -0.18857375975E+03  0.19555935601E+03  0.00000000000E+00 0. -1.
         11    1    3    3    0    0  0.77263997924E+02 -0.50259831801E+02 -0.18250290084E+03  0.20445802719E+03  0.00000000000E+00 0.  1.
</event>
<event>
 7    1  0.6145388E-006  0.1625201E+03  0.7561462E-02  0.1185881E+00
         -2   -1    0    0    0  501 -0.00000000000E+00  0.00000000000E+00  0.69341326202E+02  0.69341326202E+02  0.00000000000E+00 0.  1.
          2   -1    0    0  501    0  0.00000000000E+00 -0.00000000000E+00 -0.46793058259E+03  0.46793058259E+03  0.00000000000E+00 0. -1.
         23    2    1    2    0    0 -0.11422512964E+03 -0.79606977629E+02 -0.24010620809E+03  0.29201941170E+03  0.90772763085E+02 0.  0.
          5    1    1    2  502    0  0.50661233421E+02  0.85002925763E+02 -0.15141861466E+03  0.18093404109E+03  0.41800000000E+01 0. -1.
         -5    1    1    2    0  502  0.63563896222E+02 -0.53959481340E+01 -0.70644336355E+01  0.64318455997E+02  0.41800000000E+01 0. -1.
        -11    1    3    3    0    0  0.86383485568E+01 -0.27120281887E+02 -0.71073845890E+02  0.76561232520E+02  0.00000000000E+00 0. -1.
         11    1    3    3    0    0 -0.12286347820E+03 -0.52486695742E+02 -0.16903236220E+03  0.21545817918E+03  0.00000000000E+00 0.  1.
</event>
<event>
 7    1  0.6145388E-006  0.1953392E+03  0.7561462E-02  0.1153732E+00
         -1   -1    0    0    0  501 -0.00000000000E+00  0.00000000000E+00  0.94489599346E+02  0.94489599346E+02  0.00000000000E+00 0. -1.
          1   -1    0    0  501    0  0.00000000000E+00 -0.00000000000E+00 -0.48834591743E+03  0.48834591743E+03  0.00000000000E+00 0.  1.
         23    2    1    2    0    0 -0.74622742229E+01  0.18448394482E+03 -0.16846723392E+03  0.26575744054E+03  0.90309450603E+02 0.  0.
          5    1    1    2  502    0 -0.38592672871E+02 -0.46859246628E+02 -0.17145412469E+02  0.63218833923E+02  0.41800000000E+01 0. -1.
         -5    1    1    2    0  502  0.46054947094E+02 -0.13762469819E+03 -0.20824367170E+03  0.25385924232E+03  0.41800000000E+01 0. -1.
        -11    1    3    3    0    0 -0.48239742864E+01  0.13753645140E+03 -0.65191351183E+02  0.15228085389E+03  0.00000000000E+00 0. -1.
         11    1    3    3    0    0 -0.26382999364E+01  0.46947493420E+02 -0.10327588273E+03  0.11347658666E+03  0.00000000000E+00 0.  1.
</event>
<event>
 7    1  0.6145388E-006  0.8169996E+02  0.7561462E-02  0.1324295E+00
         -3   -1    0    0    0  501 -0.00000000000E+00  0.00000000000E+00  0.12815960436E+04  0.12815960436E+04  0.00000000000E+00 0.  1.
          3   -1    0    0  501    0  0.00000000000E+00 -0.00000000000E+00 -0.12037813662E+02  0.12037813662E+02  0.00000000000E+00 0. -1.
         23    2    1    2    0    0  0.22053251249E+01 -0.18150034922E+02  0.25726168275E+03  0.27347385565E+03  0.90940030163E+02 0.  0.
          5    1    1    2  502    0 -0.37150931724E+02 -0.10894360854E+02  0.10962277844E+03  0.11633359265E+03  0.41800000000E+01 0.  1.
         -5    1    1    2    0  502  0.34945606599E+02  0.29044395776E+02  0.90267376879E+03  0.90382640900E+03  0.41800000000E+01 0.  1.
        -11    1    3    3    0    0 -0.25259495843E+02  0.19720988826E+02  0.40108057881E+02  0.51338249265E+02  0.00000000000E+00 0. -1.
         11    1    3    3    0    0  0.27464820968E+02 -0.37871023748E+02  0.21715362486E+03  0.22213560638E+03  0.00000000000E+00 0.  1.
</event>
<event>
 7    1  0.6145388E-006  0.1254062E+03  0.7561462E-02  0.1234436E+00
         -2   -1    0    0    0  501 -0.00000000000E+00  0.00000000000E+00  0.34244759099E+03  0.34244759099E+03  0.00000000000E+00 0.  1.
          2   -1    0    0  501    0  0.00000000000E+00 -0.00000000000E+00 -0.47838386822E+02  0.47838386822E+02  0.00000000000E+00 0. -1.
         23    2    1    2    0    0 -0.39216761123E+02 -0.53964497592E+02  0.14330783733E+03  0.18299408381E+03  0.92193151135E+02 0.  0.
          5    1    1    2  502    0 -0.40567249777E+02 -0.16255786607E+01  0.67379196443E+02  0.78776727361E+02  0.41800000000E+01 0. -1.
         -5    1    1    2    0  502  0.79784010900E+02  0.55590076253E+02  0.83922170401E+02  0.12851516665E+03  0.41800000000E+01 0.  1.
        -11    1    3    3    0    0 -0.13513860646E+02 -0.76985335869E+02  0.86996546489E+02  0.11695197933E+03  0.00000000000E+00 0. -1.
         11    1    3    3    0    0 -0.25702900478E+02  0.23020838277E+02  0.56311290837E+02  0.66042104476E+02  0.00000000000E+00 0.  1.
</event>
<event>
 7    1  0.6145388E-006  0.1103145E+03  0.7561462E-02  0.1259989E+00
         -2   -1    0    0    0  501 -0.00000000000E+00  0.00000000000E+00  0.61736400555E+02  0.61736400555E+02  0.00000000000E+00 0.  1.
          2   -1    0    0  501    0  0.00000000000E+00 -0.00000000000E+00 -0.21514015809E+03  0.21514015809E+03  0.00000000000E+00 0. -1.
         23    2    1    2    0    0  0.32508402293E+02 -0.16334025092E+01 -0.93434026117E+02  0.13439021310E+03  0.90946951120E+02 0.  0.
          5    1    1    2  502    0  0.41290981582E+02  0.22632810847E+02 -0.42755157694E+02  0.63739039813E+02  0.41800000000E+01 0.  1.
         -5    1    1    2    0  502 -0.73799383875E+02 -0.20999408338E+02 -0.17214573722E+02  0.78747305727E+02  0.41800000000E+01 0.  1.
        -11    1    3    3    0    0 -0.60453993371E+01  0.39603165194E+02 -0.41525111662E+02  0.57700021188E+02  0.00000000000E+00 0.  1.
         11    1    3    3    0    0  0.38553801630E+02 -0.41236567704E+02 -0.51908914455E+02  0.76690191915E+02  0.00000000000E+00 0. -1.
</event>
<event>
 7    1  0.6145388E-006  0.1128159E+03  0.7561462E-02  0.1255442E+00
          1   -1    0    0  501    0  0.00000000000E+00  0.00000000000E+00  0.99587466735E+02  0.99587466735E+02  0.00000000000E+00 0. -1.
         -1   -1    0    0    0  501 -0.00000000000E+00 -0.00000000000E+00 -0.19131130223E+03  0.19131130223E+03  0.00000000000E+00 0.  1.
         23    2    1    2    0    0 -0.61113470159E+02 -0.58160138675E+02 -0.36834251577E+02  0.13034682422E+03  0.92282579771E+02 0.  0.
          5    1    1    2  502    0 -0.18744848114E+02  0.50975104736E+02 -0.58815982703E+02  0.80166220162E+02  0.41800000000E+01 0. -1.
         -5    1    1    2    0  502  0.79858318273E+02  0.71850339385E+01  0.39263987812E+01  0.80385724587E+02  0.41800000000E+01 0. -1.
        -11    1    3    3    0    0 -0.41416919260E+02 -0.57878120516E+02  0.16871097844E+02  0.73142819046E+02  0.00000000000E+00 0. -1.
         11    1    3    3    0    0 -0.19696550898E+02 -0.28201815883E+00 -0.53705349420E+02  0.57204005173E+02  0.00000000000E+00 0.  1.
</event>
<event>
 7    1  0.6145388E-006  0.7950965E+02  0.7561462E-02  0.1330449E+00
         -2   -1    0    0    0  501 -0.00000000000E+00  0.00000000000E+00  0.80848191301E+02  0.80848191301E+02  0.00000000000E+00 0.  1.
          2   -1    0    0  501    0  0.00000000000E+00 -0.00000000000E+00 -0.15485463181E+03  0.15485463181E+03  0.00000000000E+00 0. -1.
         23    2    1    2    0    0  0.18043006136E+01  0.27978853731E+02 -0.42023699702E+02  0.10358408231E+03  0.90430078038E+02 0.  0.
          5    1    1    2  502    0  0.20046073507E+02 -0.47849114958E+02 -0.67821812633E+02  0.85490663433E+02  0.41800000000E+01 0. -1.
         -5    1    1    2    0  502 -0.21850374120E+02  0.19870261228E+02  0.35839071823E+02  0.46628077374E+02  0.41800000000E+01 0. -1.
        -11    1    3    3    0    0  0.50435574880E+01  0.52333026975E+02  0.26045813674E+01  0.52639975575E+02  0.00000000000E+00 0.  1.
         11    1    3    3    0    0 -0.32392568744E+01 -0.24354173244E+02 -0.44628281069E+02  0.50944106731E+02  0.00000000000E+00 0. -1.
</event>
<event>
 7    1  0.6145388E-006  0.8251668E+02  0.7561462E-02  0.1322057E+00
         -4   -1    0    0    0  501 -0.00000000000E+00  0.00000000000E+00  0.68250385622E+02  0.68250385622E+02  0.00000000000E+00 0.  1.
          4   -1    0    0  501    0  0.00000000000E+00 -0.00000000000E+00 -0.33950080359E+03  0.33950080359E+03  0.00000000000E+00 0. -1.
         23    2    1    2    0    0  0.45296965300E+02  0.12205321764E+02 -0.25107702798E+03  0.27262944634E+03  0.95322379798E+02 0.  0.
          5    1    1    2  502    0 -0.68232761626E+02  0.37362229446E+01 -0.56739474488E+02  0.88918555354E+02  0.41800000000E+01 0.  1.
         -5    1    1    2    0  502  0.22935796326E+02 -0.15941544709E+02  0.36566084499E+02  0.46203187514E+02  0.41800000000E+01 0.  1.
        -11    1    3    3    0    0  0.12776516892E+02 -0.19236742649E+02 -0.66210673494E+01  0.24023533972E+02  0.00000000000E+00 0.  1.
         11    1    3    3    0    0  0.32520448409E+02  0.31442064413E+02 -0.24445596063E+03  0.24860591237E+03  0.00000000000E+00 0. -1.
</event>
<event>
 7    1  0.6145388E-006  0.1494130E+03  0.7561462E-02  0.1201196E+00
          2   -1    0    0  501    0  0.00000000000E+00  0.00000000000E+00  0.27016603306E+03  0.27016603306E+03  0.00000000000E+00 0. -1.
         -2   -1    0    0    0  501 -0.00000000000E+00 -0.00000000000E+00 -0.11877466175E+03  0.11877466175E+03  0.00000000000E+00 0.  1.
         23    2    1    2    0    0  0.10198265061E+03 -0.26913653101E+01  0.17844308857E+03  0.22527192211E+03  0.92183504815E+02 0.  0.
          5    1    1    2  502    0  0.27620078068E+02 -0.12817178828E+02 -0.72947924606E+01  0.31588529289E+02  0.41800000000E+01 0.  1.
         -5    1    1    2    0  502 -0.12960272868E+03  0.15508544138E+02 -0.19756924797E+02  0.13208024341E+03  0.41800000000E+01 0.  1.
        -11    1    3    3    0    0  0.32975013352E+02 -0.45572739113E+02  0.72859714430E+02  0.92047618343E+02  0.00000000000E+00 0. -1.
         11    1    3    3    0    0  0.69007637262E+02  0.42881373803E+02  0.10558337414E+03  0.13322430376E+03  0.00000000000E+00 0.  1.
</event>
<event>
 7    1  0.6145388E-006  0.1023954E+03  0.7561462E-02  0.1275338E+00
         -1   -1    0    0    0  501 -0.00000000000E+00  0.00000000000E+00  0.42816408699E+02  0.42816408699E+02  0.00000000000E+00 0.  1.
          1   -1    0    0  501    0  0.00000000000E+00 -0.00000000000E+00 -0.31202069111E+03  0.31202069111E+03  0.00000000000E+00 0. -1.
         23    2    1    2    0    0  0.18687067397E+02  0.27819796142E+02 -0.15108651914E+03  0.17955955672E+03  0.91056853664E+02 0.  0.
          5    1    1    2  502    0 -0.62556241018E+02 -0.17237343072E+02 -0.11205398847E+03  0.12955299309E+03  0.41800000000E+01 0. -1.
         -5    1    1    2    0  502  0.43869173620E+02 -0.10582453070E+02 -0.60637747943E+01  0.45724549991E+02  0.41800000000E+01 0. -1.
        -11    1    3    3    0    0 -0.29532970003E+02  0.34891289656E+02 -0.93809264384E+02  0.10435409190E+03  0.00000000000E+00 0. -1.
         11    1    3    3    0    0  0.48220037401E+02 -0.70714935144E+01 -0.57277254757E+02  0.75205464827E+02  0.00000000000E+00 0.  1.
</event>
<event>
 7    1  0.6145388E-006  0.9897255E+02  0.7561462E-02  0.1282471E+00
         -1   -1    0    0    0  501 -0.00000000000E+00  0.00000000000E+00  0.37407720673E+02  0.37407720673E+02  0.00000000000E+00 0.  1.
          1   -1    0    0  501    0  0.00000000000E+00 -0.00000000000E+00 -0.44764814622E+03  0.44764814622E+03  0.00000000000E+00 0. -1.
         23    2    1    2    0    0  0.24207330702E+02 -0.28465838238E+02 -0.30035680931E+03  0.31538173066E+03  0.88629139286E+02 0.  0.
          5    1    1    2  502    0 -0.53709594994E+02  0.42729369228E+02 -0.11716017250E+03  0.13584733346E+03  0.41800000000E+01 0. -1.
         -5    1    1    2    0  502  0.29502264293E+02 -0.14263530990E+02  0.72765562576E+01  0.33826802770E+02  0.41800000000E+01 0.  1.
        -11    1    3    3    0    0 -0.33706111507E+02 -0.13697450429E+02 -0.10958370421E+03  0.11546562402E+03  0.00000000000E+00 0. -1.
         11    1    3    3    0    0  0.57913442209E+02 -0.14768387808E+02 -0.19077310510E+03  0.19991610664E+03  0.00000000000E+00 0.  1.
</event>
<event>
 7    1  0.6145388E-006  0.8643087E+02  0.7561462E-02  0.1311732E+00
         -2   -1    0    0    0  501 -0.00000000000E+00  0.00000000000E+00  0.22648413639E+03  0.22648413639E+03  0.00000000000E+00 0.  1.
          2   -1    0    0  501    0  0.00000000000E+00 -0.00000000000E+00 -0.62117238335E+02  0.62117238335E+02  0.00000000000E+00 0. -1.
         23    2    1    2    0    0 -0.16402357219E+02 -0.48140650856E+02  0.64093160074E+02  0.12040843801E+03  0.88338548707E+02 0.  0.
          5    1    1    2  502    0 -0.32875160798E+02  0.51705713616E+02  0.60399248024E+01  0.61710696882E+02  0.41800000000E+01 0.  1.
         -5    1    1    2    0  502  0.49277518018E+02 -0.35650627605E+01  0.94233813181E+02  0.10648223984E+03  0.41800000000E+01 0.  1.
        -11    1    3    3    0    0 -0.27324808418E+02 -0.29133189267E+02 -0.11609682285E+02  0.41595343425E+02  0.00000000000E+00 0. -1.
         11    1    3    3    0    0  0.10922451198E+02 -0.19007461589E+02  0.75702842359E+02  0.78813094581E+02  0.00000000000E+00 0.  1.
</event>
<event>
 7    1  0.6145388E-006  0.1054302E+03  0.7561462E-02  0.1269274E+00
         -1   -1    0    0    0  501 -0.00000000000E+00  0.00000000000E+00  0.41050828922E+03  0.41050828922E+03  0.00000000000E+00 0.  1.
          1   -1    0    0  501    0  0.00000000000E+00 -0.00000000000E+00 -0.44042400608E+02  0.44042400608E+02  0.00000000000E+00 0. -1.
         23    2    1    2    0    0 -0.15641301266E+02  0.69466111530E+01  0.31380372148E+02  0.96468629142E+02  0.89602248524E+02 0.  0.
          5    1    1    2  502    0  0.39666426218E+02 -0.53717392068E+02  0.24213153934E+03  0.25120537081E+03  0.41800000000E+01 0. -1.
         -5    1    1    2    0  502 -0.24025124952E+02  0.46770780915E+02  0.92953977126E+02  0.10687668988E+03  0.41800000000E+01 0. -1.
        -11    1    3    3    0    0  0.20086333861E+02  0.38575220812E+02  0.15820890426E+02  0.46279682827E+02  0.00000000000E+00 0. -1.
         11    1    3    3    0    0 -0.35727635127E+02 -0.31628609659E+02  0.15559481723E+02  0.50188946315E+02  0.00000000000E+00 0.  1.
</event>
<event>
 7    1  0.6145388E-006  0.2275184E+03  0.7561462E-02  0.1128399E+00
         -2   -1    0    0    0  501 -0.00000000000E+00  0.00000000000E+00  0.88401136024E+02  0.88401136024E+02  0.00000000000E+00 0.  1.
          2   -1    0    0  501    0  0.00000000000E+00 -0.00000000000E+00 -0.63838319144E+03  0.63838319144E+03  0.00000000000E+00 0. -1.
         23    2    1    2    0    0  0.97814650826E+02  0.18215642141E+03 -0.32725530206E+03  0.39814549142E+03  0.93140387763E+02 0.  0.
          5    1    1    2  502    0  0.22302005366E+02 -0.15257576090E+02 -0.61505556778E+02  0.67309575739E+02  0.41800000000E+01 0. -1.
         -5    1    1    2    0  502 -0.12011665619E+03 -0.16689884532E+03 -0.16122119657E+03  0.26132926030E+03  0.41800000000E+01 0. -1.
        -11    1    3    3    0    0 -0.10072029299E+02  0.51995085000E+02 -0.11640995411E+03  0.12789140728E+03  0.00000000000E+00 0. -1.
         11    1    3    3    0    0  0.10788668013E+03  0.13016133641E+03 -0.21084534795E+03  0.27025408415E+03  0.00000000000E+00 0.  1.
</event>
<event>
 7    1  0.6145388E-006  0.1825320E+03  0.7561462E-02  0.1165375E+00
          1   -1    0    0  501    0  0.00000000000E+00  0.00000000000E+00  0.13872998951E+04  0.13872998951E+04  0.00000000000E+00 0. -1.
         -1   -1    0    0    0  501 -0.00000000000E+00 -0.00000000000E+00 -0.25320504674E+02  0.25320504674E+02  0.00000000000E+00 0.  1.
         23    2    1    2    0    0  0.11455377157E+03  0.97447039183E+02  0.73504928119E+03  0.75587994413E+03  0.91861592271E+02 0.  0.
          5    1    1    2  502    0 -0.13793061176E+03 -0.60810089326E+02  0.45425380372E+03  0.47863003585E+03  0.41800000000E+01 0. -1.
         -5    1    1    2    0  502  0.23376840190E+02 -0.36636949857E+02  0.17267630554E+03  0.17811041982E+03  0.41800000000E+01 0. -1.
        -11    1    3    3    0    0  0.37759520702E+02  0.84733161325E+02  0.30327681721E+03  0.31714715495E+03  0.00000000000E+00 0.  1.
         11    1    3    3    0    0  0.76794250872E+02  0.12713877858E+02  0.43177246398E+03  0.43873278918E+03  0.00000000000E+00 0. -1.
</event>
<event>
 7    1  0.6145388E-006  0.1277096E+03  0.7561462E-02  0.1230894E+00
          1   -1    0    0  501    0  0.00000000000E+00  0.00000000000E+00  0.30052725021E+03  0.30052725021E+03  0.00000000000E+00 0. -1.
         -1   -1    0    0    0  501 -0.00000000000E+00 -0.00000000000E+00 -0.87889597589E+02  0.87889597589E+02  0.00000000000E+00 0.  1.
         23    2    1    2    0    0  0.51060849228E+02 -0.86227895864E+02  0.11014966074E+03  0.17397946727E+03  0.89963586647E+02 0.  0.
          5    1    1    2  502    0 -0.58320179368E+02  0.33372912081E+02  0.13568022488E+03  0.15146481574E+03  0.41800000000E+01 0. -1.
         -5    1    1    2    0  502  0.72593301400E+01  0.52854983782E+02 -0.33192233000E+02  0.62972564790E+02  0.41800000000E+01 0.  1.
        -11    1    3    3    0    0  0.43930890519E+02  0.39624298913E+01  0.33163360496E+02  0.55185437135E+02  0.00000000000E+00 0. -1.
         11    1    3    3    0    0  0.71299587091E+01 -0.90190325755E+02  0.76986300245E+02  0.11879403014E+03  0.00000000000E+00 0.  1.
</event>
<event>
 7    1  0.6145388E-006  0.3691133E+03  0.7561462E-02  0.1055033E+00
         -2   -1    0    0    0  501 -0.00000000000E+00  0.00000000000E+00  0.12699635572E+03  0.12699635572E+03  0.00000000000E+00 0.  1.
          2   -1    0    0  501    0  0.00000000000E+00 -0.00000000000E+00 -0.11392564155E+04  0.11392564155E+04  0.00000000000E+00 0. -1.
         23    2    1    2    0    0 -0.30144326614E+03  0.20292607497E+03 -0.54149147400E+03  0.65853916120E+03  0.91726636371E+02 0.  0.
          5    1    1    2  502    0  0.25602928440E+03 -0.12817093953E+03 -0.41390394462E+03  0.50330182991E+03  0.41800000000E+01 0.  1.
         -5    1    1    2    0  502  0.45413981733E+02 -0.74755135439E+02 -0.56864641164E+02  0.10441178011E+03  0.41800000000E+01 0.  1.
        -11    1    3    3    0    0 -0.99874757046E+02  0.52771372712E+02 -0.24539817243E+03  0.27014819619E+03  0.00000000000E+00 0. -1.
         11    1    3    3    0    0 -0.20156850909E+03  0.15015470226E+03 -0.29609330156E+03  0.38839096501E+03  0.00000000000E+00 0.  1.
</event>
<event>
 7    1  0.6145388E-006  0.8928335E+02  0.7561462E-02  0.1304596E+00
          2   -1    0    0  501    0  0.00000000000E+00  0.00000000000E+00  0.20284829208E+03  0.20284829208E+03  0.00000000000E+00 0. -1.
         -2   -1    0    0    0  501 -0.00000000000E+00 -0.00000000000E+00 -0.93161829955E+02  0.93161829955E+02  0.00000000000E+00 0.  1.
         23    2    1    2    0    0 -0.73888225358E+02 -0.40173561922E+02  0.62890424356E+02  0.13298190355E+03  0.81581837884E+02 0.  0.
          5    1    1    2  502    0  0.77006233554E+02  0.38671028810E+02  0.86962755229E+02  0.12249653739E+03  0.41800000000E+01 0. -1.
         -5    1    1    2    0  502 -0.31180081954E+01  0.15025331124E+01 -0.40166717459E+02  0.40531681094E+02  0.41800000000E+01 0.  1.
        -11    1    3    3    0    0 -0.62833042022E+02 -0.42117137502E+02  0.69894296401E+01  0.75965100986E+02  0.00000000000E+00 0. -1.
         11    1    3    3    0    0 -0.11055183336E+02  0.19435755797E+01  0.55900994716E+02  0.57016802566E+02  0.00000000000E+00 0.  1.
</event>
<event>
 7    1  0.6145388E-006  0.1483122E+03  0.7561462E-02  0.1202562E+00
         -1   -1    0    0    0  501 -0.00000000000E+00  0.00000000000E+00  0.99745920169E+02  0.99745920169E+02  0.00000000000E+00 0.  1.
          1   -1    0    0  501    0  0.00000000000E+00 -0.00000000000E+00 -0.29563950853E+03  0.29563950853E+03  0.00000000000E+00 0. -1.
         23    2    1    2    0    0 -0.46340241852E+02 -0.10529597549E+03 -0.16029773159E+03  0.21598771418E+03  0.87867340091E+02 0.  0.
          5    1    1    2  502    0  0.16345213015E+02 -0.23188157437E+02  0.21231191974E+02  0.35680422454E+02  0.41800000000E+01 0. -1.
         -5    1    1    2    0  502  0.29995028837E+02  0.12848413292E+03 -0.56827048736E+02  0.14371729206E+03  0.41800000000E+01 0.  1.
        -11    1    3    3    0    0 -0.27234511784E+02  0.16685858228E+01 -0.71453292841E+01  0.28205647331E+02  0.00000000000E+00 0.  1.
         11    1    3    3    0    0 -0.19105730068E+02 -0.10696456131E+03 -0.15315240231E+03  0.18778206685E+03  0.00000000000E+00 0. -1.
</event>
<event>
 7    1  0.6145388E-006  0.1932992E+03  0.7561462E-02  0.1155519E+00
          2   -1    0    0  501    0  0.00000000000E+00  0.00000000000E+00  0.13212619627E+03  0.13212619627E+03  0.00000000000E+00 0. -1.
         -2   -1    0    0    0  501 -0.00000000000E+00 -0.00000000000E+00 -0.34788173066E+03  0.34788173066E+03  0.00000000000E+00 0.  1.
         23    2    1    2    0    0  0.14876296769E+03  0.10602302268E+03 -0.73526244980E+02  0.21686182019E+03  0.90838529630E+02 0.  0.
          5    1    1    2  502    0 -0.73293354037E+02 -0.67647123919E+02 -0.14762006035E+03  0.17820550984E+03  0.41800000000E+01 0. -1.
         -5    1    1    2    0  502 -0.75469613649E+02 -0.38375898756E+02  0.53907709411E+01  0.84940596895E+02  0.41800000000E+01 0. -1.
        -11    1    3    3    0    0  0.53604013751E+01  0.46382737388E+02 -0.45143776162E+01  0.46909187115E+02  0.00000000000E+00 0.  1.
         11    1    3    3    0    0  0.14340256631E+03  0.59640285287E+02 -0.69011867364E+02  0.16995263308E+03  0.00000000000E+00 0. -1.
</event>
<event>
 7    1  0.6145388E-006  0.1408742E+03  0.7561462E-02  0.1212157E+00
         -1   -1    0    0    0  501 -0.00000000000E+00  0.00000000000E+00  0.35325272644E+02  0.35325272644E+02  0.00000000000E+00 0.  1.
          1   -1    0    0  501    0  0.00000000000E+00 -0.00000000000E+00 -0.87988104042E+03  0.87988104042E+03  0.00000000000E+00 0. -1.
         23    2    1    2    0    0 -0.13179281161E+03 -0.37912420788E+02 -0.45296328874E+03  0.48184905350E+03  0.90532163183E+02 0.  0.
          5    1    1    2  502    0  0.80593374221E+02  0.36533690456E+02 -0.85966450060E+02  0.12344110111E+03  0.41800000000E+01 0. -1.
         -5    1    1    2    0  502  0.51199437386E+02  0.13787303314E+01 -0.30562602897E+03  0.30991615845E+03  0.41800000000E+01 0. -1.
        -11    1    3    3    0    0 -0.44456223327E+02 -0.30933265362E+02 -0.30595988828E+03  0.31071639148E+03  0.00000000000E+00 0.  1.
         11    1    3    3    0    0 -0.87336588280E+02 -0.69791554257E+01 -0.14700340046E+03  0.17113266202E+03  0.00000000000E+00 0. -1.
</event>
<event>
 7    1  0.6145388E-006  0.1025932E+03  0.7561462E-02  0.1274935E+00
          3   -1    0    0  501    0  0.00000000000E+00  0.00000000000E+00  0.62149994841E+02  0.62149994841E+02  0.00000000000E+00 0. -1.
         -3   -1    0    0    0  501 -0.00000000000E+00 -0.00000000000E+00 -0.28427144959E+03  0.28427144959E+03  0.00000000000E+00 0.  1.
         23    2    1    2    0    0 -0.44620136676E+02  0.50441457784E+02 -0.52055868522E+02  0.12482505809E+03  0.91302707629E+02 0.  0.
          5    1    1    2  502    0  0.36634660315E+02 -0.89026382693E+02 -0.88135141819E+02  0.13058740665E+03  0.41800000000E+01 0. -1.
         -5    1    1    2    0  502  0.79854763611E+01  0.38584924909E+02 -0.81930444403E+02  0.91008979684E+02  0.41800000000E+01 0. -1.
        -11    1    3    3    0    0 -0.31594707389E+02  0.45232262565E+02  0.14304369766E+02  0.56998228974E+02  0.00000000000E+00 0. -1.
         11    1    3    3    0    0 -0.13025429288E+02  0.52091952188E+01 -0.66360238288E+02  0.67826829121E+02  0.00000000000E+00 0.  1.
</event>
<event>
 7    1  0.6145388E-006  0.9997178E+02  0.7561462E-02  0.1280355E+00
         -2   -1    0    0    0  501 -0.00000000000E+00  0.00000000000E+00  0.27085766450E+03  0.27085766450E+03  0.00000000000E+00 0.  1.
          2   -1    0    0  501    0  0.00000000000E+00 -0.00000000000E+00 -0.65984110023E+02  0.65984110023E+02  0.00000000000E+00 0. -1.
         23    2    1    2    0    0 -0.17759461710E+02  0.24950135336E+02  0.18010662920E+01  0.96373285666E+02  0.91360049347E+02 0.  0.
          5    1    1    2  502    0 -0.38868784546E+01  0.44309065804E+02  0.12974959290E+03  0.13722547284E+03  0.41800000000E+01 0. -1.
         -5    1    1    2    0  502  0.21646340164E+02 -0.69259201140E+02  0.73322895285E+02  0.10324301603E+03  0.41800000000E+01 0. -1.
        -11    1    3    3    0    0  0.34695356236E+01  0.49789281338E+02  0.25463360006E+02  0.56030285707E+02  0.00000000000E+00 0.  1.
         11    1    3    3    0    0 -0.21228997334E+02 -0.24839146002E+02 -0.23662293714E+02  0.40342999959E+02  0.00000000000E+00 0. -1.
</event>
<event>
 7    1  0.6145388E-006  0.1182499E+03  0.7561462E-02  0.1246012E+00
         -2   -1    0    0    0  501 -0.00000000000E+00  0.00000000000E+00  0.30885583893E+03  0.30885583893E+03  0.00000000000E+00 0.  1.
          2   -1    0    0  501    0  0.00000000000E+00 -0.00000000000E+00 -0.96750815801E+02  0.96750815801E+02  0.00000000000E+00 0. -1.
         23    2    1    2    0    0  0.76903179648E+02 -0.43670821190E+01 -0.30328999783E+02  0.12213713512E+03  0.89802344631E+02 0.  0.
          5    1    1    2  502    0 -0.50736589352E+02 -0.41691760873E+02  0.21255596308E+03  0.22250823415E+03  0.41800000000E+01 0.  1.
         -5    1    1    2    0  502 -0.26166590296E+02  0.46058842992E+02  0.29878059829E+02  0.60961285457E+02  0.41800000000E+01 0.  1.
        -11    1    3    3    0    0  0.76018420588E+02  0.31062552959E+02 -0.27422078096E+02  0.86577438355E+02  0.00000000000E+00 0. -1.
         11    1    3    3    0    0  0.88475905967E+00 -0.35429635077E+02 -0.29069216872E+01  0.35559696765E+02  0.00000000000E+00 0.  1.
</event>
<event>
 7    1  0.6145388E-006  0.1079843E+03  0.7561462E-02  0.1264349E+00
         -2   -1    0    0    0  501 -0.00000000000E+00  0.00000000000E+00  0.40349258857E+02  0.40349258857E+02  0.00000000000E+00 0.  1.
          2   -1    0    0  501    0  0.00000000000E+00 -0.00000000000E+00 -0.33098355536E+03  0.33098355536E+03  0.00000000000E+00 0. -1.
         23    2    1    2    0    0 -0.32897382125E+02 -0.95544470630E+01 -0.16459170868E+03  0.19047998606E+03  0.89547022930E+02 0.  0.
          5    1    1    2  502    0  0.27926245965E+02 -0.51527129061E+02 -0.95805377336E+02  0.11238800189E+03  0.41800000000E+01 0. -1.
         -5    1    1    2    0  502  0.49711361602E+01  0.61081576124E+02 -0.30237210487E+02  0.68464826259E+02  0.41800000000E+01 0. -1.
        -11    1    3    3    0    0 -0.62056814882E+02  0.66735454063E+01 -0.11114205831E+03  0.12746819841E+03  0.00000000000E+00 0.  1.
         11    1    3    3    0    0  0.29159432756E+02 -0.16227992469E+02 -0.53449650369E+02  0.63011787650E+02  0.00000000000E+00 0. -1.
</event>
<event>
 7    1  0.6145388E-006  0.8758062E+02  0.7561462E-02  0.1308819E+00
          2   -1    0    0  501    0  0.00000000000E+00  0.00000000000E+00  0.36803559011E+03  0.36803559011E+03  0.00000000000E+00 0. -1.
         -2   -1    0    0    0  501 -0.00000000000E+00 -0.00000000000E+00 -0.41533732076E+02  0.41533732076E+02  0.00000000000E+00 0.  1.
         23    2    1    2    0    0  0.58206931251E+02  0.75203336992E+01  0.14645202016E+03  0.18261128283E+03  0.91946093694E+02 0.  0.
          5    1    1    2  502    0  0.11911226631E+02 -0.15162406594E+01  0.14964175072E+03  0.15018089847E+03  0.41800000000E+01 0.  1.
         -5    1    1    2    0  502 -0.70118157883E+02 -0.60040930398E+01  0.30408087158E+02  0.76777140887E+02  0.41800000000E+01 0.  1.
        -11    1    3    3    0    0  0.40794902968E+02 -0.29964316154E+02  0.29535012430E+02  0.58603765323E+02  0.00000000000E+00 0.  1.
         11    1    3    3    0    0  0.17412028283E+02  0.37484649853E+02  0.11691700773E+03  0.12400751751E+03  0.00000000000E+00 0. -1.
</event>
<event>
 7    1  0.6145388E-006  0.9182840E+02  0.7561462E-02  0.1298483E+00
          2   -1    0    0  501    0  0.00000000000E+00  0.00000000000E+00  0.43308304993E+03  0.43308304993E+03  0.00000000000E+00 0. -1.
         -2   -1    0    0    0  501 -0.00000000000E+00 -0.00000000000E+00 -0.38223023823E+02  0.38223023823E+02  0.00000000000E+00 0.  1.
         23    2    1    2    0    0 -0.50605936509E+02 -0.45329737705E+02  0.17970943631E+03  0.21332677184E+03  0.92720462436E+02 0.  0.
          5    1    1    2  502    0  0.37231417683E+02  0.35447698304E+02  0.22974458532E+03  0.23546287321E+03  0.41800000000E+01 0.  1.
         -5    1    1    2    0  502  0.13374518826E+02  0.98820394007E+01 -0.14593995517E+02  0.22516428707E+02  0.41800000000E+01 0.  1.
        -11    1    3    3    0    0 -0.70179562112E+02 -0.58480782341E+02  0.14148631475E+03  0.16841481557E+03  0.00000000000E+00 0.  1.
         11    1    3    3    0    0  0.19573625604E+02  0.13151044636E+02  0.38223121560E+02  0.44911956271E+02  0.00000000000E+00 0. -1.
</event>
<event>
 7    1  0.6145388E-006  0.9755198E+02  0.7561462E-02  0.1285530E+00
          2   -1    0    0  501    0  0.00000000000E+00  0.00000000000E+00  0.26659347825E+03  0.26659347825E+03  0.00000000000E+00 0. -1.
         -2   -1    0    0    0  501 -0.00000000000E+00 -0.00000000000E+00 -0.57473421832E+02  0.57473421832E+02  0.00000000000E+00 0.  1.
         23    2    1    2    0    0  0.53247008341E+02 -0.22413327549E+02  0.81395179815E+02  0.13618550329E+03  0.92648339761E+02 0.  0.
          5    1    1    2  502    0  0.34408018091E+02 -0.12257675570E+02  0.12233520200E+02  0.38746531920E+02  0.41800000000E+01 0. -1.
         -5    1    1    2    0  502 -0.87655026432E+02  0.34671003119E+02  0.11549135640E+03  0.14913486487E+03  0.41800000000E+01 0. -1.
        -11    1    3    3    0    0  0.60104855507E+01 -0.15012681976E+02 -0.19021791212E+02  0.24966679747E+02  0.00000000000E+00 0.  1.
         11    1    3    3    0    0  0.47236522790E+02 -0.74006455732E+01  0.10041697103E+03  0.11121882354E+03  0.00000000000E+00 0. -1.
</event>
<event>
 7    1  0.6145388E-006  0.8287217E+02  0.7561462E-02  0.1321093E+00
         -4   -1    0    0    0  501 -0.00000000000E+00  0.00000000000E+00  0.39920269858E+02  0.39920269858E+02  0.00000000000E+00 0.  1.
          4   -1    0    0  501    0  0.00000000000E+00 -0.00000000000E+00 -0.36514503009E+03  0.36514503009E+03  0.00000000000E+00 0. -1.
         23    2    1    2    0    0  0.53315295753E+02 -0.46809965930E+01 -0.13376907712E+03  0.17018443582E+03  0.90576728305E+02 0.  0.
          5    1    1    2  502    0 -0.63417350592E+02 -0.91036356893E+01 -0.27269657872E+02  0.69754879251E+02  0.41800000000E+01 0.  1.
         -5    1    1    2    0  502  0.10102054839E+02  0.13784632282E+02 -0.16418602524E+03  0.16512598488E+03  0.41800000000E+01 0.  1.
        -11    1    3    3    0    0  0.39802025425E+01 -0.28770637309E+02 -0.40504772641E+01  0.29325721636E+02  0.00000000000E+00 0.  1.
         11    1    3    3    0    0  0.49335093210E+02  0.24089640716E+02 -0.12971859986E+03  0.14085871418E+03  0.00000000000E+00 0. -1.
</event>
<event>
 7    1  0.6145388E-006  0.1115484E+03  0.7561462E-02  0.1257729E+00
         -1   -1    0    0    0  501 -0.00000000000E+00  0.00000000000E+00  0.31831372501E+03  0.31831372501E+03  0.00000000000E+00 0.  1.
          1   -1    0    0  501    0  0.00000000000E+00 -0.00000000000E+00 -0.20427509671E+03  0.20427509671E+03  0.00000000000E+00 0. -1.
         23    2    1    2    0    0  0.53432789597E+02  0.20544437311E+02 -0.17245207022E+03  0.20361194925E+03  0.91874765005E+02 0.  0.
          5    1    1    2  502    0  0.40132255826E+02  0.49217618160E+01  0.59007866440E+02  0.71653488393E+02  0.41800000000E+01 0. -1.
         -5    1    1    2    0  502 -0.93565045423E+02 -0.25466199127E+02  0.22748283208E+03  0.24732338408E+03  0.41800000000E+01 0.  1.
        -11    1    3    3    0    0  0.63718658313E+02  0.30880824700E+02 -0.17502428623E+03  0.18880464380E+03  0.00000000000E+00 0. -1.
         11    1    3    3    0    0 -0.10285868716E+02 -0.10336387390E+02  0.25722160039E+01  0.14807305450E+02  0.00000000000E+00 0.  1.
</event>
<event>
 7    1  0.6145388E-006  0.9996524E+02  0.7561462E-02  0.1280369E+00
          1   -1    0    0  501    0  0.00000000000E+00  0.00000000000E+00  0.22532698899E+03  0.22532698899E+03  0.00000000000E+00 0. -1.
         -1   -1    0    0    0  501 -0.00000000000E+00 -0.00000000000E+00 -0.65789058897E+02  0.65789058897E+02  0.00000000000E+00 0.  1.
         23    2    1    2    0    0 -0.48361276239E+01 -0.51039086691E+02  0.10466263572E+03  0.14521595488E+03  0.86631574704E+02 0.  0.
          5    1    1    2  502    0 -0.11619606258E+01  0.75088103844E+02  0.80386382520E+02  0.11008640418E+03  0.41800000000E+01 0. -1.
         -5    1    1    2    0  502  0.59980882497E+01 -0.24049017152E+02 -0.25511088146E+02  0.35813688822E+02  0.41800000000E+01 0. -1.
        -11    1    3    3    0    0 -0.43685934920E+01  0.24073851801E+02  0.35466615588E+02  0.43087304057E+02  0.00000000000E+00 0. -1.
         11    1    3    3    0    0 -0.46753413197E+00 -0.75112938493E+02  0.69196020133E+02  0.10212865083E+03  0.00000000000E+00 0.  1.
</event>
<event>
 7    1  0.6145388E-006  0.1050953E+03  0.7561462E-02  0.1269932E+00
         -2   -1    0    0    0  501 -0.00000000000E+00  0.00000000000E+00  0.36190986935E+02  0.36190986935E+02  0.00000000000E+00 0.  1.
          2   -1    0    0  501    0  0.00000000000E+00 -0.00000000000E+00 -0.60094573043E+03  0.60094573043E+03  0.00000000000E+00 0. -1.
         23    2    1    2    0    0 -0.51246274362E+02 -0.69074279339E+02 -0.15352898123E+03  0.19878536005E+03  0.92450173564E+02 0.  0.
          5    1    1    2  502    0  0.24445706501E+02  0.34680025401E+02 -0.24541538351E+02  0.49194067048E+02  0.41800000000E+01 0. -1.
         -5    1    1    2    0  502  0.26800567861E+02  0.34394253938E+02 -0.38668422391E+03  0.38915729026E+03  0.41800000000E+01 0. -1.
        -11    1    3    3    0    0  0.24547108013E+02 -0.63106522277E+01 -0.17121920603E+02  0.30586680246E+02  0.00000000000E+00 0.  1.
         11    1    3    3    0    0 -0.75793382375E+02 -0.62763627111E+02 -0.13640706063E+03  0.16819867981E+03  0.00000000000E+00 0. -1.
</event>
<event>
 7    1  0.6145388E-006  0.9403237E+02  0.7561462E-02  0.1293370E+00
         -2   -1    0    0    0  501 -0.00000000000E+00  0.00000000000E+00  0.43086250668E+03  0.43086250668E+03  0.00000000000E+00 0. -1.
          2   -1    0    0  501    0  0.00000000000E+00 -0.00000000000E+00 -0.43332666503E+02  0.43332666503E+02  0.00000000000E+00 0.  1.
         23    2    1    2    0    0 -0.46647419605E+02 -0.60119876867E+02  0.10119769610E+03  0.15257202207E+03  0.85128531476E+02 0.  0.
          5    1    1    2  502    0  0.32335003259E+02  0.29476917854E+02  0.12524701072E+02  0.45703190905E+02  0.41800000000E+01 0.  1.
         -5    1    1    2    0  502  0.14312416346E+02  0.30642959013E+02  0.27380744301E+03  0.27591996022E+03  0.41800000000E+01 0.  1.
        -11    1    3    3    0    0  0.35525785325E+01 -0.59726116809E+02  0.34409862916E+02  0.69020783169E+02  0.00000000000E+00 0.  1.
         11    1    3    3    0    0 -0.50199998137E+02 -0.39376005737E+00  0.66787833183E+02  0.83551238897E+02  0.00000000000E+00 0. -1.
</event>
<event>
 7    1  0.6145388E-006  0.1010776E+03  0.7561462E-02  0.1278046E+00
         -2   -1    0    0    0  501 -0.00000000000E+00  0.00000000000E+00  0.11435538647E+03  0.11435538647E+03  0.00000000000E+00 0.  1.
          2   -1    0    0  501    0  0.00000000000E+00 -0.00000000000E+00 -0.12578821310E+03  0.12578821310E+03  0.00000000000E+00 0. -1.
         23    2    1    2    0    0  0.47364378609E+02 -0.28096807899E+02 -0.95983137079E+01  0.10345382828E+03  0.87050284225E+02 0.  0.
          5    1    1    2  502    0 -0.64721506268E+02 -0.54148761684E+01  0.42948666571E+02  0.77975987443E+02  0.41800000000E+01 0.  1.
         -5    1    1    2    0  502  0.17357127659E+02  0.33511684067E+02 -0.44783179491E+02  0.58713783858E+02  0.41800000000E+01 0.  1.
        -11    1    3    3    0    0  0.15760730424E+02  0.29476453749E+02  0.10044925411E+02  0.34902184396E+02  0.00000000000E+00 0.  1.
         11    1    3    3    0    0  0.31603648185E+02 -0.57573261648E+02 -0.19643239119E+02  0.68551643879E+02  0.00000000000E+00 0. -1.
</event>
<event>
 7    1  0.6145388E-006  0.8268128E+02  0.7561462E-02  0.1321610E+00
          2   -1    0    0  501    0  0.00000000000E+00  0.00000000000E+00  0.11893894597E+03  0.11893894597E+03  0.00000000000E+00 0. -1.
         -2   -1    0    0    0  501 -0.00000000000E+00 -0.00000000000E+00 -0.14188820924E+03  0.14188820924E+03  0.00000000000E+00 0.  1.
         23    2    1    2    0    0  0.28255616249E+02 -0.36591123041E+02  0.44616838659E+02  0.11132800450E+03  0.90917391950E+02 0.  0.
          5    1    1    2  502    0  0.75241968839E+01 -0.17960012916E+02 -0.80442383167E+02  0.82871134977E+02  0.41800000000E+01 0.  1.
         -5    1    1    2    0  502 -0.35779813133E+02  0.54551135957E+02  0.12876281247E+02  0.66628015735E+02  0.41800000000E+01 0.  1.
        -11    1    3    3    0    0 -0.20606193808E+02 -0.31034302827E+01 -0.16226801033E+02  0.26411277412E+02  0.00000000000E+00 0.  1.
         11    1    3    3    0    0  0.48861810057E+02 -0.33487692758E+02  0.60843639691E+02  0.84916727087E+02  0.00000000000E+00 0. -1.
</event>
<event>
 7    1  0.6145388E-006  0.1377114E+03  0.7561462E-02  0.1216442E+00
         -1   -1    0    0    0  501 -0.00000000000E+00  0.00000000000E+00  0.40447207284E+02  0.40447207284E+02  0.00000000000E+00 0.  1.
          1   -1    0    0  501    0  0.00000000000E+00 -0.00000000000E+00 -0.68345388437E+03  0.68345388437E+03  0.00000000000E+00 0. -1.
         23    2    1    2    0    0  0.16171422196E+02 -0.83772054294E+02 -0.50130317531E+03  0.51651791698E+03  0.90590358262E+02 0.  0.
          5    1    1    2  502    0  0.54494193004E+02  0.28847970044E+02 -0.59561143858E+02  0.85830208578E+02  0.41800000000E+01 0.  1.
         -5    1    1    2    0  502 -0.70665615200E+02  0.54924084250E+02 -0.82142357918E+02  0.12155296610E+03  0.41800000000E+01 0.  1.
        -11    1    3    3    0    0 -0.32927432691E+02 -0.62236975746E+02 -0.26342094651E+03  0.27266875881E+03  0.00000000000E+00 0. -1.
         11    1    3    3    0    0  0.49098854887E+02 -0.21535078548E+02 -0.23788222880E+03  0.24384915817E+03  0.00000000000E+00 0.  1.
</event>
<event>
 7    1  0.6145388E-006  0.1316205E+03  0.7561462E-02  0.1225071E+00
         -1   -1    0    0    0  501 -0.00000000000E+00  0.00000000000E+00  0.63588716773E+02  0.63588716773E+02  0.00000000000E+00 0.  1.
          1   -1    0    0  501    0  0.00000000000E+00 -0.00000000000E+00 -0.47417203904E+03  0.47417203904E+03  0.00000000000E+00 0. -1.
         23    2    1    2    0    0  0.63916900351E+01  0.46658930512E+02 -0.32788578686E+03  0.34371377376E+03  0.91717825691E+02 0.  0.
          5    1    1    2  502    0  0.77907608125E+02  0.13132744451E+01 -0.43610438166E+02  0.89390507385E+02  0.41800000000E+01 0. -1.
         -5    1    1    2    0  502 -0.84299298160E+02 -0.47972204957E+02 -0.39087097238E+02  0.10465647466E+03  0.41800000000E+01 0.  1.
        -11    1    3    3    0    0 -0.34136676497E+02  0.23568350371E+02 -0.67838636237E+02  0.79516415839E+02  0.00000000000E+00 0.  1.
         11    1    3    3    0    0  0.40528366532E+02  0.23090580141E+02 -0.26004715062E+03  0.26419735792E+03  0.00000000000E+00 0. -1.
</event>
<event>
 7    1  0.6145388E-006  0.6188518E+02  0.7561462E-02  0.1390087E+00
         -1   -1    0    0    0  501 -0.00000000000E+00  0.00000000000E+00  0.75873215791E+02  0.75873215791E+02  0.00000000000E+00 0.  1.
          1   -1    0    0  501    0  0.00000000000E+00 -0.00000000000E+00 -0.18600801794E+03  0.18600801794E+03  0.00000000000E+00 0. -1.
         23    2    1    2    0    0 -0.12955305074E+01 -0.25397359837E+02 -0.52753054583E+02  0.10740726816E+03  0.90037393337E+02 0.  0.
          5    1    1    2  502    0 -0.13113068226E+02  0.25559604727E+02 -0.10270663144E+03  0.10673036350E+03  0.41800000000E+01 0. -1.
         -5    1    1    2    0  502  0.14408598734E+02 -0.16224489003E+00  0.45324883872E+02  0.47743602073E+02  0.41800000000E+01 0.  1.
        -11    1    3    3    0    0 -0.28665316294E+02  0.13892207563E+02 -0.50203404409E+02  0.59456501776E+02  0.00000000000E+00 0.  1.
         11    1    3    3    0    0  0.27369785786E+02 -0.39289567400E+02 -0.25496501743E+01  0.47950766380E+02  0.00000000000E+00 0. -1.
</event>
<event>
 7    1  0.6145388E-006  0.2048929E+03  0.7561462E-02  0.1145675E+00
          1   -1    0    0  501    0  0.00000000000E+00  0.00000000000E+00  0.79759840493E+03  0.79759840493E+03  0.00000000000E+00 0. -1.
         -1   -1    0    0    0  501 -0.00000000000E+00 -0.00000000000E+00 -0.10849844728E+03  0.10849844728E+03  0.00000000000E+00 0.  1.
         23    2    1    2    0    0 -0.55100009983E+02 -0.11636525818E+03  0.28948308447E+03  0.32930017891E+03  0.89784560054E+02 0.  0.
          5    1    1    2  502    0  0.11110141951E+03 -0.17422013663E+02  0.41583867793E+03  0.43079731944E+03  0.41800000000E+01 0. -1.
         -5    1    1    2    0  502 -0.56001409526E+02  0.13378727184E+03 -0.16221804755E+02  0.14599935385E+03  0.41800000000E+01 0.  1.
        -11    1    3    3    0    0 -0.28285219123E+02 -0.12158821836E+03  0.26360798319E+03  0.29167262002E+03  0.00000000000E+00 0.  1.
         11    1    3    3    0    0 -0.26814790860E+02  0.52229601851E+01  0.25875101280E+02  0.37627558893E+02  0.00000000000E+00 0. -1.
</event>
<event>
 7    1  0.6145388E-006  0.8202686E+02  0.7561462E-02  0.1323396E+00
         -2   -1    0    0    0  501 -0.00000000000E+00  0.00000000000E+00  0.92037170488E+02  0.92037170488E+02  0.00000000000E+00 0.  1.
          2   -1    0    0  501    0  0.00000000000E+00 -0.00000000000E+00 -0.43096995765E+03  0.43096995765E+03  0.00000000000E+00 0. -1.
         23    2    1    2    0    0 -0.10369271639E+02 -0.13655296050E+02 -0.38195711308E+03  0.39229467721E+03  0.87805971502E+02 0.  0.
          5    1    1    2  502    0 -0.30066716231E+02  0.16005059984E+02 -0.30988557143E+02  0.46237781562E+02  0.41800000000E+01 0. -1.
         -5    1    1    2    0  502  0.40435987870E+02 -0.23497639337E+01  0.74012883060E+02  0.84474669366E+02  0.41800000000E+01 0.  1.
        -11    1    3    3    0    0 -0.48592697535E+02 -0.50494967281E+00 -0.22783471257E+03  0.23295957049E+03  0.00000000000E+00 0. -1.
         11    1    3    3    0    0  0.38223425896E+02 -0.13150346377E+02 -0.15412240051E+03  0.15933510672E+03  0.00000000000E+00 0.  1.
</event>
<event>
 7    1  0.6145388E-006  0.1030667E+03  0.7561462E-02  0.1273976E+00
          1   -1    0    0  501    0  0.00000000000E+00  0.00000000000E+00  0.40569029664E+02  0.40569029664E+02  0.00000000000E+00 0. -1.
         -1   -1    0    0    0  501 -0.00000000000E+00 -0.00000000000E+00 -0.28896023904E+03  0.28896023904E+03  0.00000000000E+00 0.  1.
         23    2    1    2    0    0  0.81383331254E+00 -0.14022224956E+02 -0.57351384438E+02  0.99604443703E+02  0.80215826313E+02 0.  0.
          5    1    1    2  502    0  0.40009905315E+02 -0.40279497986E+02 -0.62941784760E+02  0.84866784728E+02  0.41800000000E+01 0. -1.
         -5    1    1    2    0  502 -0.40823738628E+02  0.54301722942E+02 -0.12809804018E+03  0.14505804027E+03  0.41800000000E+01 0.  1.
        -11    1    3    3    0    0 -0.37172188802E+02  0.68519106232E+01 -0.30950091758E+02  0.48853131726E+02  0.00000000000E+00 0.  1.
         11    1    3    3    0    0  0.37986022115E+02 -0.20874135579E+02 -0.26401292679E+02  0.50751311978E+02  0.00000000000E+00 0. -1.
</event>
<event>
 7    1  0.6145388E-006  0.1713587E+03  0.7561462E-02  0.1176438E+00
         -3   -1    0    0    0  501 -0.00000000000E+00  0.00000000000E+00  0.14107753735E+03  0.14107753735E+03  0.00000000000E+00 0.  1.
          3   -1    0    0  501    0  0.00000000000E+00 -0.00000000000E+00 -0.28730962035E+03  0.28730962035E+03  0.00000000000E+00 0. -1.
         23    2    1    2    0    0  0.16857241181E+03 -0.14858597370E+02 -0.74799709129E+02  0.20650823189E+03  0.91723592450E+02 0.  0.
          5    1    1    2  502    0 -0.11886591785E+03 -0.27541610309E+01 -0.10545636949E+03  0.15898179171E+03  0.41800000000E+01 0. -1.
         -5    1    1    2    0  502 -0.49706493960E+02  0.17612758401E+02  0.34023995618E+02  0.62897134101E+02  0.41800000000E+01 0.  1.
        -11    1    3    3    0    0  0.39191634817E+02  0.64608271821E+01  0.20223013272E+02  0.44572377021E+02  0.00000000000E+00 0. -1.
         11    1    3    3    0    0  0.12938077700E+03 -0.21319424552E+02 -0.95022722401E+02  0.16193585487E+03  0.00000000000E+00 0.  1.
</event>
<event>
 7    1  0.6145388E-006  0.1513980E+03  0.7561462E-02  0.1198766E+00
         -1   -1    0    0    0  501 -0.00000000000E+00  0.00000000000E+00  0.12392974452E+03  0.12392974452E+03  0.00000000000E+00 0.  1.
          1   -1    0    0  501    0  0.00000000000E+00 -0.00000000000E+00 -0.21946644039E+03  0.21946644039E+03  0.00000000000E+00 0. -1.
         23    2    1    2    0    0 -0.11333220390E+03 -0.40431796722E+02 -0.78105797644E+02  0.16895638988E+03  0.89257086154E+02 0.  0.
          5    1    1    2  502    0  0.21789559003E+02  0.69976493687E+02 -0.25757838860E+02  0.77797385643E+02  0.41800000000E+01 0.  1.
         -5    1    1    2    0  502  0.91542644896E+02 -0.29544696964E+02  0.83269406335E+01  0.96642409395E+02  0.41800000000E+01 0.  1.
        -11    1    3    3    0    0 -0.32442052151E+02 -0.40909559385E+02 -0.70470870941E+02  0.87705315962E+02  0.00000000000E+00 0. -1.
         11    1    3    3    0    0 -0.80890151748E+02  0.47776266255E+00 -0.76349267028E+01  0.81251073917E+02  0.00000000000E+00 0.  1.
</event>
<event>
 7    1  0.6145388E-006  0.7646289E+02  0.7561462E-02  0.1339400E+00
         -1   -1    0    0    0  501 -0.00000000000E+00  0.00000000000E+00  0.17319241606E+03  0.17319241606E+03  0.00000000000E+00 0.  1.
          1   -1    0    0  501    0  0.00000000000E+00 -0.00000000000E+00 -0.78142632968E+02  0.78142632968E+02  0.00000000000E+00 0. -1.
         23    2    1    2    0    0 -0.25089303513E+02 -0.19547705497E+02  0.74834684522E+01  0.95356630901E+02  0.89584032148E+02 0.  0.
          5    1    1    2  502    0 -0.22914187739E+02  0.20281707169E+02  0.10127183291E+03  0.10587664609E+03  0.41800000000E+01 0. -1.
         -5    1    1    2    0  502  0.48003491252E+02 -0.73400167250E+00 -0.13705518268E+02  0.50101772043E+02  0.41800000000E+01 0. -1.
        -11    1    3    3    0    0 -0.11745811902E+02 -0.44245608165E+02  0.33779664793E+02  0.56892035407E+02  0.00000000000E+00 0. -1.
         11    1    3    3    0    0 -0.13343491611E+02  0.24697902668E+02 -0.26296196341E+02  0.38464595495E+02  0.00000000000E+00 0.  1.
</event>
<event>
 7    1  0.6145388E-006  0.1333317E+03  0.7561462E-02  0.1222594E+00
          4   -1    0    0  501    0  0.00000000000E+00  0.00000000000E+00  0.11167864948E+03  0.11167864948E+03  0.00000000000E+00 0. -1.
         -4   -1    0    0    0  501 -0.00000000000E+00 -0.00000000000E+00 -0.33206403891E+03  0.33206403891E+03  0.00000000000E+00 0.  1.
         23    2    1    2    0    0 -0.10501789222E+02 -0.11480071296E+03  0.20793827622E+02  0.14860607203E+03  0.91443371030E+02 0.  0.
          5    1    1    2  502    0  0.52984797102E+02  0.65403634983E+02 -0.20229446164E+03  0.21914731530E+03  0.41800000000E+01 0. -1.
         -5    1    1    2    0  502 -0.42483007881E+02  0.49397077977E+02 -0.38884755416E+02  0.75989301057E+02  0.41800000000E+01 0. -1.
        -11    1    3    3    0    0 -0.13671195972E+02 -0.40754258406E+02 -0.35327969106E+02  0.55640601890E+02  0.00000000000E+00 0.  1.
         11    1    3    3    0    0  0.31694067504E+01 -0.74046454554E+02  0.56121796728E+02  0.92965470145E+02  0.00000000000E+00 0. -1.
</event>
<event>
 7    1  0.8296351E-006  0.2467408E+03  0.7561462E-02  0.1115382E+00
         -2   -1    0    0    0  501 -0.00000000000E+00  0.00000000000E+00  0.58034153653E+02  0.58034153653E+02  0.00000000000E+00 0.  1.
          2   -1    0    0  501    0  0.00000000000E+00 -0.00000000000E+00 -0.13000362221E+04  0.13000362221E+04  0.00000000000E+00 0. -1.
         23    2    1    2    0    0  0.72847951927E+01  0.22748342278E+03 -0.87158185274E+03  0.90567653020E+03  0.93772466404E+02 0.  0.
          5    1    1    2  502    0 -0.52117049184E+02 -0.96239518393E+02 -0.23123372616E+03  0.25586078291E+03  0.41800000000E+01 0. -1.
         -5    1    1    2    0  502  0.44832253991E+02 -0.13124390439E+03 -0.13918648953E+03  0.19653306263E+03  0.41800000000E+01 0. -1.
        -11    1    3    3    0    0  0.37672728692E+02  0.38767243674E+02 -0.22716426006E+03  0.23350746180E+03  0.00000000000E+00 0. -1.
         11    1    3    3    0    0 -0.30387933500E+02  0.18871617911E+03 -0.64441759268E+03  0.67216906840E+03  0.00000000000E+00 0.  1.
</event>
<event>
 7    1  0.6145388E-006  0.2544524E+03  0.7561462E-02  0.1110523E+00
         -2   -1    0    0    0  501 -0.00000000000E+00  0.00000000000E+00  0.24110530600E+03  0.24110530600E+03  0.00000000000E+00 0.  1.
          2   -1    0    0  501    0  0.00000000000E+00 -0.00000000000E+00 -0.73748060314E+03  0.73748060314E+03  0.00000000000E+00 0. -1.
         23    2    1    2    0    0 -0.37259684767E+02 -0.22781271924E+03 -0.63522702419E+03  0.68157639631E+03  0.88011888858E+02 0.  0.
          5    1    1    2  502    0 -0.24975112546E+02 -0.46774302284E+00  0.78209698554E+01  0.26506885892E+02  0.41800000000E+01 0.  1.
         -5    1    1    2    0  502  0.62234797313E+02  0.22828046226E+03  0.13103075720E+03  0.27050262694E+03  0.41800000000E+01 0.  1.
        -11    1    3    3    0    0 -0.24031935971E+02 -0.23185538817E+03 -0.59449229675E+03  0.63855739434E+03  0.00000000000E+00 0.  1.
         11    1    3    3    0    0 -0.13227748796E+02  0.40426689326E+01 -0.40734727445E+02  0.43019001968E+02  0.00000000000E+00 0. -1.
</event>
<event>
 7    1  0.6145388E-006  0.9884540E+02  0.7561462E-02  0.1282743E+00
         -3   -1    0    0    0  501 -0.00000000000E+00  0.00000000000E+00  0.84946430203E+03  0.84946430203E+03  0.00000000000E+00 0.  1.
          3   -1    0    0  501    0  0.00000000000E+00 -0.00000000000E+00 -0.40328242271E+02  0.40328242271E+02  0.00000000000E+00 0. -1.
         23    2    1    2    0    0  0.88409025311E+01 -0.36515258342E+02  0.36719240563E+02  0.10641070936E+03  0.92538698873E+02 0.  0.
          5    1    1    2  502    0 -0.34913670959E+02 -0.37721535400E+02  0.32952506536E+03  0.33353578482E+03  0.41800000000E+01 0.  1.
         -5    1    1    2    0  502  0.26072768428E+02  0.74236793742E+02  0.44289175384E+03  0.44984605013E+03  0.41800000000E+01 0.  1.
        -11    1    3    3    0    0 -0.23782384063E+02 -0.17919558433E+02  0.56575140055E+02  0.63933237353E+02  0.00000000000E+00 0.  1.
         11    1    3    3    0    0  0.32623286594E+02 -0.18595699909E+02 -0.19855899492E+02  0.42477472005E+02  0.00000000000E+00 0. -1.
</event>
<event>
 7    1  0.6145388E-006  0.8349151E+02  0.7561462E-02  0.1319425E+00
         -2   -1    0    0    0  501 -0.00000000000E+00  0.00000000000E+00  0.96060748698E+02  0.96060748698E+02  0.00000000000E+00 0. -1.
          2   -1    0    0  501    0  0.00000000000E+00 -0.00000000000E+00 -0.12875339099E+03  0.12875339099E+03  0.00000000000E+00 0.  1.
         23    2    1    2    0    0 -0.21696695388E+02 -0.56478802838E+01 -0.53193639733E+01  0.94812513283E+02  0.91969951068E+02 0.  0.
          5    1    1    2  502    0 -0.34045419071E+02 -0.39613404673E+02  0.16873711293E+01  0.52427397521E+02  0.41800000000E+01 0.  1.
         -5    1    1    2    0  502  0.55742114459E+02  0.45261284957E+02 -0.29060649446E+02  0.77574228881E+02  0.41800000000E+01 0.  1.
        -11    1    3    3    0    0 -0.31019171914E+02 -0.96885982657E+01 -0.44067704296E+02  0.54754182712E+02  0.00000000000E+00 0.  1.
         11    1    3    3    0    0  0.93224765264E+01  0.40407179819E+01  0.38748340322E+02  0.40058330571E+02  0.00000000000E+00 0. -1.
</event>
<event>
 7    1  0.6145388E-006  0.1327700E+03  0.7561462E-02  0.1223403E+00
          2   -1    0    0  501    0  0.00000000000E+00  0.00000000000E+00  0.65740267051E+03  0.65740267051E+03  0.00000000000E+00 0. -1.
         -2   -1    0    0    0  501 -0.00000000000E+00 -0.00000000000E+00 -0.30873155489E+02  0.30873155489E+02  0.00000000000E+00 0.  1.
         23    2    1    2    0    0 -0.92048974671E+02  0.81954755511E+01  0.24253892049E+03  0.27398484237E+03  0.87763240232E+02 0.  0.
          5    1    1    2  502    0  0.10409336024E+03  0.35200785069E+02  0.25944023758E+03  0.28178224250E+03  0.41800000000E+01 0. -1.
         -5    1    1    2    0  502 -0.12044385564E+02 -0.43396260620E+02  0.12455035695E+03  0.13250874113E+03  0.41800000000E+01 0. -1.
        -11    1    3    3    0    0 -0.43742091644E+02 -0.26251879220E+02  0.46020279948E+02  0.68705151994E+02  0.00000000000E+00 0.  1.
         11    1    3    3    0    0 -0.48306883027E+02  0.34447354771E+02  0.19651864054E+03  0.20527969037E+03  0.00000000000E+00 0. -1.
</event>
<event>
 7    1  0.6145388E-006  0.2747238E+03  0.7561462E-02  0.1098606E+00
         -1   -1    0    0    0  501 -0.00000000000E+00  0.00000000000E+00  0.10878280447E+03  0.10878280447E+03  0.00000000000E+00 0.  1.
          1   -1    0    0  501    0  0.00000000000E+00 -0.00000000000E+00 -0.10334834517E+04  0.10334834517E+04  0.00000000000E+00 0. -1.
         23    2    1    2    0    0 -0.21477513227E+03 -0.14515029241E+03 -0.76521886683E+03  0.81320872665E+03  0.92474613374E+02 0.  0.
          5    1    1    2  502    0  0.21245257474E+03  0.16395984693E+03 -0.14766807742E+03  0.30633684304E+03  0.41800000000E+01 0.  1.
         -5    1    1    2    0  502  0.23225575297E+01 -0.18809554521E+02 -0.11813702957E+02  0.22720686441E+02  0.41800000000E+01 0.  1.
        -11    1    3    3    0    0 -0.58366362045E+02 -0.21277085246E+02 -0.31033410110E+03  0.31649107551E+03  0.00000000000E+00 0. -1.
         11    1    3    3    0    0 -0.15640877022E+03 -0.12387320717E+03 -0.45488476573E+03  0.49671765113E+03  0.00000000000E+00 0.  1.
</event>
<event>
 7    1  0.6145388E-006  0.2836327E+03  0.7561462E-02  0.1093721E+00
          2   -1    0    0  501    0  0.00000000000E+00  0.00000000000E+00  0.56745941711E+03  0.56745941711E+03  0.00000000000E+00 0. -1.
         -2   -1    0    0    0  501 -0.00000000000E+00 -0.00000000000E+00 -0.16907962995E+03  0.16907962995E+03  0.00000000000E+00 0.  1.
         23    2    1    2    0    0  0.16196999826E+03  0.22011131484E+03  0.30955830309E+03  0.42313855191E+03  0.92393830122E+02 0.  0.
          5    1    1    2  502    0 -0.94686506350E+02 -0.75536151526E+02 -0.16402732865E+02  0.12230194895E+03  0.41800000000E+01 0. -1.
         -5    1    1    2    0  502 -0.67283491911E+02 -0.14457516331E+03  0.10522421693E+03  0.19109854620E+03  0.41800000000E+01 0. -1.
        -11    1    3    3    0    0 -0.73567763134E+01  0.34625160998E+02  0.23576882921E+02  0.42531086750E+02  0.00000000000E+00 0.  1.
         11    1    3    3    0    0  0.16932677457E+03  0.18548615384E+03  0.28598142017E+03  0.38060746516E+03  0.00000000000E+00 0. -1.
</event>
<event>
 7    1  0.6145388E-006  0.1281758E+03  0.7561462E-02  0.1230188E+00
          3   -1    0    0  501    0  0.00000000000E+00  0.00000000000E+00  0.14013751920E+03  0.14013751920E+03  0.00000000000E+00 0. -1.
         -3   -1    0    0    0  501 -0.00000000000E+00 -0.00000000000E+00 -0.16966215214E+03  0.16966215214E+03  0.00000000000E+00 0.  1.
         23    2    1    2    0    0  0.26902434291E+02  0.97961913443E+02  0.26197005978E+02  0.13928485746E+03  0.91617197832E+02 0.  0.
          5    1    1    2  502    0  0.23419096616E+02 -0.71132469094E+02 -0.78857760014E+02  0.10883152558E+03  0.41800000000E+01 0.  1.
         -5    1    1    2    0  502 -0.50321530907E+02 -0.26829444348E+02  0.23136121087E+02  0.61683288302E+02  0.41800000000E+01 0.  1.
        -11    1    3    3    0    0 -0.23871797913E+02  0.44092766909E+02 -0.17758289159E+02  0.53192026312E+02  0.00000000000E+00 0. -1.
         11    1    3    3    0    0  0.50774232204E+02  0.53869146534E+02  0.43955295137E+02  0.86092831146E+02  0.00000000000E+00 0.  1.
</event>
<event>
 7    1  0.6145388E-006  0.9854867E+02  0.7561462E-02  0.1283378E+00
         -2   -1    0    0    0  501 -0.00000000000E+00  0.00000000000E+00  0.40359234027E+02  0.40359234027E+02  0.00000000000E+00 0.  1.
          2   -1    0    0  501    0  0.00000000000E+00 -0.00000000000E+00 -0.40539108494E+03  0.40539108494E+03  0.00000000000E+00 0. -1.
         23    2    1    2    0    0  0.17083169848E+02  0.54419656422E+02 -0.19328329298E+03  0.22575496176E+03  0.10175233519E+03 0.  0.
          5    1    1    2  502    0 -0.56561007620E+02 -0.73973086076E+02 -0.11786968349E+03  0.15027275113E+03  0.41800000000E+01 0.  1.
         -5    1    1    2    0  502  0.39477837772E+02  0.19553429654E+02 -0.53878874439E+02  0.69722606070E+02  0.41800000000E+01 0.  1.
        -11    1    3    3    0    0  0.26384219165E+01  0.36590320852E+02 -0.19879855720E+03  0.20215508699E+03  0.00000000000E+00 0. -1.
         11    1    3    3    0    0  0.14444747932E+02  0.17829335571E+02  0.55152642239E+01  0.23599874770E+02  0.00000000000E+00 0.  1.
</event>
<event>
 7    1  0.6145388E-006  0.1042515E+03  0.7561462E-02  0.1271601E+00
          1   -1    0    0  501    0  0.00000000000E+00  0.00000000000E+00  0.53899978641E+03  0.53899978641E+03  0.00000000000E+00 0. -1.
         -1   -1    0    0    0  501 -0.00000000000E+00 -0.00000000000E+00 -0.33103543807E+02  0.33103543807E+02  0.00000000000E+00 0.  1.
         23    2    1    2    0    0  0.31593797670E+02 -0.70372127892E+02  0.19418874330E+03  0.22748847873E+03  0.89951850975E+02 0.  0.
          5    1    1    2  502    0  0.23866058448E+02 -0.10296251225E+02  0.17181914876E+03  0.17382431883E+03  0.41800000000E+01 0. -1.
         -5    1    1    2    0  502 -0.55459856118E+02  0.80668379117E+02  0.13988835054E+03  0.17079053266E+03  0.41800000000E+01 0. -1.
        -11    1    3    3    0    0  0.19675142978E+02 -0.89308946948E+01 -0.18646900467E+01  0.21687535596E+02  0.00000000000E+00 0. -1.
         11    1    3    3    0    0  0.11918654692E+02 -0.61441233197E+02  0.19605343335E+03  0.20580094313E+03  0.00000000000E+00 0.  1.
</event>
<event>
 7    1  0.6145388E-006  0.4265577E+02  0.7561462E-02  0.1489530E+00
         -2   -1    0    0    0  501 -0.00000000000E+00  0.00000000000E+00  0.75144694315E+02  0.75144694315E+02  0.00000000000E+00 0.  1.
          2   -1    0    0  501    0  0.00000000000E+00 -0.00000000000E+00 -0.22958604296E+03  0.22958604296E+03  0.00000000000E+00 0. -1.
         23    2    1    2    0    0 -0.22448388285E+01 -0.31260621742E+01 -0.15407089785E+03  0.17958371722E+03  0.92182744374E+02 0.  0.
          5    1    1    2  502    0 -0.47535160098E+01 -0.13041885733E+02 -0.60571393499E+02  0.62282042423E+02  0.41800000000E+01 0. -1.
         -5    1    1    2    0  502  0.69983548383E+01  0.16167947907E+02  0.60200942705E+02  0.62864977631E+02  0.41800000000E+01 0. -1.
        -11    1    3    3    0    0  0.19024404382E+02  0.15419761043E+02 -0.16190996527E+01  0.24542177499E+02  0.00000000000E+00 0.  1.
         11    1    3    3    0    0 -0.21269243211E+02 -0.18545823217E+02 -0.15245179820E+03  0.15504153972E+03  0.00000000000E+00 0. -1.
</event>
<event>
 7    1  0.6145388E-006  0.1135332E+03  0.7561462E-02  0.1254163E+00
         -1   -1    0    0    0  501 -0.00000000000E+00  0.00000000000E+00  0.46544290629E+02  0.46544290629E+02  0.00000000000E+00 0.  1.
          1   -1    0    0  501    0  0.00000000000E+00 -0.00000000000E+00 -0.38347942587E+03  0.38347942587E+03  0.00000000000E+00 0. -1.
         23    2    1    2    0    0 -0.45588427314E+02 -0.55783899283E+02 -0.19740740550E+03  0.22926116296E+03  0.91656145297E+02 0.  0.
          5    1    1    2  502    0 -0.31947371623E+02  0.32955146835E+02 -0.10122190617E+03  0.11122060486E+03  0.41800000000E+01 0. -1.
         -5    1    1    2    0  502  0.77535798938E+02  0.22828752449E+02 -0.38305823583E+02  0.89541948692E+02  0.41800000000E+01 0. -1.
        -11    1    3    3    0    0  0.18721780043E+02 -0.11788689500E+02 -0.64916541827E+01  0.23056882316E+02  0.00000000000E+00 0.  1.
         11    1    3    3    0    0 -0.64310207358E+02 -0.43995209783E+02 -0.19091575131E+03  0.20620428064E+03  0.00000000000E+00 0. -1.
</event>
<event>
 7    1  0.6145388E-006  0.1352764E+03  0.7561462E-02  0.1219830E+00
         -1   -1    0    0    0  501 -0.00000000000E+00  0.00000000000E+00  0.57131224083E+02  0.57131224083E+02  0.00000000000E+00 0.  1.
          1   -1    0    0  501    0  0.00000000000E+00 -0.00000000000E+00 -0.39514118931E+03  0.39514118931E+03  0.00000000000E+00 0. -1.
         23    2    1    2    0    0 -0.71215302951E+02 -0.54753372744E+02 -0.23187512186E+03  0.26524639044E+03  0.92303977695E+02 0.  0.
          5    1    1    2  502    0 -0.21022418825E+02  0.55812998647E+02 -0.56180272061E+02  0.82041015840E+02  0.41800000000E+01 0.  1.
         -5    1    1    2    0  502  0.92237721776E+02 -0.10596259031E+01 -0.49954571304E+02  0.10498500712E+03  0.41800000000E+01 0.  1.
        -11    1    3    3    0    0 -0.50618486512E+02  0.90149005008E+01 -0.15478997938E+03  0.16310560176E+03  0.00000000000E+00 0. -1.
         11    1    3    3    0    0 -0.20596816439E+02 -0.63768273245E+02 -0.77085142479E+02  0.10214078867E+03  0.00000000000E+00 0.  1.
</event>
<event>
 7    1  0.6145388E-006  0.7874735E+02  0.7561462E-02  0.1332644E+00
          1   -1    0    0  501    0  0.00000000000E+00  0.00000000000E+00  0.43443076093E+03  0.43443076093E+03  0.00000000000E+00 0. -1.
         -1   -1    0    0    0  501 -0.00000000000E+00 -0.00000000000E+00 -0.31154301402E+02  0.31154301402E+02  0.00000000000E+00 0.  1.
         23    2    1    2    0    0  0.58649354389E+01 -0.27386479913E+02  0.23231769240E+03  0.25190194076E+03  0.93266611412E+02 0.  0.
          5    1    1    2  502    0  0.26420359586E+02  0.10677196932E+02 -0.88958496209E+01  0.30143763458E+02  0.41800000000E+01 0.  1.
         -5    1    1    2    0  502 -0.32285295025E+02  0.16709282982E+02  0.17985461674E+03  0.18353935811E+03  0.41800000000E+01 0.  1.
        -11    1    3    3    0    0  0.57409323258E+01 -0.59605678927E+02  0.18659100279E+03  0.19596427630E+03  0.00000000000E+00 0. -1.
         11    1    3    3    0    0  0.12400311315E+00  0.32219199014E+02  0.45726689616E+02  0.55937664458E+02  0.00000000000E+00 0.  1.
</event>
<event>
 7    1  0.6145388E-006  0.1009970E+03  0.7561462E-02  0.1278213E+00
          1   -1    0    0  501    0  0.00000000000E+00  0.00000000000E+00  0.11866610145E+03  0.11866610145E+03  0.00000000000E+00 0. -1.
         -1   -1    0    0    0  501 -0.00000000000E+00 -0.00000000000E+00 -0.24930451736E+03  0.24930451736E+03  0.00000000000E+00 0.  1.
         23    2    1    2    0    0  0.38230200282E+02 -0.72931094344E+02  0.36107712001E+02  0.14384273334E+03  0.11227854796E+03 0.  0.
          5    1    1    2  502    0 -0.18031959515E+02  0.68876559091E+02 -0.18374034112E+03  0.19709672070E+03  0.41800000000E+01 0.  1.
         -5    1    1    2    0  502 -0.20198240767E+02  0.40545352525E+01  0.16994213207E+02  0.27031164768E+02  0.41800000000E+01 0.  1.
        -11    1    3    3    0    0 -0.11702155337E+02 -0.55569124863E+02 -0.25851861969E+02  0.62395407242E+02  0.00000000000E+00 0.  1.
         11    1    3    3    0    0  0.49932355619E+02 -0.17361969480E+02  0.61959573970E+02  0.81447326098E+02  0.00000000000E+00 0. -1.
</event>
<event>
 7    1  0.6145388E-006  0.1744748E+03  0.7561462E-02  0.1173260E+00
         -2   -1    0    0    0  501 -0.00000000000E+00  0.00000000000E+00  0.47557018834E+03  0.47557018834E+03  0.00000000000E+00 0.  1.
          2   -1    0    0  501    0  0.00000000000E+00 -0.00000000000E+00 -0.95678273291E+02  0.95678273291E+02  0.00000000000E+00 0. -1.
         23    2    1    2    0    0  0.11477100321E+03 -0.10845880802E+03  0.59307641401E+02  0.19262246439E+03  0.93007103196E+02 0.  0.
          5    1    1    2  502    0 -0.56602773692E+02  0.86466501358E+02  0.29252880894E+03  0.31027553289E+03  0.41800000000E+01 0. -1.
         -5    1    1    2    0  502 -0.58168229519E+02  0.21992306660E+02  0.28055464709E+02  0.68350464356E+02  0.41800000000E+01 0. -1.
        -11    1    3    3    0    0  0.58567977907E+02  0.27026740460E+01  0.21521162541E+02  0.62455367426E+02  0.00000000000E+00 0.  1.
         11    1    3    3    0    0  0.56203025304E+02 -0.11116148206E+03  0.37786478861E+02  0.13016709697E+03  0.00000000000E+00 0. -1.
</event>
<event>
 7    1  0.6145388E-006  0.1301135E+03  0.7561462E-02  0.1227287E+00
          1   -1    0    0  501    0  0.00000000000E+00  0.00000000000E+00  0.45643445247E+02  0.45643445247E+02  0.00000000000E+00 0. -1.
         -1   -1    0    0    0  501 -0.00000000000E+00 -0.00000000000E+00 -0.46225866540E+03  0.46225866540E+03  0.00000000000E+00 0.  1.
         23    2    1    2    0    0  0.24173371676E+02 -0.83281859089E+02 -0.12025451051E+03  0.17474015980E+03  0.92481112652E+02 0.  0.
          5    1    1    2  502    0  0.15506723889E+02 -0.19792176138E+02 -0.13620808701E+03  0.13857237852E+03  0.41800000000E+01 0. -1.
         -5    1    1    2    0  502 -0.39680095565E+02  0.10307403523E+03 -0.16015262263E+03  0.19458957232E+03  0.41800000000E+01 0. -1.
        -11    1    3    3    0    0 -0.27602634094E+02 -0.17873985212E+01 -0.42803389749E+02  0.50963029506E+02  0.00000000000E+00 0. -1.
         11    1    3    3    0    0  0.51776005770E+02 -0.81494460568E+02 -0.77451120765E+02  0.12377713030E+03  0.00000000000E+00 0.  1.
</event>
<event>
 7    1  0.6145388E-006  0.9638973E+02  0.7561462E-02  0.1288076E+00
          3   -1    0    0  501    0  0.00000000000E+00  0.00000000000E+00  0.10493303164E+03  0.10493303164E+03  0.00000000000E+00 0.  1.
         -3   -1    0    0    0  501 -0.00000000000E+00 -0.00000000000E+00 -0.16506836631E+03  0.16506836631E+03  0.00000000000E+00 0. -1.
         23    2    1    2    0    0 -0.71320853532E+02 -0.17716794252E+02 -0.18344566266E+02  0.11898406400E+03  0.91761295910E+02 0.  0.
          5    1    1    2  502    0  0.41489072458E+01 -0.18740751255E+01  0.41613274529E+02  0.42069735035E+02  0.41800000000E+01 0.  1.
         -5    1    1    2    0  502  0.67171946286E+02  0.19590869377E+02 -0.83404042935E+02  0.10894759891E+03  0.41800000000E+01 0.  1.
        -11    1    3    3    0    0 -0.32683541640E+02 -0.54246572026E+02 -0.20253715895E+01  0.63364079736E+02  0.00000000000E+00 0.  1.
         11    1    3    3    0    0 -0.38637311892E+02  0.36529777774E+02 -0.16319194677E+02  0.55619984263E+02  0.00000000000E+00 0. -1.
</event>
<event>
 7    1  0.6145388E-006  0.1014038E+03  0.7561462E-02  0.1277371E+00
          1   -1    0    0  501    0  0.00000000000E+00  0.00000000000E+00  0.30150497484E+03  0.30150497484E+03  0.00000000000E+00 0. -1.
         -1   -1    0    0    0  501 -0.00000000000E+00 -0.00000000000E+00 -0.56242370637E+02  0.56242370637E+02  0.00000000000E+00 0.  1.
         23    2    1    2    0    0 -0.21934601114E+02 -0.10568827446E+02  0.20192257840E+03  0.22314278576E+03  0.91799500704E+02 0.  0.
          5    1    1    2  502    0  0.48433051352E+01 -0.57079390995E+02  0.16891731381E+02  0.59869169612E+02  0.41800000000E+01 0.  1.
         -5    1    1    2    0  502  0.17091295979E+02  0.67648218441E+02  0.26448294423E+02  0.74735390106E+02  0.41800000000E+01 0.  1.
        -11    1    3    3    0    0 -0.26912208475E+02  0.26677656245E+02  0.16895814776E+03  0.17315547927E+03  0.00000000000E+00 0. -1.
         11    1    3    3    0    0  0.49776073604E+01 -0.37246483691E+02  0.32964430637E+02  0.49987306485E+02  0.00000000000E+00 0.  1.
</event>
<event>
 6    1  0.6145388E-006  0.7258138E+02  0.7561462E-02  0.1351529E+00
          2   -1    0    0  501    0  0.00000000000E+00  0.00000000000E+00  0.43754872104E+02  0.43754872104E+02  0.00000000000E+00 0. -1.
         -2   -1    0    0    0  501 -0.00000000000E+00 -0.00000000000E+00 -0.24590570986E+03  0.24590570986E+03  0.00000000000E+00 0.  1.
          5    1    1    2  502    0 -0.43029148202E+02  0.84930068265E+01 -0.23069977208E+02  0.49732635244E+02  0.41800000000E+01 0. -1.
         -5    1    1    2    0  502  0.51056687697E+02  0.49229776659E+01 -0.18299924814E+03  0.19009791763E+03  0.41800000000E+01 0.  1.
        -11    1    1    2    0    0  0.16666971527E+02  0.65269752352E+01  0.52165220792E+00  0.17907022830E+02  0.00000000000E+00 0. -1.
         11    1    1    2    0    0 -0.24694511022E+02 -0.19942959728E+02  0.33967353854E+01  0.31923006259E+02  0.00000000000E+00 0.  1.
</event>
<event>
 7    1  0.6145388E-006  0.5242512E+02  0.7561462E-02  0.1432683E+00
          1   -1    0    0  501    0  0.00000000000E+00  0.00000000000E+00  0.41838274792E+02  0.41838274792E+02  0.00000000000E+00 0. -1.
         -1   -1    0    0    0  501 -0.00000000000E+00 -0.00000000000E+00 -0.31482907211E+03  0.31482907211E+03  0.00000000000E+00 0.  1.
         23    2    1    2    0    0 -0.22696606166E+02 -0.27556447254E+02 -0.11003337308E+03  0.14815603658E+03  0.92565513386E+02 0.  0.
          5    1    1    2  502    0  0.18763567873E+02  0.27866374558E+02 -0.18379947806E+03  0.18689121660E+03  0.41800000000E+01 0. -1.
         -5    1    1    2    0  502  0.39330382931E+01 -0.30992730365E+00  0.20842053813E+02  0.21620093716E+02  0.41800000000E+01 0. -1.
        -11    1    3    3    0    0 -0.51551484150E+01  0.16787531191E+02  0.91387671124E+01  0.19796813456E+02  0.00000000000E+00 0. -1.
         11    1    3    3    0    0 -0.17541457751E+02 -0.44343978446E+02 -0.11917214019E+03  0.12835922312E+03  0.00000000000E+00 0.  1.
</event>
<event>
 7    1  0.6145388E-006  0.2712314E+03  0.7561462E-02  0.1100577E+00
          1   -1    0    0  501    0  0.00000000000E+00  0.00000000000E+00  0.28965619284E+03  0.28965619284E+03  0.00000000000E+00 0. -1.
         -1   -1    0    0    0  501 -0.00000000000E+00 -0.00000000000E+00 -0.29132357231E+03  0.29132357231E+03  0.00000000000E+00 0.  1.
         23    2    1    2    0    0  0.24292901222E+03  0.95073471600E+02  0.65363542961E+02  0.28400683543E+03  0.91290853009E+02 0.  0.
          5    1    1    2  502    0  0.10515777333E+02 -0.17199135914E+01 -0.19628374827E+02  0.22721909559E+02  0.41800000000E+01 0. -1.
         -5    1    1    2    0  502 -0.25344478955E+03 -0.93353558009E+02 -0.47402547602E+02  0.27425102017E+03  0.41800000000E+01 0. -1.
        -11    1    3    3    0    0  0.22183800386E+03  0.85769063295E+02  0.27159646165E+02  0.23938688050E+03  0.00000000000E+00 0.  1.
         11    1    3    3    0    0  0.21091008354E+02  0.93044083050E+01  0.38203896797E+02  0.44619954928E+02  0.00000000000E+00 0. -1.
</event>
<event>
 7    1  0.6145388E-006  0.1165209E+03  0.7561462E-02  0.1248949E+00
          2   -1    0    0  501    0  0.00000000000E+00  0.00000000000E+00  0.30528688678E+02  0.30528688678E+02  0.00000000000E+00 0. -1.
         -2   -1    0    0    0  501 -0.00000000000E+00 -0.00000000000E+00 -0.73927614610E+03  0.73927614610E+03  0.00000000000E+00 0.  1.
         23    2    1    2    0    0 -0.49335917045E+02  0.85526931618E+02 -0.24439338392E+03  0.27886588098E+03  0.91044850096E+02 0.  0.
          5    1    1    2  502    0  0.30345305746E+02 -0.72659096179E+02 -0.10747341296E+03  0.13329736956E+03  0.41800000000E+01 0. -1.
         -5    1    1    2    0  502  0.18990611300E+02 -0.12867835438E+02 -0.35688066054E+03  0.35764158424E+03  0.41800000000E+01 0. -1.
        -11    1    3    3    0    0 -0.66403698148E+02  0.30155664033E+02 -0.10435422324E+03  0.12731307517E+03  0.00000000000E+00 0. -1.
         11    1    3    3    0    0  0.17067781103E+02  0.55371267585E+02 -0.14003916068E+03  0.15155280581E+03  0.00000000000E+00 0.  1.
</event>
<event>
 7    1  0.6145388E-006  0.9057404E+02  0.7561462E-02  0.1301468E+00
         -1   -1    0    0    0  501 -0.00000000000E+00  0.00000000000E+00  0.47329353635E+02  0.47329353635E+02  0.00000000000E+00 0.  1.
          1   -1    0    0  501    0  0.00000000000E+00 -0.00000000000E+00 -0.32185005784E+03  0.32185005784E+03  0.00000000000E+00 0. -1.
         23    2    1    2    0    0  0.54203072972E+02 -0.20392482283E+02 -0.14696013205E+03  0.18136596196E+03  0.89120734356E+02 0.  0.
          5    1    1    2  502    0 -0.71284629659E+02  0.28297342622E+02 -0.21147222627E+02  0.79667530714E+02  0.41800000000E+01 0. -1.
         -5    1    1    2    0  502  0.17081556687E+02 -0.79048603389E+01 -0.10641334952E+03  0.10814591880E+03  0.41800000000E+01 0. -1.
        -11    1    3    3    0    0 -0.15951650856E+01 -0.28613006704E+02 -0.11062013175E+03  0.11427187866E+03  0.00000000000E+00 0. -1.
         11    1    3    3    0    0  0.55798238058E+02  0.82205244208E+01 -0.36340000304E+02  0.67094083302E+02  0.00000000000E+00 0.  1.
</event>
<event>
 7    1  0.6145388E-006  0.6445007E+02  0.7561462E-02  0.1380052E+00
         -2   -1    0    0    0  501 -0.00000000000E+00  0.00000000000E+00  0.43284419560E+02  0.43284419560E+02  0.00000000000E+00 0. -1.
          2   -1    0    0  501    0  0.00000000000E+00 -0.00000000000E+00 -0.25848747753E+03  0.25848747753E+03  0.00000000000E+00 0.  1.
         23    2    1    2    0    0  0.77915887848E+01 -0.18628622344E+02 -0.59983225216E+02  0.10140019221E+03  0.79222959090E+02 0.  0.
          5    1    1    2  502    0 -0.55692532762E+01  0.50181940706E+02 -0.16025304074E+03  0.16807067924E+03  0.41800000000E+01 0.  1.
         -5    1    1    2    0  502 -0.22223355086E+01 -0.31553318362E+02  0.50332079814E+01  0.32301025640E+02  0.41800000000E+01 0.  1.
        -11    1    3    3    0    0  0.74798431091E+01  0.12840497894E+02  0.14363363650E+02  0.20667187870E+02  0.00000000000E+00 0. -1.
         11    1    3    3    0    0  0.31174567571E+00 -0.31469120238E+02 -0.74346588867E+02  0.80733004342E+02  0.00000000000E+00 0.  1.
</event>
<event>
 7    1  0.6145388E-006  0.1246473E+03  0.7561462E-02  0.1235621E+00
         -2   -1    0    0    0  501 -0.00000000000E+00  0.00000000000E+00  0.11129693871E+03  0.11129693871E+03  0.00000000000E+00 0.  1.
          2   -1    0    0  501    0  0.00000000000E+00 -0.00000000000E+00 -0.22473213053E+03  0.22473213053E+03  0.00000000000E+00 0. -1.
         23    2    1    2    0    0 -0.79183118182E+02 -0.14156224953E+02 -0.14461826760E+03  0.18407550894E+03  0.80616280985E+02 0.  0.
          5    1    1    2  502    0 -0.26105713566E+02 -0.11297285494E+02 -0.16917289245E+02  0.33358717237E+02  0.41800000000E+01 0. -1.
         -5    1    1    2    0  502  0.10528883175E+03  0.25453510447E+02  0.48100365021E+02  0.11859484306E+03  0.41800000000E+01 0. -1.
        -11    1    3    3    0    0 -0.20512507601E+02 -0.42343962999E+02 -0.76862526773E+02  0.90120043234E+02  0.00000000000E+00 0.  1.
         11    1    3    3    0    0 -0.58670610580E+02  0.28187738046E+02 -0.67755740826E+02  0.93955465711E+02  0.00000000000E+00 0. -1.
</event>
<event>
 7    1  0.6145388E-006  0.2893572E+03  0.7561462E-02  0.1090685E+00
          2   -1    0    0  501    0  0.00000000000E+00  0.00000000000E+00  0.52421735128E+03  0.52421735128E+03  0.00000000000E+00 0. -1.
         -2   -1    0    0    0  501 -0.00000000000E+00 -0.00000000000E+00 -0.16312424748E+03  0.16312424748E+03  0.00000000000E+00 0.  1.
         23    2    1    2    0    0  0.87819664880E-01  0.26866537008E+03  0.13245379667E+03  0.31304371800E+03  0.90946535579E+02 0.  0.
          5    1    1    2  502    0 -0.96407069154E+01 -0.27984695418E+03  0.20914433474E+03  0.34952265470E+03  0.41800000000E+01 0. -1.
         -5    1    1    2    0  502  0.95528872505E+01  0.11181584097E+02  0.19494972395E+02  0.24775226062E+02  0.41800000000E+01 0. -1.
        -11    1    3    3    0    0 -0.16117130318E+02  0.26655215745E+03  0.12157307348E+03  0.29341067930E+03  0.00000000000E+00 0. -1.
         11    1    3    3    0    0  0.16204949982E+02  0.21132126327E+01  0.10880723192E+02  0.19633038704E+02  0.00000000000E+00 0.  1.
</event>
<event>
 7    1  0.6145388E-006  0.1251774E+03  0.7561462E-02  0.1234792E+00
          2   -1    0    0  501    0  0.00000000000E+00  0.00000000000E+00  0.12388534698E+04  0.12388534698E+04  0.00000000000E+00 0. -1.
         -2   -1    0    0    0  501 -0.00000000000E+00 -0.00000000000E+00 -0.18051966814E+02  0.18051966814E+02  0.00000000000E+00 0.  1.
         23    2    1    2    0    0  0.72434631921E+02 -0.67086169676E+02  0.54903724315E+03  0.56649831651E+03  0.98646430093E+02 0.  0.
          5    1    1    2  502    0  0.12571403421E+02 -0.20406308932E+00  0.39344922670E+01  0.13821521447E+02  0.41800000000E+01 0.  1.
         -5    1    1    2    0  502 -0.85006035342E+02  0.67290232765E+02  0.66782976753E+03  0.67658559863E+03  0.41800000000E+01 0.  1.
        -11    1    3    3    0    0  0.36901647923E+01 -0.59311333800E+02  0.14709261231E+03  0.15864327350E+03  0.00000000000E+00 0.  1.
         11    1    3    3    0    0  0.68744467128E+02 -0.77748358763E+01  0.40194463085E+03  0.40785504300E+03  0.00000000000E+00 0. -1.
</event>
<event>
 7    1  0.6145388E-006  0.2820984E+03  0.7561462E-02  0.1094548E+00
          2   -1    0    0  501    0  0.00000000000E+00  0.00000000000E+00  0.93871085779E+03  0.93871085779E+03  0.00000000000E+00 0. -1.
         -2   -1    0    0    0  501 -0.00000000000E+00 -0.00000000000E+00 -0.11577121894E+03  0.11577121894E+03  0.00000000000E+00 0.  1.
         23    2    1    2    0    0 -0.98818711661E+02 -0.26018822143E+03  0.62657168195E+03  0.69161756858E+03  0.90993077780E+02 0.  0.
          5    1    1    2  502    0  0.35831913029E+02  0.42156949339E+02  0.10386012625E+03  0.11775199614E+03  0.41800000000E+01 0. -1.
         -5    1    1    2    0  502  0.62986798632E+02  0.21803127209E+03  0.92507830650E+02  0.24511251201E+03  0.41800000000E+01 0. -1.
        -11    1    3    3    0    0 -0.94229503159E+02 -0.19705081383E+03  0.55292311910E+03  0.59450163846E+03  0.00000000000E+00 0. -1.
         11    1    3    3    0    0 -0.45892085020E+01 -0.63137407603E+02  0.73648562844E+02  0.97115930117E+02  0.00000000000E+00 0.  1.
</event>
<event>
 7    1  0.6145388E-006  0.1313355E+03  0.7561462E-02  0.1225488E+00
         -1   -1    0    0    0  501 -0.00000000000E+00  0.00000000000E+00  0.12442295784E+04  0.12442295784E+04  0.00000000000E+00 0.  1.
          1   -1    0    0  501    0  0.00000000000E+00 -0.00000000000E+00 -0.14918257459E+02  0.14918257459E+02  0.00000000000E+00 0. -1.
         23    2    1    2    0    0  0.27722419820E+02  0.76223452270E+02  0.50090285301E+03  0.51563941336E+03  0.91661274381E+02 0.  0.
          5    1    1    2  502    0  0.22785074190E+01 -0.10594484253E+03  0.54899607583E+03  0.55914547743E+03  0.41800000000E+01 0. -1.
         -5    1    1    2    0  502 -0.30000927239E+02  0.29721390262E+02  0.17941239210E+03  0.18436294506E+03  0.41800000000E+01 0. -1.
        -11    1    3    3    0    0  0.55002997059E+02  0.63711247782E+02  0.43709678500E+03  0.44512700686E+03  0.00000000000E+00 0.  1.
         11    1    3    3    0    0 -0.27280577239E+02  0.12512204488E+02  0.63806068016E+02  0.70512406506E+02  0.00000000000E+00 0. -1.
</event>
<event>
 7    1  0.6145388E-006  0.6961554E+02  0.7561462E-02  0.1361405E+00
         -2   -1    0    0    0  501 -0.00000000000E+00  0.00000000000E+00  0.96289800611E+02  0.96289800611E+02  0.00000000000E+00 0.  1.
          2   -1    0    0  501    0  0.00000000000E+00 -0.00000000000E+00 -0.28210433898E+03  0.28210433898E+03  0.00000000000E+00 0. -1.
         23    2    1    2    0    0  0.55282927207E+02  0.31878784483E+02 -0.20828779723E+03  0.23617890586E+03  0.91237109527E+02 0.  0.
          5    1    1    2  502    0 -0.64667495273E+01  0.77202863376E+01 -0.47107694855E+02  0.48353169339E+02  0.41800000000E+01 0.  1.
         -5    1    1    2    0  502 -0.48816177680E+02 -0.39599070820E+02  0.69580953715E+02  0.93862064398E+02  0.41800000000E+01 0.  1.
        -11    1    3    3    0    0  0.17217346342E+02  0.28327273473E+01  0.45413221322E+01  0.18030112756E+02  0.00000000000E+00 0.  1.
         11    1    3    3    0    0  0.38065580865E+02  0.29046057135E+02 -0.21282911936E+03  0.21814879310E+03  0.00000000000E+00 0. -1.
</event>
<event>
 7    1  0.6145388E-006  0.8964002E+02  0.7561462E-02  0.1303726E+00
         -1   -1    0    0    0  501 -0.00000000000E+00  0.00000000000E+00  0.44980784494E+02  0.44980784494E+02  0.00000000000E+00 0.  1.
          1   -1    0    0  501    0  0.00000000000E+00 -0.00000000000E+00 -0.27753863455E+03  0.27753863455E+03  0.00000000000E+00 0. -1.
         23    2    1    2    0    0  0.24472591246E+02  0.11061038795E+02 -0.11694251025E+03  0.15008445270E+03  0.90158404697E+02 0.  0.
          5    1    1    2  502    0  0.10151952526E+02 -0.59040308262E+02 -0.89134378799E+02  0.10747664874E+03  0.41800000000E+01 0.  1.
         -5    1    1    2    0  502 -0.34624543772E+02  0.47979269467E+02 -0.26480961000E+02  0.64958317600E+02  0.41800000000E+01 0.  1.
        -11    1    3    3    0    0  0.15531061838E+02  0.32862741615E+02 -0.12085067847E+03  0.12619849506E+03  0.00000000000E+00 0. -1.
         11    1    3    3    0    0  0.89415294075E+01 -0.21801702819E+02  0.39081682147E+01  0.23885957648E+02  0.00000000000E+00 0.  1.
</event>
<event>
 7    1  0.6145388E-006  0.4378938E+02  0.7561462E-02  0.1482044E+00
         -1   -1    0    0    0  501 -0.00000000000E+00  0.00000000000E+00  0.17446021997E+03  0.17446021997E+03  0.00000000000E+00 0.  1.
          1   -1    0    0  501    0  0.00000000000E+00 -0.00000000000E+00 -0.82315838091E+02  0.82315838091E+02  0.00000000000E+00 0. -1.
         23    2    1    2    0    0 -0.51038545963E+01 -0.34623113003E+02  0.74090276666E+02  0.12562302810E+03  0.95220621755E+02 0.  0.
          5    1    1    2  502    0  0.65188055535E+01  0.41596149190E+02 -0.48343795068E+02  0.64244294493E+02  0.41800000000E+01 0.  1.
         -5    1    1    2    0  502 -0.14149509572E+01 -0.69730361863E+01  0.66397900281E+02  0.66908735466E+02  0.41800000000E+01 0.  1.
        -11    1    3    3    0    0  0.25349779308E+01 -0.22794579138E+02  0.96482821486E+02  0.99171335542E+02  0.00000000000E+00 0.  1.
         11    1    3    3    0    0 -0.76388325270E+01 -0.11828533866E+02 -0.22392544820E+02  0.26451692561E+02  0.00000000000E+00 0. -1.
</event>
<event>
 7    1  0.6145388E-006  0.7938197E+02  0.7561462E-02  0.1330815E+00
         -3   -1    0    0    0  501 -0.00000000000E+00  0.00000000000E+00  0.88450292368E+02  0.88450292368E+02  0.00000000000E+00 0.  1.
          3   -1    0    0  501    0  0.00000000000E+00 -0.00000000000E+00 -0.15920914555E+03  0.15920914555E+03  0.00000000000E+00 0. -1.
         23    2    1    2    0    0  0.30631255142E+01  0.47262048548E+02 -0.33842098221E+02  0.10890599617E+03  0.92044252501E+02 0.  0.
          5    1    1    2  502    0  0.55014134450E+01 -0.52859710207E+02 -0.78965945169E+02  0.95275953994E+02  0.41800000000E+01 0. -1.
         -5    1    1    2    0  502 -0.85645389592E+01  0.55976616581E+01  0.42049190213E+02  0.43477487752E+02  0.41800000000E+01 0. -1.
        -11    1    3    3    0    0  0.10410668137E+02  0.69864232246E+02 -0.43826619166E+02  0.83127405264E+02  0.00000000000E+00 0. -1.
         11    1    3    3    0    0 -0.73475426226E+01 -0.22602183698E+02  0.99845209449E+01  0.25778590904E+02  0.00000000000E+00 0.  1.
</event>
<event>
 7    1  0.6145388E-006  0.1862283E+03  0.7561462E-02  0.1161908E+00
         -1   -1    0    0    0  501 -0.00000000000E+00  0.00000000000E+00  0.85418697811E+02  0.85418697811E+02  0.00000000000E+00 0.  1.
          1   -1    0    0  501    0  0.00000000000E+00 -0.00000000000E+00 -0.59741208413E+03  0.59741208413E+03  0.00000000000E+00 0. -1.
         23    2    1    2    0    0  0.42678069535E+02 -0.15188513814E+03 -0.42525791694E+03  0.46360341361E+03  0.95881783363E+02 0.  0.
          5    1    1    2  502    0 -0.54601011522E+02  0.91901560291E+01 -0.40394229989E+02  0.68665097710E+02  0.41800000000E+01 0.  1.
         -5    1    1    2    0  502  0.11922941988E+02  0.14269498211E+03 -0.46341239387E+02  0.15056227062E+03  0.41800000000E+01 0.  1.
        -11    1    3    3    0    0  0.56608541836E+02 -0.67254688571E+02 -0.29355389522E+03  0.30643369518E+03  0.00000000000E+00 0. -1.
         11    1    3    3    0    0 -0.13930472301E+02 -0.84630449573E+02 -0.13170402173E+03  0.15716971843E+03  0.00000000000E+00 0.  1.
</event>
<event>
 7    1  0.6145388E-006  0.1151863E+03  0.7561462E-02  0.1251256E+00
         -2   -1    0    0    0  501 -0.00000000000E+00  0.00000000000E+00  0.67401964219E+02  0.67401964219E+02  0.00000000000E+00 0.  1.
          2   -1    0    0  501    0  0.00000000000E+00 -0.00000000000E+00 -0.20109147847E+03  0.20109147847E+03  0.00000000000E+00 0. -1.
         23    2    1    2    0    0  0.34569463495E+02 -0.26389452414E+02 -0.46272762819E+02  0.10979966977E+03  0.89573142726E+02 0.  0.
          5    1    1    2  502    0  0.85922988479E+01  0.69514227196E+02 -0.56937605128E+02  0.90362706134E+02  0.41800000000E+01 0.  1.
         -5    1    1    2    0  502 -0.43161762343E+02 -0.43124774782E+02 -0.30479146307E+02  0.68331066786E+02  0.41800000000E+01 0.  1.
        -11    1    3    3    0    0  0.64997457068E+02 -0.16596471731E+02 -0.25984065074E+02  0.71939446321E+02  0.00000000000E+00 0. -1.
         11    1    3    3    0    0 -0.30427993572E+02 -0.97929806824E+01 -0.20288697745E+02  0.37860223450E+02  0.00000000000E+00 0.  1.
</event>
<event>
 7    1  0.6145388E-006  0.9162497E+02  0.7561462E-02  0.1298964E+00
          3   -1    0    0  501    0  0.00000000000E+00  0.00000000000E+00  0.25211029035E+03  0.25211029035E+03  0.00000000000E+00 0. -1.
         -3   -1    0    0    0  501 -0.00000000000E+00 -0.00000000000E+00 -0.68885754756E+02  0.68885754756E+02  0.00000000000E+00 0.  1.
         23    2    1    2    0    0 -0.23647146790E+02 -0.17211537510E+02  0.16356484015E+03  0.19103894701E+03  0.94270874428E+02 0.  0.
          5    1    1    2  502    0  0.88547555823E+01 -0.45766619487E+02 -0.23205990028E+02  0.52239645183E+02  0.41800000000E+01 0. -1.
         -5    1    1    2    0  502  0.14792391208E+02  0.62978156997E+02  0.42865685466E+02  0.77717452910E+02  0.41800000000E+01 0. -1.
        -11    1    3    3    0    0 -0.78850598615E+01 -0.41732362731E+02  0.15491716901E+03  0.16063341347E+03  0.00000000000E+00 0. -1.
         11    1    3    3    0    0 -0.15762086928E+02  0.24520825221E+02  0.86476711446E+01  0.30405533544E+02  0.00000000000E+00 0.  1.
</event>
<event>
 7    1  0.6145388E-006  0.1250887E+03  0.7561462E-02  0.1234931E+00
          2   -1    0    0  501    0  0.00000000000E+00  0.00000000000E+00  0.43544885298E+03  0.43544885298E+03  0.00000000000E+00 0. -1.
         -2   -1    0    0    0  501 -0.00000000000E+00 -0.00000000000E+00 -0.38561568074E+02  0.38561568074E+02  0.00000000000E+00 0.  1.
         23    2    1    2    0    0  0.22211918433E+02 -0.62191361377E+02  0.21035979682E+03  0.23991446008E+03  0.94586306026E+02 0.  0.
          5    1    1    2  502    0 -0.70713866319E+02  0.43704543058E+02  0.79636826698E+02  0.11519563594E+03  0.41800000000E+01 0.  1.
         -5    1    1    2    0  502  0.48501947886E+02  0.18486818319E+02  0.10689066139E+03  0.11890032503E+03  0.41800000000E+01 0.  1.
        -11    1    3    3    0    0  0.57765575956E+02 -0.23610970903E+02  0.12520833221E+03  0.13989805634E+03  0.00000000000E+00 0. -1.
         11    1    3    3    0    0 -0.35553657524E+02 -0.38580390474E+02  0.85151464612E+02  0.10001640374E+03  0.00000000000E+00 0.  1.
</event>
<event>
 6    1  0.6145388E-006  0.1971148E+03  0.7561462E-02  0.1152196E+00
         -1   -1    0    0    0  501 -0.00000000000E+00  0.00000000000E+00  0.69101750812E+03  0.69101750812E+03  0.00000000000E+00 0.  1.
          1   -1    0    0  501    0  0.00000000000E+00 -0.00000000000E+00 -0.18115835215E+03  0.18115835215E+03  0.00000000000E+00 0. -1.
          5    1    1    2  502    0  0.98165604939E+02 -0.33871806128E+02  0.47717705538E+03  0.48836379865E+03  0.41800000000E+01 0.  1.
         -5    1    1    2    0  502  0.22070632172E+02 -0.75144210339E+02  0.12346282758E+03  0.14626793000E+03  0.41800000000E+01 0.  1.
        -11    1    1    2    0    0  0.53928901476E+01  0.83503193112E+02 -0.60839776645E+01  0.83898041146E+02  0.00000000000E+00 0. -1.
         11    1    1    2    0    0 -0.12562912726E+03  0.25512823355E+02 -0.84696749326E+02  0.15364609047E+03  0.00000000000E+00 0.  1.
</event>
<event>
 7    1  0.6145388E-006  0.1525191E+03  0.7561462E-02  0.1197411E+00
          2   -1    0    0  501    0  0.00000000000E+00  0.00000000000E+00  0.38840997414E+03  0.38840997414E+03  0.00000000000E+00 0.  1.
         -2   -1    0    0    0  501 -0.00000000000E+00 -0.00000000000E+00 -0.10061519703E+03  0.10061519703E+03  0.00000000000E+00 0. -1.
         23    2    1    2    0    0  0.55765958398E+02 -0.99223462889E+02  0.28413487521E+03  0.31985928789E+03  0.92855797014E+02 0.  0.
          5    1    1    2  502    0  0.27754961649E+02  0.59034671265E+02  0.31132757099E+02  0.72402702105E+02  0.41800000000E+01 0.  1.
         -5    1    1    2    0  502 -0.83520920047E+02  0.40188791624E+02 -0.27472855199E+02  0.96763181172E+02  0.41800000000E+01 0.  1.
        -11    1    3    3    0    0  0.81072162024E+02 -0.62859488382E+02  0.19752761924E+03  0.22257846054E+03  0.00000000000E+00 0. -1.
         11    1    3    3    0    0 -0.25306203626E+02 -0.36363974506E+02  0.86607255973E+02  0.97280827356E+02  0.00000000000E+00 0.  1.
</event>
<event>
 7    1  0.6145388E-006  0.6357188E+02  0.7561462E-02  0.1383425E+00
          2   -1    0    0  501    0  0.00000000000E+00  0.00000000000E+00  0.48453213781E+02  0.48453213781E+02  0.00000000000E+00 0.  1.
         -2   -1    0    0    0  501 -0.00000000000E+00 -0.00000000000E+00 -0.25297479798E+03  0.25297479798E+03  0.00000000000E+00 0. -1.
         23    2    1    2    0    0  0.32171444457E+01 -0.37557687815E+00 -0.61089163295E+02  0.11108352019E+03  0.92720933501E+02 0.  0.
          5    1    1    2  502    0 -0.61026827253E+01 -0.19009465363E+02  0.18282873630E+02  0.27392305087E+02  0.41800000000E+01 0. -1.
         -5    1    1    2    0  502  0.28855382796E+01  0.19385042241E+02 -0.16171529453E+03  0.16295218648E+03  0.41800000000E+01 0. -1.
        -11    1    3    3    0    0 -0.23856712991E+00  0.43096527972E+02 -0.50148331548E+02  0.66122785744E+02  0.00000000000E+00 0. -1.
         11    1    3    3    0    0  0.34557115756E+01 -0.43472104850E+02 -0.10940831748E+02  0.44960734446E+02  0.00000000000E+00 0.  1.
</event>
<event>
 7    1  0.6145388E-006  0.1469662E+03  0.7561462E-02  0.1204251E+00
         -2   -1    0    0    0  501 -0.00000000000E+00  0.00000000000E+00  0.31434979245E+02  0.31434979245E+02  0.00000000000E+00 0.  1.
          2   -1    0    0  501    0  0.00000000000E+00 -0.00000000000E+00 -0.11372819537E+04  0.11372819537E+04  0.00000000000E+00 0. -1.
         23    2    1    2    0    0  0.66574714142E+02  0.10011196049E+03 -0.82503185500E+03  0.83862669615E+03  0.90346978504E+02 0.  0.
          5    1    1    2  502    0 -0.85861917987E+02 -0.83591498769E+02 -0.12904373876E+03  0.17615211194E+03  0.41800000000E+01 0.  1.
         -5    1    1    2    0  502  0.19287203846E+02 -0.16520461725E+02 -0.15177138065E+03  0.15393812481E+03  0.41800000000E+01 0.  1.
        -11    1    3    3    0    0  0.47510167487E+02  0.11478758338E+03 -0.73553170131E+03  0.74594925360E+03  0.00000000000E+00 0.  1.
         11    1    3    3    0    0  0.19064546655E+02 -0.14675622887E+02 -0.89500153697E+02  0.92677442552E+02  0.00000000000E+00 0. -1.
</event>
<event>
 7    1  0.6145388E-006  0.1111115E+03  0.7561462E-02  0.1258525E+00
         -1   -1    0    0    0  501 -0.00000000000E+00  0.00000000000E+00  0.49867779292E+02  0.49867779292E+02  0.00000000000E+00 0.  1.
          1   -1    0    0  501    0  0.00000000000E+00 -0.00000000000E+00 -0.35410990503E+03  0.35410990503E+03  0.00000000000E+00 0. -1.
         23    2    1    2    0    0  0.26958864131E+02 -0.22973636085E+02 -0.23833452679E+03  0.25822202212E+03  0.92847712598E+02 0.  0.
          5    1    1    2  502    0  0.46178126563E+02  0.31687197667E+02 -0.26114051694E+02  0.61934755709E+02  0.41800000000E+01 0.  1.
         -5    1    1    2    0  502 -0.73136990694E+02 -0.87135615817E+01 -0.39793547255E+02  0.83820906499E+02  0.41800000000E+01 0.  1.
        -11    1    3    3    0    0 -0.48233101048E+01  0.30069633897E+02 -0.12964262571E+03  0.13317153451E+03  0.00000000000E+00 0. -1.
         11    1    3    3    0    0  0.31782174235E+02 -0.53043269982E+02 -0.10869190108E+03  0.12505048760E+03  0.00000000000E+00 0.  1.
</event>
<event>
 7    1  0.6145388E-006  0.1094680E+03  0.7561462E-02  0.1261558E+00
          3   -1    0    0  501    0  0.00000000000E+00  0.00000000000E+00  0.63228485540E+03  0.63228485540E+03  0.00000000000E+00 0. -1.
         -3   -1    0    0    0  501 -0.00000000000E+00 -0.00000000000E+00 -0.20379066851E+02  0.20379066851E+02  0.00000000000E+00 0.  1.
         23    2    1    2    0    0  0.10162668372E+01 -0.46055751755E+02  0.27850251877E+03  0.29360178467E+03  0.80722920724E+02 0.  0.
          5    1    1    2  502    0  0.43351152126E+02 -0.18710270269E+02  0.18668081878E+03  0.19260476916E+03  0.41800000000E+01 0.  1.
         -5    1    1    2    0  502 -0.44367418964E+02  0.64766022024E+02  0.14672245100E+03  0.16645736842E+03  0.41800000000E+01 0.  1.
        -11    1    3    3    0    0  0.72201108095E+01  0.22732140823E+02  0.74466765330E+02  0.78193218153E+02  0.00000000000E+00 0. -1.
         11    1    3    3    0    0 -0.62038439723E+01 -0.68787892578E+02  0.20403575344E+03  0.21540856651E+03  0.00000000000E+00 0.  1.
</event>
<event>
 7    1  0.6145388E-006  0.5845043E+02  0.7561462E-02  0.1404452E+00
         -2   -1    0    0    0  501 -0.00000000000E+00  0.00000000000E+00  0.34955633915E+02  0.34955633915E+02  0.00000000000E+00 0.  1.
          2   -1    0    0  501    0  0.00000000000E+00 -0.00000000000E+00 -0.35292362877E+03  0.35292362877E+03  0.00000000000E+00 0. -1.
         23    2    1    2    0    0  0.17932058247E+02  0.42807047015E+01 -0.10804376896E+03  0.14281647749E+03  0.91559855207E+02 0.  0.
          5    1    1    2  502    0  0.18490432687E+02  0.11742900045E+02 -0.20328612809E+03  0.20450553557E+03  0.41800000000E+01 0. -1.
         -5    1    1    2    0  502 -0.36422490935E+02 -0.16023604746E+02 -0.66380977999E+01  0.40557249628E+02  0.41800000000E+01 0. -1.
        -11    1    3    3    0    0  0.35874341706E+02  0.66741600897E+01 -0.11704469384E+03  0.12260086933E+03  0.00000000000E+00 0. -1.
         11    1    3    3    0    0 -0.17942283458E+02 -0.23934553883E+01  0.90009248788E+01  0.20215608155E+02  0.00000000000E+00 0.  1.
</event>
<event>
 7    1  0.6145388E-006  0.8673568E+02  0.7561462E-02  0.1310955E+00
         -2   -1    0    0    0  501 -0.00000000000E+00  0.00000000000E+00  0.62855378969E+02  0.62855378969E+02  0.00000000000E+00 0.  1.
          2   -1    0    0  501    0  0.00000000000E+00 -0.00000000000E+00 -0.20415807720E+03  0.20415807720E+03  0.00000000000E+00 0. -1.
         23    2    1    2    0    0  0.27578873474E+02 -0.12481246887E+02 -0.71514529119E+02  0.12060789072E+03  0.92279790009E+02 0.  0.
          5    1    1    2  502    0  0.11211898061E+02  0.31007049684E+02 -0.92013677648E+02  0.97832167831E+02  0.41800000000E+01 0. -1.
         -5    1    1    2    0  502 -0.38790771535E+02 -0.18525802796E+02  0.22225508539E+02  0.48573397610E+02  0.41800000000E+01 0. -1.
        -11    1    3    3    0    0  0.15988592870E+02  0.40116711057E+02 -0.29508837334E+02  0.52304465285E+02  0.00000000000E+00 0.  1.
         11    1    3    3    0    0  0.11590280604E+02 -0.52597957945E+02 -0.42005691785E+02  0.68303425440E+02  0.00000000000E+00 0. -1.
</event>
<event>
 7    1  0.6145388E-006  0.2653595E+03  0.7561462E-02  0.1103965E+00
          1   -1    0    0  501    0  0.00000000000E+00  0.00000000000E+00  0.43493135870E+03  0.43493135870E+03  0.00000000000E+00 0. -1.
         -1   -1    0    0    0  501 -0.00000000000E+00 -0.00000000000E+00 -0.28285278610E+03  0.28285278610E+03  0.00000000000E+00 0.  1.
         23    2    1    2    0    0 -0.24877458167E+02 -0.24648311869E+03  0.29686600042E+03  0.40156547475E+03  0.10840937497E+03 0.  0.
          5    1    1    2  502    0 -0.75124088875E+01 -0.95157074683E+01 -0.32191706991E+02  0.34652032768E+02  0.41800000000E+01 0. -1.
         -5    1    1    2    0  502  0.32389867054E+02  0.25599882616E+03 -0.11259572084E+03  0.28156663729E+03  0.41800000000E+01 0.  1.
        -11    1    3    3    0    0  0.27400904256E+02 -0.11736617626E+03  0.83010839857E+02  0.14634352879E+03  0.00000000000E+00 0.  1.
         11    1    3    3    0    0 -0.52278362423E+02 -0.12911694242E+03  0.21385516057E+03  0.25522194596E+03  0.00000000000E+00 0. -1.
</event>
<event>
 7    1  0.6145388E-006  0.1060830E+03  0.7561462E-02  0.1268000E+00
         -1   -1    0    0    0  501 -0.00000000000E+00  0.00000000000E+00  0.11505968449E+04  0.11505968449E+04  0.00000000000E+00 0.  1.
          1   -1    0    0  501    0  0.00000000000E+00 -0.00000000000E+00 -0.14442546674E+02  0.14442546674E+02  0.00000000000E+00 0. -1.
         23    2    1    2    0    0  0.86736156060E+01  0.68907449494E+02  0.50663100753E+03  0.51946163791E+03  0.91334261186E+02 0.  0.
          5    1    1    2  502    0 -0.40110056795E+02 -0.59261481134E+02  0.58843803562E+03  0.59278793338E+03  0.41800000000E+01 0.  1.
         -5    1    1    2    0  502  0.31436441189E+02 -0.96459683597E+01  0.41085255073E+02  0.52789820275E+02  0.41800000000E+01 0.  1.
        -11    1    3    3    0    0 -0.32362540451E+01  0.86243403083E+02  0.46360732852E+03  0.47157200190E+03  0.00000000000E+00 0.  1.
         11    1    3    3    0    0  0.11909869651E+02 -0.17335953589E+02  0.43023679010E+02  0.47889636014E+02  0.00000000000E+00 0. -1.
</event>
<event>
 7    1  0.6145388E-006  0.2109012E+03  0.7561462E-02  0.1140854E+00
         -1   -1    0    0    0  501 -0.00000000000E+00  0.00000000000E+00  0.64706533770E+02  0.64706533770E+02  0.00000000000E+00 0.  1.
          1   -1    0    0  501    0  0.00000000000E+00 -0.00000000000E+00 -0.92655624710E+03  0.92655624710E+03  0.00000000000E+00 0. -1.
         23    2    1    2    0    0 -0.18008571235E+03  0.48567496303E+02 -0.65031186389E+03  0.68275002314E+03  0.91936980004E+02 0.  0.
          5    1    1    2  502    0  0.16098038387E+03  0.10569065042E+02 -0.13985405883E+03  0.21354863450E+03  0.41800000000E+01 0.  1.
         -5    1    1    2    0  502  0.19105328479E+02 -0.59136561345E+02 -0.71683790617E+02  0.94964123232E+02  0.41800000000E+01 0.  1.
        -11    1    3    3    0    0 -0.16226041726E+03  0.18675866943E+02 -0.59810906734E+03  0.62000942529E+03  0.00000000000E+00 0. -1.
         11    1    3    3    0    0 -0.17825295088E+02  0.29891629360E+02 -0.52202796550E+02  0.62740597849E+02  0.00000000000E+00 0.  1.
</event>
<event>
 7    1  0.6145388E-006  0.1159851E+03  0.7561462E-02  0.1249871E+00
         -2   -1    0    0    0  501 -0.00000000000E+00  0.00000000000E+00  0.17779852773E+03  0.17779852773E+03  0.00000000000E+00 0.  1.
          2   -1    0    0  501    0  0.00000000000E+00 -0.00000000000E+00 -0.22512754583E+03  0.22512754583E+03  0.00000000000E+00 0. -1.
         23    2    1    2    0    0 -0.71564524745E+02 -0.71163776335E+02 -0.15604322761E+03  0.20888499059E+03  0.95381791484E+02 0.  0.
          5    1    1    2  502    0  0.19778202633E+01  0.53019343027E+02 -0.10980932629E+02  0.54341657956E+02  0.41800000000E+01 0. -1.
         -5    1    1    2    0  502  0.69586704482E+02  0.18144433308E+02  0.11969514214E+03  0.13969942502E+03  0.41800000000E+01 0. -1.
        -11    1    3    3    0    0 -0.32754392797E+02 -0.99455792872E+01  0.27393033257E+01  0.34340480159E+02  0.00000000000E+00 0.  1.
         11    1    3    3    0    0 -0.38810131948E+02 -0.61218197048E+02 -0.15878253093E+03  0.17454451043E+03  0.00000000000E+00 0. -1.
</event>
<event>
 7    1  0.6145388E-006  0.1042349E+03  0.7561462E-02  0.1271635E+00
         -1   -1    0    0    0  501 -0.00000000000E+00  0.00000000000E+00  0.15654046288E+03  0.15654046288E+03  0.00000000000E+00 0.  1.
          1   -1    0    0  501    0  0.00000000000E+00 -0.00000000000E+00 -0.83667109887E+02  0.83667109887E+02  0.00000000000E+00 0. -1.
         23    2    1    2    0    0 -0.35769427109E+02 -0.74131316661E+01  0.16044987540E+02  0.98042200531E+02  0.89556825664E+02 0.  0.
          5    1    1    2  502    0  0.51488006000E+02 -0.41518538125E+02  0.11590752425E+01  0.66284384476E+02  0.41800000000E+01 0. -1.
         -5    1    1    2    0  502 -0.15718578892E+02  0.48931669791E+02  0.55669290211E+02  0.75880987761E+02  0.41800000000E+01 0. -1.
        -11    1    3    3    0    0 -0.63002729379E+02 -0.70469364133E+01  0.26710169090E+02  0.68792705680E+02  0.00000000000E+00 0.  1.
         11    1    3    3    0    0  0.27233302270E+02 -0.36619525273E+00 -0.10665181551E+02  0.29249494851E+02  0.00000000000E+00 0. -1.
</event>
<event>
 7    1  0.6145388E-006  0.1116487E+03  0.7561462E-02  0.1257547E+00
         -2   -1    0    0    0  501 -0.00000000000E+00  0.00000000000E+00  0.56092508058E+02  0.56092508058E+02  0.00000000000E+00 0.  1.
          2   -1    0    0  501    0  0.00000000000E+00 -0.00000000000E+00 -0.30009203940E+03  0.30009203940E+03  0.00000000000E+00 0. -1.
         23    2    1    2    0    0 -0.52737743134E+02  0.35355759154E+02 -0.15959218201E+03  0.19239166560E+03  0.86680962030E+02 0.  0.
          5    1    1    2  502    0  0.89213506351E+02 -0.19891459533E+02 -0.83609450527E+02  0.12394649045E+03  0.41800000000E+01 0.  1.
         -5    1    1    2    0  502 -0.36475763218E+02 -0.15464299621E+02 -0.79789880156E+00  0.39846391400E+02  0.41800000000E+01 0.  1.
        -11    1    3    3    0    0 -0.30950456871E+02 -0.16956790449E+02 -0.11496777077E+03  0.12026242904E+03  0.00000000000E+00 0. -1.
         11    1    3    3    0    0 -0.21787286262E+02  0.52312549604E+02 -0.44624411243E+02  0.72129236566E+02  0.00000000000E+00 0.  1.
</event>
<event>
 7    1  0.6145388E-006  0.8902497E+02  0.7561462E-02  0.1305230E+00
          1   -1    0    0  501    0  0.00000000000E+00  0.00000000000E+00  0.27652197778E+03  0.27652197778E+03  0.00000000000E+00 0. -1.
         -1   -1    0    0    0  501 -0.00000000000E+00 -0.00000000000E+00 -0.33506387809E+02  0.33506387809E+02  0.00000000000E+00 0.  1.
         23    2    1    2    0    0 -0.10987911256E+02 -0.12021490531E+02  0.10437548884E+03  0.12258858161E+03  0.62197003487E+02 0.  0.
          5    1    1    2  502    0  0.25630144603E+02  0.60466506254E+02  0.41423595623E+02  0.77759175441E+02  0.41800000000E+01 0.  1.
         -5    1    1    2    0  502 -0.14642233347E+02 -0.48445015723E+02  0.97216505505E+02  0.10968060853E+03  0.41800000000E+01 0.  1.
        -11    1    3    3    0    0 -0.22315392799E+02  0.18448390835E+02  0.31463811147E+02  0.42758523034E+02  0.00000000000E+00 0.  1.
         11    1    3    3    0    0  0.11327481543E+02 -0.30469881365E+02  0.72911677695E+02  0.79830058580E+02  0.00000000000E+00 0. -1.
</event>
<event>
 7    1  0.6145388E-006  0.1188506E+03  0.7561462E-02  0.1245005E+00
         -1   -1    0    0    0  501 -0.00000000000E+00  0.00000000000E+00  0.11874330810E+03  0.11874330810E+03  0.00000000000E+00 0.  1.
          1   -1    0    0  501    0  0.00000000000E+00 -0.00000000000E+00 -0.20044769639E+03  0.20044769639E+03  0.00000000000E+00 0. -1.
         23    2    1    2    0    0 -0.85758195469E+02 -0.33359033940E+02 -0.10323979831E+03  0.16241657253E+03  0.85166858834E+02 0.  0.
          5    1    1    2  502    0 -0.12332833980E+02  0.10144438865E+02 -0.36731433384E+02  0.40270076140E+02  0.41800000000E+01 0.  1.
         -5    1    1    2    0  502  0.98091029449E+02  0.23214595075E+02  0.58266843400E+02  0.11650435581E+03  0.41800000000E+01 0.  1.
        -11    1    3    3    0    0  0.22886373039E+01 -0.32170775478E+02 -0.50056815418E+02  0.59547304098E+02  0.00000000000E+00 0.  1.
         11    1    3    3    0    0 -0.88046832773E+02 -0.11882584617E+01 -0.53182982890E+02  0.10286926844E+03  0.00000000000E+00 0. -1.
</event>
<event>
 7    1  0.6145388E-006  0.1757715E+03  0.7561462E-02  0.1171959E+00
         -2   -1    0    0    0  501 -0.00000000000E+00  0.00000000000E+00  0.20878941935E+03  0.20878941935E+03  0.00000000000E+00 0.  1.
          2   -1    0    0  501    0  0.00000000000E+00 -0.00000000000E+00 -0.19215321624E+03  0.19215321624E+03  0.00000000000E+00 0. -1.
         23    2    1    2    0    0 -0.14943136720E+03  0.31587017603E+02 -0.59929947627E+02  0.18919496413E+03  0.94210735290E+02 0.  0.
          5    1    1    2  502    0  0.16920754744E+03 -0.19929458452E+02  0.52748440042E+02  0.17840473019E+03  0.41800000000E+01 0.  1.
         -5    1    1    2    0  502 -0.19776180240E+02 -0.11657559151E+02  0.23817710698E+02  0.33342941279E+02  0.41800000000E+01 0.  1.
        -11    1    3    3    0    0 -0.17432459485E+02 -0.90852114576E+01  0.21277462879E+02  0.28968295385E+02  0.00000000000E+00 0.  1.
         11    1    3    3    0    0 -0.13199890772E+03  0.40672229061E+02 -0.81207410506E+02  0.16022666874E+03  0.00000000000E+00 0. -1.
</event>
<event>
 7    1  0.6145388E-006  0.9391478E+02  0.7561462E-02  0.1293639E+00
          1   -1    0    0  501    0  0.00000000000E+00  0.00000000000E+00  0.27954248988E+03  0.27954248988E+03  0.00000000000E+00 0. -1.
         -1   -1    0    0    0  501 -0.00000000000E+00 -0.00000000000E+00 -0.48349447199E+02  0.48349447199E+02  0.00000000000E+00 0.  1.
         23    2    1    2    0    0  0.25675240515E+02  0.30062261753E+02  0.12098146253E+03  0.15655115619E+03  0.91152579065E+02 0.  0.
          5    1    1    2  502    0  0.15373741855E+02  0.43774423370E+02  0.40717945638E+02  0.61870635822E+02  0.41800000000E+01 0. -1.
         -5    1    1    2    0  502 -0.41048982371E+02 -0.73836685123E+02  0.69493634509E+02  0.10947014507E+03  0.41800000000E+01 0. -1.
        -11    1    3    3    0    0 -0.88692652853E+01  0.18011053648E+02  0.11816310407E+03  0.11985650205E+03  0.00000000000E+00 0. -1.
         11    1    3    3    0    0  0.34544505801E+02  0.12051208105E+02  0.28183584607E+01  0.36694654137E+02  0.00000000000E+00 0.  1.
</event>
<event>
 7    1  0.6145388E-006  0.1241597E+03  0.7561462E-02  0.1236388E+00
          2   -1    0    0  501    0  0.00000000000E+00  0.00000000000E+00  0.99447792443E+03  0.99447792443E+03  0.00000000000E+00 0. -1.
         -2   -1    0    0    0  501 -0.00000000000E+00 -0.00000000000E+00 -0.45319104223E+02  0.45319104223E+02  0.00000000000E+00 0.  1.
         23    2    1    2    0    0 -0.79257328850E+01 -0.27890234229E+02  0.17188292808E+03  0.19917339604E+03  0.96361913217E+02 0.  0.
          5    1    1    2  502    0  0.16005552611E+02  0.93781174265E+02  0.76750925898E+03  0.77339447979E+03  0.41800000000E+01 0. -1.
         -5    1    1    2    0  502 -0.80798197262E+01 -0.65890940036E+02  0.97666331540E+01  0.67229152819E+02  0.41800000000E+01 0.  1.
        -11    1    3    3    0    0 -0.43060042302E+02 -0.28139373043E+02  0.47828190573E+02  0.70239072971E+02  0.00000000000E+00 0.  1.
         11    1    3    3    0    0  0.35134309417E+02  0.24913881366E+00  0.12405473751E+03  0.12893432307E+03  0.00000000000E+00 0. -1.
</event>
<event>
 7    1  0.6145388E-006  0.1247329E+03  0.7561462E-02  0.1235487E+00
         -1   -1    0    0    0  501 -0.00000000000E+00  0.00000000000E+00  0.94248157643E+02  0.94248157643E+02  0.00000000000E+00 0.  1.
          1   -1    0    0  501    0  0.00000000000E+00 -0.00000000000E+00 -0.18355117497E+03  0.18355117497E+03  0.00000000000E+00 0. -1.
         23    2    1    2    0    0  0.67700332863E+02 -0.12805133263E+02 -0.70982143724E+02  0.13381805967E+03  0.90119375599E+02 0.  0.
          5    1    1    2  502    0 -0.95423973793E+02 -0.14832715029E+02 -0.32740330613E+02  0.10205462193E+03  0.41800000000E+01 0. -1.
         -5    1    1    2    0  502  0.27723640930E+02  0.27637848291E+02  0.14419457009E+02  0.41926651011E+02  0.41800000000E+01 0. -1.
        -11    1    3    3    0    0  0.29879918905E+02 -0.51365795586E+02 -0.37766006859E+02  0.70409699503E+02  0.00000000000E+00 0.  1.
         11    1    3    3    0    0  0.37820413958E+02  0.38560662324E+02 -0.33216136866E+02  0.63408360167E+02  0.00000000000E+00 0. -1.
</event>
<event>
 7    1  0.6145388E-006  0.9277284E+02  0.7561462E-02  0.1296272E+00
         -2   -1    0    0    0  501 -0.00000000000E+00  0.00000000000E+00  0.65733365424E+02  0.65733365424E+02  0.00000000000E+00 0. -1.
          2   -1    0    0  501    0  0.00000000000E+00 -0.00000000000E+00 -0.21355827960E+03  0.21355827960E+03  0.00000000000E+00 0.  1.
         23    2    1    2    0    0  0.92601648180E+01 -0.20760705621E+02 -0.11867011200E+03  0.14885187441E+03  0.86934040989E+02 0.  0.
          5    1    1    2  502    0  0.43824121892E+02  0.27614179997E+02 -0.50688868903E+02  0.72594286464E+02  0.41800000000E+01 0.  1.
         -5    1    1    2    0  502 -0.53084286710E+02 -0.68534743768E+01  0.21534066729E+02  0.57845484149E+02  0.41800000000E+01 0.  1.
        -11    1    3    3    0    0  0.33192114814E+02  0.15350040760E+02 -0.21400215917E+02  0.42371092486E+02  0.00000000000E+00 0.  1.
         11    1    3    3    0    0 -0.23931949996E+02 -0.36110746381E+02 -0.97269896086E+02  0.10648078193E+03  0.00000000000E+00 0. -1.
</event>
<event>
 7    1  0.6145388E-006  0.2295720E+03  0.7561462E-02  0.1126941E+00
          1   -1    0    0  501    0  0.00000000000E+00  0.00000000000E+00  0.19971688065E+03  0.19971688065E+03  0.00000000000E+00 0. -1.
         -1   -1    0    0    0  501 -0.00000000000E+00 -0.00000000000E+00 -0.40154432032E+03  0.40154432032E+03  0.00000000000E+00 0.  1.
         23    2    1    2    0    0 -0.40675496615E+01  0.22670259097E+03  0.39126703275E+02  0.24753735722E+03  0.91286552129E+02 0.  0.
          5    1    1    2  502    0  0.42959216525E+01 -0.21611215303E+03 -0.15257010189E+03  0.26460919489E+03  0.41800000000E+01 0. -1.
         -5    1    1    2    0  502 -0.22837199097E+00 -0.10590437941E+02 -0.88384041049E+02  0.89114648861E+02  0.41800000000E+01 0. -1.
        -11    1    3    3    0    0 -0.21433765551E+02  0.55746004648E+02 -0.24147748211E+02  0.64421557600E+02  0.00000000000E+00 0.  1.
         11    1    3    3    0    0  0.17366215890E+02  0.17095658632E+03  0.63274451487E+02  0.18311579962E+03  0.00000000000E+00 0. -1.
</event>
<event>
 7    1  0.6145388E-006  0.8366126E+02  0.7561462E-02  0.1318971E+00
         -2   -1    0    0    0  501 -0.00000000000E+00  0.00000000000E+00  0.11422919872E+03  0.11422919872E+03  0.00000000000E+00 0. -1.
          2   -1    0    0  501    0  0.00000000000E+00 -0.00000000000E+00 -0.14709729700E+03  0.14709729700E+03  0.00000000000E+00 0.  1.
         23    2    1    2    0    0 -0.28780346797E+01 -0.47772494851E+02 -0.66596969361E+02  0.12321334539E+03  0.91955847052E+02 0.  0.
          5    1    1    2  502    0  0.17585624185E+02  0.80448195939E+02  0.52194928634E+02  0.97585600285E+02  0.41800000000E+01 0. -1.
         -5    1    1    2    0  502 -0.14707589506E+02 -0.32675701088E+02 -0.18466057560E+02  0.40527550043E+02  0.41800000000E+01 0. -1.
        -11    1    3    3    0    0  0.26645500208E+01 -0.31286720719E+02 -0.89273660498E+02  0.94634798985E+02  0.00000000000E+00 0.  1.
         11    1    3    3    0    0 -0.55425847005E+01 -0.16485774132E+02  0.22676691137E+02  0.28578546409E+02  0.00000000000E+00 0. -1.
</event>
<event>
 7    1  0.6145388E-006  0.2183355E+03  0.7561462E-02  0.1135130E+00
         -1   -1    0    0    0  501 -0.00000000000E+00  0.00000000000E+00  0.29598820843E+03  0.29598820843E+03  0.00000000000E+00 0.  1.
          1   -1    0    0  501    0  0.00000000000E+00 -0.00000000000E+00 -0.16915029487E+03  0.16915029487E+03  0.00000000000E+00 0. -1.
         23    2    1    2    0    0 -0.18570381782E+03  0.60436323313E+02  0.64437400136E+02  0.22497214249E+03  0.91224060591E+02 0.  0.
          5    1    1    2  502    0  0.95627869491E+02 -0.86873277380E+02  0.67947814967E+02  0.14603435796E+03  0.41800000000E+01 0.  1.
         -5    1    1    2    0  502  0.90075948327E+02  0.26436954067E+02 -0.55473015473E+01  0.94132002857E+02  0.41800000000E+01 0.  1.
        -11    1    3    3    0    0 -0.71236908685E+02  0.68316690050E+02  0.14196193442E+02  0.99716594440E+02  0.00000000000E+00 0.  1.
         11    1    3    3    0    0 -0.11446690913E+03 -0.78803667369E+01  0.50241206693E+02  0.12525554805E+03  0.00000000000E+00 0. -1.
</event>
<event>
 7    1  0.6145388E-006  0.8808041E+02  0.7561462E-02  0.1307568E+00
          2   -1    0    0  501    0  0.00000000000E+00  0.00000000000E+00  0.73332579243E+03  0.73332579243E+03  0.00000000000E+00 0. -1.
         -2   -1    0    0    0  501 -0.00000000000E+00 -0.00000000000E+00 -0.16939975210E+02  0.16939975210E+02  0.00000000000E+00 0.  1.
         23    2    1    2    0    0 -0.14580010878E+01  0.23954324113E+02  0.40314236458E+03  0.41564108350E+03  0.98274151033E+02 0.  0.
          5    1    1    2  502    0  0.80044826541E+01  0.24406096181E+02  0.26361499668E+03  0.26489633472E+03  0.41800000000E+01 0. -1.
         -5    1    1    2    0  502 -0.65464815662E+01 -0.48360420294E+02  0.49628455955E+02  0.69728349417E+02  0.41800000000E+01 0.  1.
        -11    1    3    3    0    0 -0.44240567557E+02 -0.11367876623E+02  0.18010177462E+03  0.18580394414E+03  0.00000000000E+00 0.  1.
         11    1    3    3    0    0  0.42782566469E+02  0.35322200736E+02  0.22304058996E+03  0.22983713936E+03  0.00000000000E+00 0. -1.
</event>
<event>
 7    1  0.6145388E-006  0.1300120E+03  0.7561462E-02  0.1227438E+00
          1   -1    0    0  501    0  0.00000000000E+00  0.00000000000E+00  0.12442927505E+03  0.12442927505E+03  0.00000000000E+00 0. -1.
         -1   -1    0    0    0  501 -0.00000000000E+00 -0.00000000000E+00 -0.25700906918E+03  0.25700906918E+03  0.00000000000E+00 0.  1.
         23    2    1    2    0    0  0.93369897396E+02  0.66205705382E+02  0.27945187357E+02  0.14794916721E+03  0.89481223820E+02 0.  0.
          5    1    1    2  502    0 -0.55363160317E+02 -0.40862996248E+02 -0.25450299343E+01  0.68984154412E+02  0.41800000000E+01 0.  1.
         -5    1    1    2    0  502 -0.38006737079E+02 -0.25342709134E+02 -0.15797995155E+03  0.16450502261E+03  0.41800000000E+01 0.  1.
        -11    1    3    3    0    0  0.10314046639E+03  0.29565595392E+02  0.22675467490E+02  0.10966429257E+03  0.00000000000E+00 0.  1.
         11    1    3    3    0    0 -0.97705689987E+01  0.36640109989E+02  0.52697198667E+01  0.38284874638E+02  0.00000000000E+00 0. -1.
</event>
<event>
 6    1  0.1216499E-004  0.7705291E+02  0.7561462E-02  0.1337629E+00
          2   -1    0    0  501    0  0.00000000000E+00  0.00000000000E+00  0.65720420765E+01  0.65720420765E+01  0.00000000000E+00 0. -1.
         -2   -1    0    0    0  501 -0.00000000000E+00 -0.00000000000E+00 -0.20828247839E+04  0.20828247839E+04  0.00000000000E+00 0.  1.
          5    1    1    2  502    0  0.39939494060E+02 -0.47545880643E+02 -0.31822754671E+03  0.32425609916E+03  0.41800000000E+01 0. -1.
         -5    1    1    2    0  502 -0.19932384260E+02  0.62976572254E+02 -0.16996587229E+04  0.17009469702E+04  0.41800000000E+01 0.  1.
        -11    1    1    2    0    0 -0.63706982618E+01 -0.77484477968E+01 -0.31960881790E+02  0.33498092548E+02  0.00000000000E+00 0.  1.
         11    1    1    2    0    0 -0.13636411538E+02 -0.76822438141E+01 -0.26405590451E+02  0.30695664135E+02  0.00000000000E+00 0. -1.
</event>
<event>
 7    1  0.6145388E-006  0.1723006E+03  0.7561462E-02  0.1175470E+00
          2   -1    0    0  501    0  0.00000000000E+00  0.00000000000E+00  0.12563514175E+04  0.12563514175E+04  0.00000000000E+00 0. -1.
         -2   -1    0    0    0  501 -0.00000000000E+00 -0.00000000000E+00 -0.34825695771E+02  0.34825695771E+02  0.00000000000E+00 0.  1.
         23    2    1    2    0    0 -0.39542467723E+02  0.15746188205E+03  0.81122796325E+03  0.83253784898E+03  0.93116113392E+02 0.  0.
          5    1    1    2  502    0  0.46267497966E+02 -0.34599268217E+02  0.24941553032E+03  0.25605345124E+03  0.41800000000E+01 0.  1.
         -5    1    1    2    0  502 -0.67250302430E+01 -0.12286261383E+03  0.16088222814E+03  0.20258581303E+03  0.41800000000E+01 0.  1.
        -11    1    3    3    0    0 -0.12393021237E+02  0.20682998069E+02  0.27815446634E+02  0.36811308805E+02  0.00000000000E+00 0.  1.
         11    1    3    3    0    0 -0.27149446486E+02  0.13677888398E+03  0.78341251662E+03  0.79572654018E+03  0.00000000000E+00 0. -1.
</event>
<event>
 7    1  0.6145388E-006  0.1107461E+03  0.7561462E-02  0.1259195E+00
         -1   -1    0    0    0  501 -0.00000000000E+00  0.00000000000E+00  0.11368980101E+03  0.11368980101E+03  0.00000000000E+00 0.  1.
          1   -1    0    0  501    0  0.00000000000E+00 -0.00000000000E+00 -0.13906613935E+03  0.13906613935E+03  0.00000000000E+00 0. -1.
         23    2    1    2    0    0 -0.21762730180E+02 -0.45378721650E+02 -0.49881297220E+02  0.11571200240E+03  0.91478297335E+02 0.  0.
          5    1    1    2  502    0  0.71556839874E+02  0.32368272000E+02 -0.26714112719E+01  0.78693679564E+02  0.41800000000E+01 0. -1.
         -5    1    1    2    0  502 -0.49794109694E+02  0.13010449650E+02  0.27176370158E+02  0.58350258399E+02  0.41800000000E+01 0. -1.
        -11    1    3    3    0    0 -0.46189848187E+02 -0.48032133948E+02 -0.79476714602E+01  0.67110010049E+02  0.00000000000E+00 0. -1.
         11    1    3    3    0    0  0.24427118007E+02  0.26534122983E+01 -0.41933625760E+02  0.48601992349E+02  0.00000000000E+00 0.  1.
</event>
<event>
 7    1  0.6145388E-006  0.1506446E+03  0.7561462E-02  0.1199683E+00
         -1   -1    0    0    0  501 -0.00000000000E+00  0.00000000000E+00  0.88374089926E+03  0.88374089926E+03  0.00000000000E+00 0.  1.
          1   -1    0    0  501    0  0.00000000000E+00 -0.00000000000E+00 -0.29396816595E+02  0.29396816595E+02  0.00000000000E+00 0. -1.
         23    2    1    2    0    0 -0.76073298933E+02 -0.36122693219E+02  0.22323298736E+03  0.25459541249E+03  0.88847406483E+02 0.  0.
          5    1    1    2  502    0  0.56610586386E+02 -0.63503389441E+02  0.24946794909E+03  0.26360798354E+03  0.41800000000E+01 0. -1.
         -5    1    1    2    0  502  0.19462712548E+02  0.99626082660E+02  0.38164314621E+03  0.39493431982E+03  0.41800000000E+01 0.  1.
        -11    1    3    3    0    0  0.92220906347E+01  0.13113743898E+02  0.80369302194E+01  0.17933473786E+02  0.00000000000E+00 0. -1.
         11    1    3    3    0    0 -0.85295389568E+02 -0.49236437117E+02  0.21519605714E+03  0.23666193870E+03  0.00000000000E+00 0.  1.
</event>
<event>
 7    1  0.6145388E-006  0.1150320E+03  0.7561462E-02  0.1251525E+00
          2   -1    0    0  501    0  0.00000000000E+00  0.00000000000E+00  0.49993093747E+03  0.49993093747E+03  0.00000000000E+00 0.  1.
         -2   -1    0    0    0  501 -0.00000000000E+00 -0.00000000000E+00 -0.33423610186E+02  0.33423610186E+02  0.00000000000E+00 0. -1.
         23    2    1    2    0    0  0.34303850238E+02 -0.60457355527E+02  0.20247234115E+03  0.23303184567E+03  0.92070332827E+02 0.  0.
          5    1    1    2  502    0  0.45008266692E+02  0.48646434461E+01  0.98569150682E+02  0.10854841635E+03  0.41800000000E+01 0. -1.
         -5    1    1    2    0  502 -0.79312116930E+02  0.55592712081E+02  0.16546583545E+03  0.19177428563E+03  0.41800000000E+01 0. -1.
        -11    1    3    3    0    0  0.25038521809E+02  0.14290745260E+01  0.14787250193E+03  0.14998415468E+03  0.00000000000E+00 0.  1.
         11    1    3    3    0    0  0.92653284286E+01 -0.61886430053E+02  0.54599839220E+02  0.83047690988E+02  0.00000000000E+00 0. -1.
</event>
<event>
 7    1  0.6145388E-006  0.1022441E+03  0.7561462E-02  0.1275646E+00
         -1   -1    0    0    0  501 -0.00000000000E+00  0.00000000000E+00  0.35055062349E+03  0.35055062349E+03  0.00000000000E+00 0.  1.
          1   -1    0    0  501    0  0.00000000000E+00 -0.00000000000E+00 -0.66896117003E+02  0.66896117003E+02  0.00000000000E+00 0. -1.
         23    2    1    2    0    0  0.23059142194E+02 -0.51485036792E+02  0.63633251862E+01  0.10806068881E+03  0.91946655762E+02 0.  0.
          5    1    1    2  502    0 -0.66758692090E+02 -0.29626169739E+01  0.14626645877E+03  0.16086282799E+03  0.41800000000E+01 0.  1.
         -5    1    1    2    0  502  0.43699549897E+02  0.54447653766E+02  0.13102472253E+03  0.14852322369E+03  0.41800000000E+01 0.  1.
        -11    1    3    3    0    0  0.32460879265E+02 -0.47140413123E+02  0.41972318563E+02  0.70976071726E+02  0.00000000000E+00 0.  1.
         11    1    3    3    0    0 -0.94017370710E+01 -0.43446236687E+01 -0.35608993377E+02  0.37084617081E+02  0.00000000000E+00 0. -1.
</event>
<event>
 7    1  0.6145388E-006  0.1259467E+03  0.7561462E-02  0.1233597E+00
          2   -1    0    0  501    0  0.00000000000E+00  0.00000000000E+00  0.49848319354E+03  0.49848319354E+03  0.00000000000E+00 0.  1.
         -2   -1    0    0    0  501 -0.00000000000E+00 -0.00000000000E+00 -0.48150642556E+02  0.48150642556E+02  0.00000000000E+00 0. -1.
         23    2    1    2    0    0 -0.36497367223E+02  0.64380235637E+02  0.35271405538E+03  0.37155166713E+03  0.90369042965E+02 0.  0.
          5    1    1    2  502    0  0.32228427219E+02  0.30077422603E+02  0.85147601797E+01  0.45092088135E+02  0.41800000000E+01 0. -1.
         -5    1    1    2    0  502  0.42689400041E+01 -0.94457658240E+02  0.89103735422E+02  0.12999008083E+03  0.41800000000E+01 0. -1.
        -11    1    3    3    0    0  0.12518741009E+02  0.62682838893E+02  0.24493020959E+03  0.25313368946E+03  0.00000000000E+00 0.  1.
         11    1    3    3    0    0 -0.49016108232E+02  0.16973967437E+01  0.10778384579E+03  0.11841797767E+03  0.00000000000E+00 0. -1.
</event>
<event>
 7    1  0.6145388E-006  0.9495496E+02  0.7561462E-02  0.1291278E+00
         -2   -1    0    0    0  501 -0.00000000000E+00  0.00000000000E+00  0.33623078977E+03  0.33623078977E+03  0.00000000000E+00 0.  1.
          2   -1    0    0  501    0  0.00000000000E+00 -0.00000000000E+00 -0.53783505942E+02  0.53783505942E+02  0.00000000000E+00 0. -1.
         23    2    1    2    0    0  0.76453896881E+02  0.15918905466E+02  0.11070149459E+03  0.16364858203E+03  0.91801021754E+02 0.  0.
          5    1    1    2  502    0 -0.66854795256E+02 -0.11039419174E+02  0.15425615296E+02  0.69619353859E+02  0.41800000000E+01 0.  1.
         -5    1    1    2    0  502 -0.95991016246E+01 -0.48794862917E+01  0.15632017394E+03  0.15674635983E+03  0.41800000000E+01 0.  1.
        -11    1    3    3    0    0  0.46653715551E+02  0.47825036710E+02  0.97204856590E+02  0.11795163185E+03  0.00000000000E+00 0.  1.
         11    1    3    3    0    0  0.29800181330E+02 -0.31906131245E+02  0.13496638003E+02  0.45696950179E+02  0.00000000000E+00 0. -1.
</event>
<event>
 7    1  0.6145388E-006  0.3170485E+03  0.7561462E-02  0.1077016E+00
          1   -1    0    0  501    0  0.00000000000E+00  0.00000000000E+00  0.39292687274E+03  0.39292687274E+03  0.00000000000E+00 0. -1.
         -1   -1    0    0    0  501 -0.00000000000E+00 -0.00000000000E+00 -0.28118104066E+03  0.28118104066E+03  0.00000000000E+00 0.  1.
         23    2    1    2    0    0  0.11991246435E+03  0.28466821828E+03  0.10494814246E+03  0.34077769322E+03  0.98490253251E+02 0.  0.
          5    1    1    2  502    0 -0.31025911128E+01 -0.35193259477E+01  0.27443109159E+02  0.28153301175E+02  0.41800000000E+01 0.  1.
         -5    1    1    2    0  502 -0.11680987324E+03 -0.28114889233E+03 -0.20645419532E+02  0.30517691901E+03  0.41800000000E+01 0.  1.
        -11    1    3    3    0    0  0.72329167880E+01  0.13892685057E+03  0.57612308273E+02  0.15057278293E+03  0.00000000000E+00 0. -1.
         11    1    3    3    0    0  0.11267954756E+03  0.14574136771E+03  0.47335834185E+02  0.19020491029E+03  0.00000000000E+00 0.  1.
</event>
<event>
 7    1  0.6145388E-006  0.2107839E+03  0.7561462E-02  0.1140947E+00
          1   -1    0    0  501    0  0.00000000000E+00  0.00000000000E+00  0.29153740532E+03  0.29153740532E+03  0.00000000000E+00 0. -1.
         -1   -1    0    0    0  501 -0.00000000000E+00 -0.00000000000E+00 -0.24525939836E+03  0.24525939836E+03  0.00000000000E+00 0.  1.
         23    2    1    2    0    0 -0.14997912745E+03 -0.11466032490E+03  0.17802578148E+03  0.27479452712E+03  0.90432983380E+02 0.  0.
          5    1    1    2  502    0  0.12779402397E+03  0.29785188380E+02 -0.11060613914E+03  0.17166729574E+03  0.41800000000E+01 0. -1.
         -5    1    1    2    0  502  0.22185103481E+02  0.84875136520E+02 -0.21141635374E+02  0.90334980833E+02  0.41800000000E+01 0. -1.
        -11    1    3    3    0    0 -0.98345934812E+02 -0.11434717526E+03  0.99054135542E+02  0.18044090764E+03  0.00000000000E+00 0.  1.
         11    1    3    3    0    0 -0.51633192642E+02 -0.31314964167E+00  0.78971645938E+02  0.94353619471E+02  0.00000000000E+00 0. -1.
</event>
<event>
 7    1  0.6145388E-006  0.7292542E+02  0.7561462E-02  0.1350418E+00
         -2   -1    0    0    0  501 -0.00000000000E+00  0.00000000000E+00  0.15708068556E+03  0.15708068556E+03  0.00000000000E+00 0.  1.
          2   -1    0    0  501    0  0.00000000000E+00 -0.00000000000E+00 -0.81092092118E+02  0.81092092118E+02  0.00000000000E+00 0. -1.
         23    2    1    2    0    0  0.71185549323E+01  0.22368665405E+02  0.25494576294E+02  0.10124919836E+03  0.95133567846E+02 0.  0.
          5    1    1    2  502    0 -0.39206367698E+02 -0.41920654158E+02  0.72975314474E+02  0.92937341449E+02  0.41800000000E+01 0. -1.
         -5    1    1    2    0  502  0.32087812766E+02  0.19551988753E+02 -0.22481297329E+02  0.43986237869E+02  0.41800000000E+01 0. -1.
        -11    1    3    3    0    0  0.21077514838E+02  0.28333967636E+02  0.56556608193E+02  0.66676272272E+02  0.00000000000E+00 0.  1.
         11    1    3    3    0    0 -0.13958959906E+02 -0.59653022317E+01 -0.31062031899E+02  0.34572926085E+02  0.00000000000E+00 0. -1.
</event>
<event>
 7    1  0.6145388E-006  0.1357821E+03  0.7561462E-02  0.1219120E+00
          2   -1    0    0  501    0  0.00000000000E+00  0.00000000000E+00  0.24537887543E+03  0.24537887543E+03  0.00000000000E+00 0. -1.
         -2   -1    0    0    0  501 -0.00000000000E+00 -0.00000000000E+00 -0.91831972147E+02  0.91831972147E+02  0.00000000000E+00 0.  1.
         23    2    1    2    0    0 -0.39104594485E+01  0.10229086813E+03  0.88711224829E+02  0.16305611501E+03  0.90768396676E+02 0.  0.
          5    1    1    2  502    0  0.19284283866E+02  0.20268553992E+02  0.38524563071E+02  0.47794479231E+02  0.41800000000E+01 0.  1.
         -5    1    1    2    0  502 -0.15373824418E+02 -0.12255942213E+03  0.26311115380E+02  0.12636025333E+03  0.41800000000E+01 0.  1.
        -11    1    3    3    0    0  0.24310726884E+02  0.16521766860E+02 -0.82841854691E+01  0.30538630465E+02  0.00000000000E+00 0.  1.
         11    1    3    3    0    0 -0.28221186333E+02  0.85769101275E+02  0.96995410298E+02  0.13251748455E+03  0.00000000000E+00 0. -1.
</event>
<event>
 7    1  0.6145388E-006  0.1113060E+03  0.7561462E-02  0.1258170E+00
          1   -1    0    0  501    0  0.00000000000E+00  0.00000000000E+00  0.26436972254E+02  0.26436972254E+02  0.00000000000E+00 0. -1.
         -1   -1    0    0    0  501 -0.00000000000E+00 -0.00000000000E+00 -0.69725983770E+03  0.69725983770E+03  0.00000000000E+00 0.  1.
         23    2    1    2    0    0  0.24473334520E+02 -0.72192062899E+02 -0.22042594500E+03  0.25007727571E+03  0.90224212657E+02 0.  0.
          5    1    1    2  502    0  0.22792762897E+02 -0.12026801328E+02 -0.21084303529E+02  0.33558519723E+02  0.41800000000E+01 0.  1.
         -5    1    1    2    0  502 -0.47266097416E+02  0.84218864228E+02 -0.42931261692E+03  0.44006101452E+03  0.41800000000E+01 0.  1.
        -11    1    3    3    0    0 -0.71646773481E-01  0.12071740854E+02  0.77923219582E+00  0.12097076644E+02  0.00000000000E+00 0. -1.
         11    1    3    3    0    0  0.24544981293E+02 -0.84263803754E+02 -0.22120517720E+03  0.23798019907E+03  0.00000000000E+00 0.  1.
</event>
<event>
 7    1  0.6145388E-006  0.1015834E+03  0.7561462E-02  0.1277001E+00
          1   -1    0    0  501    0  0.00000000000E+00  0.00000000000E+00  0.29912549106E+02  0.29912549106E+02  0.00000000000E+00 0. -1.
         -1   -1    0    0    0  501 -0.00000000000E+00 -0.00000000000E+00 -0.51113886328E+03  0.51113886328E+03  0.00000000000E+00 0.  1.
         23    2    1    2    0    0 -0.42677061406E+02  0.34269125762E+02 -0.15001382633E+03  0.18279687338E+03  0.88965410573E+02 0.  0.
          5    1    1    2  502    0 -0.23714831402E+02  0.13452935014E+02 -0.21109558379E+03  0.21289009509E+03  0.41800000000E+01 0. -1.
         -5    1    1    2    0  502  0.66391892809E+02 -0.47722060777E+02 -0.12011690405E+03  0.14536444392E+03  0.41800000000E+01 0. -1.
        -11    1    3    3    0    0 -0.40413240775E+02  0.57549977805E+02 -0.69178163535E+02  0.98645062144E+02  0.00000000000E+00 0. -1.
         11    1    3    3    0    0 -0.22638206311E+01 -0.23280852043E+02 -0.80835662791E+02  0.84151811237E+02  0.00000000000E+00 0.  1.
</event>
<event>
 7    1  0.6145388E-006  0.1280020E+03  0.7561462E-02  0.1230451E+00
         -2   -1    0    0    0  501 -0.00000000000E+00  0.00000000000E+00  0.11303433639E+03  0.11303433639E+03  0.00000000000E+00 0. -1.
          2   -1    0    0  501    0  0.00000000000E+00 -0.00000000000E+00 -0.17672528122E+03  0.17672528122E+03  0.00000000000E+00 0.  1.
         23    2    1    2    0    0  0.74474192919E+02  0.50181657847E+02 -0.41413026351E+02  0.13416672722E+03  0.90670103923E+02 0.  0.
          5    1    1    2  502    0 -0.52770950435E+02  0.30718721029E+02  0.16215781906E+02  0.63315377392E+02  0.41800000000E+01 0. -1.
         -5    1    1    2    0  502 -0.21703242484E+02 -0.80900378876E+02 -0.38493700388E+02  0.92277513004E+02  0.41800000000E+01 0. -1.
        -11    1    3    3    0    0  0.82444538192E+02  0.27525698759E+02 -0.72739099305E+00  0.86921200334E+02  0.00000000000E+00 0. -1.
         11    1    3    3    0    0 -0.79703452727E+01  0.22655959088E+02 -0.40685635358E+02  0.47245526883E+02  0.00000000000E+00 0.  1.
</event>
<event>
 7    1  0.6145388E-006  0.1134378E+03  0.7561462E-02  0.1254333E+00
          1   -1    0    0  501    0  0.00000000000E+00  0.00000000000E+00  0.51316914421E+03  0.51316914421E+03  0.00000000000E+00 0. -1.
         -1   -1    0    0    0  501 -0.00000000000E+00 -0.00000000000E+00 -0.30635369348E+02  0.30635369348E+02  0.00000000000E+00 0.  1.
         23    2    1    2    0    0  0.12405585186E+01 -0.36372534284E+02  0.32354762564E+03  0.33826130595E+03  0.91723196690E+02 0.  0.
          5    1    1    2  502    0  0.26050151298E+02  0.75927460432E+02  0.83026904928E+02  0.11556179720E+03  0.41800000000E+01 0.  1.
         -5    1    1    2    0  502 -0.27290709817E+02 -0.39554926147E+02  0.75959244296E+02  0.89981410407E+02  0.41800000000E+01 0.  1.
        -11    1    3    3    0    0  0.39087487459E+01  0.30792385803E+02  0.88178068209E+02  0.93481661588E+02  0.00000000000E+00 0.  1.
         11    1    3    3    0    0 -0.26681902272E+01 -0.67164920088E+02  0.23536955743E+03  0.24477964436E+03  0.00000000000E+00 0. -1.
</event>
<event>
 7    1  0.6145388E-006  0.5770021E+02  0.7561462E-02  0.1407744E+00
          1   -1    0    0  501    0  0.00000000000E+00  0.00000000000E+00  0.23597835905E+03  0.23597835905E+03  0.00000000000E+00 0. -1.
         -1   -1    0    0    0  501 -0.00000000000E+00 -0.00000000000E+00 -0.10087177853E+03  0.10087177853E+03  0.00000000000E+00 0.  1.
         23    2    1    2    0    0  0.26370336207E+02  0.38507227324E+02  0.17072684874E+03  0.19866777693E+03  0.90238725171E+02 0.  0.
          5    1    1    2  502    0 -0.84162744983E+00 -0.83530699817E+01  0.46244665641E+02  0.47186053184E+02  0.41800000000E+01 0. -1.
         -5    1    1    2    0  502 -0.25528708757E+02 -0.30154157342E+02 -0.81864933860E+02  0.90996307462E+02  0.41800000000E+01 0. -1.
        -11    1    3    3    0    0 -0.13510771991E+02  0.14134742157E+02 -0.20689331474E+01  0.19662461189E+02  0.00000000000E+00 0.  1.
         11    1    3    3    0    0  0.39881108198E+02  0.24372485167E+02  0.17279578189E+03  0.17900531574E+03  0.00000000000E+00 0. -1.
</event>
<event>
 7    1  0.6145388E-006  0.1067058E+03  0.7561462E-02  0.1266795E+00
          3   -1    0    0  501    0  0.00000000000E+00  0.00000000000E+00  0.95270804802E+02  0.95270804802E+02  0.00000000000E+00 0. -1.
         -3   -1    0    0    0  501 -0.00000000000E+00 -0.00000000000E+00 -0.28132279924E+03  0.28132279924E+03  0.00000000000E+00 0.  1.
         23    2    1    2    0    0  0.88330395955E+01 -0.64811058551E+02  0.31059851553E+02  0.11762757498E+03  0.92698630622E+02 0.  0.
          5    1    1    2  502    0 -0.66267608999E+02  0.40538449070E+02 -0.10598337187E+03  0.13147132527E+03  0.41800000000E+01 0.  1.
         -5    1    1    2    0  502  0.57434569404E+02  0.24272609481E+02 -0.11112847412E+03  0.12749470378E+03  0.41800000000E+01 0.  1.
        -11    1    3    3    0    0 -0.12394883073E+02 -0.19849356073E+02  0.56949427141E+02  0.61570019608E+02  0.00000000000E+00 0. -1.
         11    1    3    3    0    0  0.21227922669E+02 -0.44961702478E+02 -0.25889575588E+02  0.56057555376E+02  0.00000000000E+00 0.  1.
</event>
<event>
 7    1  0.6145388E-006  0.8505796E+02  0.7561462E-02  0.1315281E+00
         -2   -1    0    0    0  501 -0.00000000000E+00  0.00000000000E+00  0.26762325206E+02  0.26762325206E+02  0.00000000000E+00 0.  1.
          2   -1    0    0  501    0  0.00000000000E+00 -0.00000000000E+00 -0.50348847138E+03  0.50348847138E+03  0.00000000000E+00 0. -1.
         23    2    1    2    0    0 -0.19212759916E+02 -0.89651198835E+01 -0.29009793016E+03  0.30440038403E+03  0.89740075752E+02 0.  0.
          5    1    1    2  502    0  0.56127690433E+01 -0.32948343778E+02 -0.17748556974E+03  0.18065352584E+03  0.41800000000E+01 0. -1.
         -5    1    1    2    0  502  0.13599990873E+02  0.41913463662E+02 -0.91426462776E+01  0.45196886716E+02  0.41800000000E+01 0. -1.
        -11    1    3    3    0    0  0.29188862979E+02 -0.27727402259E+02 -0.12225349714E+03  0.12871175595E+03  0.00000000000E+00 0.  1.
         11    1    3    3    0    0 -0.48401622895E+02  0.18762282375E+02 -0.16784443302E+03  0.17568862808E+03  0.00000000000E+00 0. -1.
</event>
<event>
 6    1  0.6145388E-006  0.1178251E+03  0.7561462E-02  0.1246729E+00
          1   -1    0    0  501    0  0.00000000000E+00  0.00000000000E+00  0.33288537585E+03  0.33288537585E+03  0.00000000000E+00 0. -1.
         -1   -1    0    0    0  501 -0.00000000000E+00 -0.00000000000E+00 -0.86289630033E+02  0.86289630033E+02  0.00000000000E+00 0.  1.
          5    1    1    2  502    0  0.59368780597E+02 -0.31837898505E+01 -0.23418751346E+02  0.64036699962E+02  0.41800000000E+01 0.  1.
         -5    1    1    2    0  502  0.26256371926E+02 -0.89936166405E+01  0.10472162802E+03  0.10841759074E+03  0.41800000000E+01 0.  1.
        -11    1    1    2    0    0 -0.11475772093E+03  0.22749473246E+02  0.49812564088E+02  0.12715409780E+03  0.00000000000E+00 0.  1.
         11    1    1    2    0    0  0.29132568404E+02 -0.10572066755E+02  0.11548030506E+03  0.11956661739E+03  0.00000000000E+00 0. -1.
</event>
<event>
 7    1  0.6145388E-006  0.7568649E+02  0.7561462E-02  0.1341758E+00
         -2   -1    0    0    0  501 -0.00000000000E+00  0.00000000000E+00  0.12783503574E+02  0.12783503574E+02  0.00000000000E+00 0.  1.
          2   -1    0    0  501    0  0.00000000000E+00 -0.00000000000E+00 -0.10081406355E+04  0.10081406355E+04  0.00000000000E+00 0. -1.
         23    2    1    2    0    0  0.16413630496E+02 -0.22154456974E+02 -0.53437472536E+03  0.54249728370E+03  0.89368498333E+02 0.  0.
          5    1    1    2  502    0 -0.33344832643E+02  0.59319926142E+01 -0.26278333763E+02  0.43070751395E+02  0.41800000000E+01 0. -1.
         -5    1    1    2    0  502  0.16931202147E+02  0.16222464360E+02 -0.43470407278E+03  0.43535610395E+03  0.41800000000E+01 0. -1.
        -11    1    3    3    0    0  0.61420735874E+01  0.34910877448E+02 -0.19096645537E+03  0.19422842611E+03  0.00000000000E+00 0.  1.
         11    1    3    3    0    0  0.10271556909E+02 -0.57065334423E+02 -0.34340826999E+03  0.34826885759E+03  0.00000000000E+00 0. -1.
</event>
<event>
 7    1  0.6145388E-006  0.8470404E+02  0.7561462E-02  0.1316208E+00
          1   -1    0    0  501    0  0.00000000000E+00  0.00000000000E+00  0.61924839142E+02  0.61924839142E+02  0.00000000000E+00 0. -1.
         -1   -1    0    0    0  501 -0.00000000000E+00 -0.00000000000E+00 -0.40293446601E+03  0.40293446601E+03  0.00000000000E+00 0.  1.
         23    2    1    2    0    0  0.71888103985E+02  0.31002635717E+02 -0.37643809331E+02  0.12750619321E+03  0.93336541666E+02 0.  0.
          5    1    1    2  502    0 -0.98595618840E+01 -0.26145846025E+02 -0.25968523631E+03  0.26121774553E+03  0.41800000000E+01 0. -1.
         -5    1    1    2    0  502 -0.62028542101E+02 -0.48567896920E+01 -0.43680581222E+02  0.76135366402E+02  0.41800000000E+01 0. -1.
        -11    1    3    3    0    0  0.13006657643E+02  0.95161301453E+01  0.30761179866E+02  0.34727223654E+02  0.00000000000E+00 0. -1.
         11    1    3    3    0    0  0.58881446342E+02  0.21486505572E+02 -0.68404989197E+02  0.92778969557E+02  0.00000000000E+00 0.  1.
</event>
<event>
 7    1  0.6145388E-006  0.1326205E+03  0.7561462E-02  0.1223618E+00
         -2   -1    0    0    0  501 -0.00000000000E+00  0.00000000000E+00  0.13661685601E+03  0.13661685601E+03  0.00000000000E+00 0.  1.
          2   -1    0    0  501    0  0.00000000000E+00 -0.00000000000E+00 -0.16389600822E+03  0.16389600822E+03  0.00000000000E+00 0. -1.
         23    2    1    2    0    0  0.57075247297E+02  0.58529258678E+02 -0.73694771920E+02  0.14403515697E+03  0.92908283045E+02 0.  0.
          5    1    1    2  502    0 -0.96331424549E+02 -0.42822438187E+02  0.23062136887E+02  0.10799462545E+03  0.41800000000E+01 0. -1.
         -5    1    1    2    0  502  0.39256177252E+02 -0.15706820491E+02  0.23353482825E+02  0.48483081817E+02  0.41800000000E+01 0. -1.
        -11    1    3    3    0    0  0.70222526826E+02  0.70473151675E+02 -0.42598573437E+02  0.10822341170E+03  0.00000000000E+00 0.  1.
         11    1    3    3    0    0 -0.13147279529E+02 -0.11943892997E+02 -0.31096198483E+02  0.35811745267E+02  0.00000000000E+00 0. -1.
</event>
<event>
 7    1  0.6145388E-006  0.1034094E+03  0.7561462E-02  0.1273285E+00
         -1   -1    0    0    0  501 -0.00000000000E+00  0.00000000000E+00  0.91698734366E+03  0.91698734366E+03  0.00000000000E+00 0.  1.
          1   -1    0    0  501    0  0.00000000000E+00 -0.00000000000E+00 -0.19217519622E+02  0.19217519622E+02  0.00000000000E+00 0. -1.
         23    2    1    2    0    0  0.58316767715E+02 -0.15415024490E+02  0.23722679915E+03  0.26125535672E+03  0.91319980291E+02 0.  0.
          5    1    1    2  502    0  0.17779230376E+02 -0.22908250726E+02  0.39402589337E+03  0.39511361154E+03  0.41800000000E+01 0.  1.
         -5    1    1    2    0  502 -0.76095998091E+02  0.38323275216E+02  0.26651713152E+03  0.27983589502E+03  0.41800000000E+01 0.  1.
        -11    1    3    3    0    0 -0.15670831677E+02 -0.87041250302E+01  0.68398408323E+01  0.19186458261E+02  0.00000000000E+00 0. -1.
         11    1    3    3    0    0  0.73987599393E+02 -0.67108994594E+01  0.23038695832E+03  0.24206889845E+03  0.00000000000E+00 0.  1.
</event>
<event>
 7    1  0.6145388E-006  0.1320467E+03  0.7561462E-02  0.1224450E+00
         -2   -1    0    0    0  501 -0.00000000000E+00  0.00000000000E+00  0.81090066840E+02  0.81090066840E+02  0.00000000000E+00 0.  1.
          2   -1    0    0  501    0  0.00000000000E+00 -0.00000000000E+00 -0.37145407280E+03  0.37145407280E+03  0.00000000000E+00 0. -1.
         23    2    1    2    0    0  0.67704656664E+02  0.60796365293E+02 -0.26671229676E+03  0.29606099563E+03  0.90755414850E+02 0.  0.
          5    1    1    2  502    0 -0.91835283223E+02 -0.10045531582E+02  0.62533862564E+01  0.92688775960E+02  0.41800000000E+01 0. -1.
         -5    1    1    2    0  502  0.24130626559E+02 -0.50750833711E+02 -0.29905095458E+02  0.63794368050E+02  0.41800000000E+01 0. -1.
        -11    1    3    3    0    0  0.26317016574E+02  0.68307078178E+02 -0.98816425475E+02  0.12297612872E+03  0.00000000000E+00 0. -1.
         11    1    3    3    0    0  0.41387640090E+02 -0.75107128847E+01 -0.16789587129E+03  0.17308486692E+03  0.00000000000E+00 0.  1.
</event>
<event>
 7    1  0.6145388E-006  0.1299859E+03  0.7561462E-02  0.1227477E+00
          4   -1    0    0  501    0  0.00000000000E+00  0.00000000000E+00  0.74712803082E+02  0.74712803082E+02  0.00000000000E+00 0. -1.
         -4   -1    0    0    0  501 -0.00000000000E+00 -0.00000000000E+00 -0.27497633173E+03  0.27497633173E+03  0.00000000000E+00 0.  1.
         23    2    1    2    0    0 -0.85983154457E+02 -0.39224770628E+01 -0.51478235551E+02  0.13710197540E+03  0.93479699654E+02 0.  0.
          5    1    1    2  502    0  0.11129109526E+03 -0.40645524911E+01 -0.75705698063E+02  0.13472584604E+03  0.41800000000E+01 0.  1.
         -5    1    1    2    0  502 -0.25307940808E+02  0.79870295538E+01 -0.73079595030E+02  0.77861313364E+02  0.41800000000E+01 0.  1.
        -11    1    3    3    0    0  0.16524106607E+02 -0.93968870656E+01 -0.24412377398E+02  0.30940455005E+02  0.00000000000E+00 0.  1.
         11    1    3    3    0    0 -0.10250726106E+03  0.54744100028E+01 -0.27065858153E+02  0.10616152040E+03  0.00000000000E+00 0. -1.
</event>
<event>
 7    1  0.6145388E-006  0.8814259E+02  0.7561462E-02  0.1307413E+00
         -1   -1    0    0    0  501 -0.00000000000E+00  0.00000000000E+00  0.14789825039E+03  0.14789825039E+03  0.00000000000E+00 0.  1.
          1   -1    0    0  501    0  0.00000000000E+00 -0.00000000000E+00 -0.32034174484E+03  0.32034174484E+03  0.00000000000E+00 0. -1.
         23    2    1    2    0    0  0.14706445995E+01 -0.88588321777E+01 -0.29054210208E+03  0.30506733677E+03  0.92578211155E+02 0.  0.
          5    1    1    2  502    0  0.32674268294E+02 -0.21056934568E+02  0.28085535039E+01  0.39196462528E+02  0.41800000000E+01 0. -1.
         -5    1    1    2    0  502 -0.34144912893E+02  0.29915766746E+02  0.11529005413E+03  0.12397619593E+03  0.41800000000E+01 0.  1.
        -11    1    3    3    0    0 -0.27360477330E+02  0.31677405536E+02 -0.10676275958E+03  0.11467493438E+03  0.00000000000E+00 0.  1.
         11    1    3    3    0    0  0.28831121930E+02 -0.40536237714E+02 -0.18377934250E+03  0.19039240240E+03  0.00000000000E+00 0. -1.
</event>
<event>
 7    1  0.6145388E-006  0.2093858E+03  0.7561462E-02  0.1142053E+00
         -2   -1    0    0    0  501 -0.00000000000E+00  0.00000000000E+00  0.14071694636E+03  0.14071694636E+03  0.00000000000E+00 0.  1.
          2   -1    0    0  501    0  0.00000000000E+00 -0.00000000000E+00 -0.36581542779E+03  0.36581542779E+03  0.00000000000E+00 0. -1.
         23    2    1    2    0    0 -0.32684634543E+02 -0.19522755026E+03 -0.13117508292E+03  0.25424111670E+03  0.90827095789E+02 0.  0.
          5    1    1    2  502    0 -0.76863960001E+01  0.39285357970E+02  0.29011041083E+02  0.49613838180E+02  0.41800000000E+01 0. -1.
         -5    1    1    2    0  502  0.40371030543E+02  0.15594219229E+03 -0.12293443959E+03  0.20267741927E+03  0.41800000000E+01 0. -1.
        -11    1    3    3    0    0  0.30761074618E+02 -0.82230269893E+02 -0.45448982151E+02  0.98861878279E+02  0.00000000000E+00 0. -1.
         11    1    3    3    0    0 -0.63445709161E+02 -0.11299728036E+03 -0.85726100764E+02  0.15537923842E+03  0.00000000000E+00 0.  1.
</event>
<event>
 7    1  0.6145388E-006  0.1171733E+03  0.7561462E-02  0.1247834E+00
         -3   -1    0    0    0  501 -0.00000000000E+00  0.00000000000E+00  0.12002343249E+03  0.12002343249E+03  0.00000000000E+00 0.  1.
          3   -1    0    0  501    0  0.00000000000E+00 -0.00000000000E+00 -0.66704094755E+03  0.66704094755E+03  0.00000000000E+00 0. -1.
         23    2    1    2    0    0 -0.16517935726E+02  0.69124851265E+02 -0.62187738524E+03  0.63260894110E+03  0.91714245470E+02 0.  0.
          5    1    1    2  502    0  0.50843472129E+02 -0.66731698467E+02  0.15061564489E+02  0.85337572987E+02  0.41800000000E+01 0. -1.
         -5    1    1    2    0  502 -0.34325536403E+02 -0.23931527980E+01  0.59798305697E+02  0.69117865953E+02  0.41800000000E+01 0.  1.
        -11    1    3    3    0    0 -0.27660501358E+02 -0.14563338718E+02 -0.14732254924E+03  0.15060254873E+03  0.00000000000E+00 0.  1.
         11    1    3    3    0    0  0.11142565632E+02  0.83688189983E+02 -0.47455483600E+03  0.48200639237E+03  0.00000000000E+00 0. -1.
</event>
<event>
 7    1  0.6145388E-006  0.1708818E+03  0.7561462E-02  0.1176931E+00
          3   -1    0    0  501    0  0.00000000000E+00  0.00000000000E+00  0.54518164651E+03  0.54518164651E+03  0.00000000000E+00 0. -1.
         -3   -1    0    0    0  501 -0.00000000000E+00 -0.00000000000E+00 -0.69666259087E+02  0.69666259087E+02  0.00000000000E+00 0.  1.
         23    2    1    2    0    0 -0.12613739136E+03  0.40254957150E+02  0.36593937967E+03  0.40228091900E+03  0.10191763890E+03 0.  0.
          5    1    1    2  502    0  0.14018120923E+03 -0.62549527540E+02  0.81540843362E+02  0.17386660506E+03  0.41800000000E+01 0. -1.
         -5    1    1    2    0  502 -0.14043817870E+02  0.22294570390E+02  0.28035164384E+02  0.38700381539E+02  0.41800000000E+01 0. -1.
        -11    1    3    3    0    0 -0.19982275117E+02 -0.28677379305E+02  0.42940441157E+02  0.55367543647E+02  0.00000000000E+00 0.  1.
         11    1    3    3    0    0 -0.10615511625E+03  0.68932336456E+02  0.32299893852E+03  0.34691337535E+03  0.00000000000E+00 0. -1.
</event>
<event>
 7    1  0.6145388E-006  0.1617823E+03  0.7561462E-02  0.1186699E+00
          1   -1    0    0  501    0  0.00000000000E+00  0.00000000000E+00  0.48362092250E+02  0.48362092250E+02  0.00000000000E+00 0. -1.
         -1   -1    0    0    0  501 -0.00000000000E+00 -0.00000000000E+00 -0.70301629091E+03  0.70301629091E+03  0.00000000000E+00 0.  1.
         23    2    1    2    0    0 -0.99073114428E+02 -0.92872129589E+02 -0.17960766234E+03  0.24171458484E+03  0.87899452205E+02 0.  0.
          5    1    1    2  502    0  0.24000533944E+02  0.95197516056E+02 -0.35187017118E+03  0.36533365908E+03  0.41800000000E+01 0.  1.
         -5    1    1    2    0  502  0.75072580484E+02 -0.23253864669E+01 -0.12317636514E+03  0.14433013924E+03  0.41800000000E+01 0.  1.
        -11    1    3    3    0    0 -0.34726996334E+02  0.27306450256E+01 -0.87529295014E+02  0.94206147264E+02  0.00000000000E+00 0.  1.
         11    1    3    3    0    0 -0.64346118093E+02 -0.95602774614E+02 -0.92078367327E+02  0.14750843758E+03  0.00000000000E+00 0. -1.
</event>
<event>
 7    1  0.6145388E-006  0.1093692E+03  0.7561462E-02  0.1261743E+00
          1   -1    0    0  501    0  0.00000000000E+00  0.00000000000E+00  0.32901801520E+03  0.32901801520E+03  0.00000000000E+00 0. -1.
         -1   -1    0    0    0  501 -0.00000000000E+00 -0.00000000000E+00 -0.63929474244E+02  0.63929474244E+02  0.00000000000E+00 0.  1.
         23    2    1    2    0    0  0.84262955343E+02  0.42254073289E+02  0.14483333402E+03  0.19547725213E+03  0.91372912307E+02 0.  0.
          5    1    1    2  502    0 -0.36048140075E+02  0.22910818969E+02  0.10692029647E+03  0.11521196216E+03  0.41800000000E+01 0. -1.
         -5    1    1    2    0  502 -0.48214815268E+02 -0.65164892258E+02  0.13334910471E+02  0.82258275156E+02  0.41800000000E+01 0. -1.
        -11    1    3    3    0    0  0.30883743290E+02  0.10934184542E+02  0.12687277140E+03  0.13103458365E+03  0.00000000000E+00 0. -1.
         11    1    3    3    0    0  0.53379212053E+02  0.31319888747E+02  0.17960562626E+02  0.64442668476E+02  0.00000000000E+00 0.  1.
</event>
<event>
 7    1  0.6145388E-006  0.1450745E+03  0.7561462E-02  0.1206659E+00
         -2   -1    0    0    0  501 -0.00000000000E+00  0.00000000000E+00  0.53958303188E+02  0.53958303188E+02  0.00000000000E+00 0. -1.
          2   -1    0    0  501    0  0.00000000000E+00 -0.00000000000E+00 -0.79475824392E+03  0.79475824392E+03  0.00000000000E+00 0.  1.
         23    2    1    2    0    0  0.43092424634E+02  0.11265979888E+03 -0.61901684334E+03  0.63651989194E+03  0.86177335552E+02 0.  0.
          5    1    1    2  502    0  0.16144132677E+02 -0.23383104653E+01 -0.77505967648E+02  0.79314236659E+02  0.41800000000E+01 0.  1.
         -5    1    1    2    0  502 -0.59236557311E+02 -0.11032148841E+03 -0.44277129743E+02  0.13288241850E+03  0.41800000000E+01 0.  1.
        -11    1    3    3    0    0 -0.10707792847E+02  0.88326721288E+02 -0.35486039225E+03  0.36584445398E+03  0.00000000000E+00 0. -1.
         11    1    3    3    0    0  0.53800217481E+02  0.24333077592E+02 -0.26415645109E+03  0.27067543797E+03  0.00000000000E+00 0.  1.
</event>
<event>
 7    1  0.6145388E-006  0.1406005E+03  0.7561462E-02  0.1212523E+00
          1   -1    0    0  501    0  0.00000000000E+00  0.00000000000E+00  0.57168673312E+03  0.57168673312E+03  0.00000000000E+00 0. -1.
         -1   -1    0    0    0  501 -0.00000000000E+00 -0.00000000000E+00 -0.38125215086E+02  0.38125215086E+02  0.00000000000E+00 0.  1.
         23    2    1    2    0    0 -0.30636035263E+02 -0.91951731797E+02  0.19904182969E+03  0.23975203619E+03  0.92030979864E+02 0.  0.
          5    1    1    2  502    0 -0.16277900474E+02 -0.20353420895E+02  0.21036227775E+02  0.33752437912E+02  0.41800000000E+01 0. -1.
         -5    1    1    2    0  502  0.46913935737E+02  0.11230515269E+03  0.31348346057E+03  0.33630747410E+03  0.41800000000E+01 0. -1.
        -11    1    3    3    0    0 -0.52909124940E+02 -0.18151749683E+02  0.95324135211E+02  0.11052398958E+03  0.00000000000E+00 0.  1.
         11    1    3    3    0    0  0.22273089677E+02 -0.73799982113E+02  0.10371769448E+03  0.12922804662E+03  0.00000000000E+00 0. -1.
</event>
<event>
 7    1  0.6145388E-006  0.1179437E+03  0.7561462E-02  0.1246528E+00
         -2   -1    0    0    0  501 -0.00000000000E+00  0.00000000000E+00  0.13690993475E+02  0.13690993475E+02  0.00000000000E+00 0.  1.
          2   -1    0    0  501    0  0.00000000000E+00 -0.00000000000E+00 -0.10819379755E+04  0.10819379755E+04  0.00000000000E+00 0. -1.
         23    2    1    2    0    0 -0.53570149462E+02  0.52734778466E+01 -0.44697932172E+03  0.45961107477E+03  0.92489218441E+02 0.  0.
          5    1    1    2  502    0 -0.40060651320E+01  0.53378012872E+02 -0.22885889448E+03  0.23507259899E+03  0.41800000000E+01 0.  1.
         -5    1    1    2    0  502  0.57576214594E+02 -0.58651490719E+02 -0.39240876578E+03  0.40094529516E+03  0.41800000000E+01 0.  1.
        -11    1    3    3    0    0 -0.51931751567E+02  0.39742013469E+02 -0.36257971125E+03  0.36842961535E+03  0.00000000000E+00 0.  1.
         11    1    3    3    0    0 -0.16383978949E+01 -0.34468535622E+02 -0.84399610471E+02  0.91181459427E+02  0.00000000000E+00 0. -1.
</event>
<event>
 7    1  0.6145388E-006  0.1061993E+03  0.7561462E-02  0.1267775E+00
         -2   -1    0    0    0  501 -0.00000000000E+00  0.00000000000E+00  0.25649221682E+02  0.25649221682E+02  0.00000000000E+00 0.  1.
          2   -1    0    0  501    0  0.00000000000E+00 -0.00000000000E+00 -0.57221650774E+03  0.57221650774E+03  0.00000000000E+00 0. -1.
         23    2    1    2    0    0 -0.16067366648E+02 -0.52005993654E+02 -0.23783589470E+03  0.26033738231E+03  0.90812202780E+02 0.  0.
          5    1    1    2  502    0  0.37095922183E+02 -0.14258090003E+02 -0.22544569167E+03  0.22895989358E+03  0.41800000000E+01 0. -1.
         -5    1    1    2    0  502 -0.21028555535E+02  0.66264083657E+02 -0.83285699685E+02  0.10856845353E+03  0.41800000000E+01 0. -1.
        -11    1    3    3    0    0  0.35081047285E+02 -0.33185295770E+02 -0.81009260656E+02  0.94310360227E+02  0.00000000000E+00 0.  1.
         11    1    3    3    0    0 -0.51148413933E+02 -0.18820697884E+02 -0.15682663404E+03  0.16602702208E+03  0.00000000000E+00 0. -1.
</event>
<event>
 7    1  0.6145388E-006  0.1339282E+03  0.7561462E-02  0.1221741E+00
          2   -1    0    0  501    0  0.00000000000E+00  0.00000000000E+00  0.91792682133E+03  0.91792682133E+03  0.00000000000E+00 0.  1.
         -2   -1    0    0    0  501 -0.00000000000E+00 -0.00000000000E+00 -0.20016531167E+02  0.20016531167E+02  0.00000000000E+00 0. -1.
         23    2    1    2    0    0 -0.41939507749E+02  0.66544756932E+02  0.45220165724E+03  0.46837718446E+03  0.93293735753E+02 0.  0.
          5    1    1    2  502    0 -0.20983509563E+02 -0.80405668006E+02  0.25115266956E+03  0.26457610426E+03  0.41800000000E+01 0.  1.
         -5    1    1    2    0  502  0.62923017312E+02  0.13860911075E+02  0.19455596337E+03  0.20499006377E+03  0.41800000000E+01 0.  1.
        -11    1    3    3    0    0 -0.67450299196E+02  0.26216634390E+02  0.31180084626E+03  0.32008846044E+03  0.00000000000E+00 0.  1.
         11    1    3    3    0    0  0.25510791447E+02  0.40328122542E+02  0.14040081098E+03  0.14828872402E+03  0.00000000000E+00 0. -1.
</event>
<event>
 7    1  0.6145388E-006  0.1181245E+03  0.7561462E-02  0.1246223E+00
          1   -1    0    0  501    0  0.00000000000E+00  0.00000000000E+00  0.44879725723E+02  0.44879725723E+02  0.00000000000E+00 0. -1.
         -1   -1    0    0    0  501 -0.00000000000E+00 -0.00000000000E+00 -0.33162446699E+03  0.33162446699E+03  0.00000000000E+00 0.  1.
         23    2    1    2    0    0  0.24746686056E+02 -0.55142510847E+02 -0.12237553060E+03  0.16466725633E+03  0.92121874951E+02 0.  0.
          5    1    1    2  502    0 -0.69375763007E+02  0.55100467881E+02 -0.10499792646E+03  0.13744487991E+03  0.41800000000E+01 0. -1.
         -5    1    1    2    0  502  0.44629076951E+02  0.42042966114E-01 -0.59371284207E+02  0.74392056468E+02  0.41800000000E+01 0.  1.
        -11    1    3    3    0    0  0.26997938142E+02 -0.76567655340E+02 -0.11709289487E+03  0.14248593101E+03  0.00000000000E+00 0.  1.
         11    1    3    3    0    0 -0.22512520854E+01  0.21425144494E+02 -0.52826357319E+01  0.22181325317E+02  0.00000000000E+00 0. -1.
</event>
<event>
 7    1  0.6145388E-006  0.1500919E+03  0.7561462E-02  0.1200360E+00
          2   -1    0    0  501    0  0.00000000000E+00  0.00000000000E+00  0.92579435502E+02  0.92579435502E+02  0.00000000000E+00 0. -1.
         -2   -1    0    0    0  501 -0.00000000000E+00 -0.00000000000E+00 -0.37234253995E+03  0.37234253995E+03  0.00000000000E+00 0.  1.
         23    2    1    2    0    0 -0.14953496869E+03 -0.54853822986E+01 -0.10173990329E+03  0.20085818420E+03  0.87190629990E+02 0.  0.
          5    1    1    2  502    0  0.98808490418E+02 -0.24173357588E+01 -0.18721210924E+03  0.21174231400E+03  0.41800000000E+01 0.  1.
         -5    1    1    2    0  502  0.50726478270E+02  0.79027180574E+01  0.91889080829E+01  0.52321477255E+02  0.41800000000E+01 0.  1.
        -11    1    3    3    0    0 -0.24931058814E+02 -0.30944363834E+01 -0.66887467561E+02  0.71449748403E+02  0.00000000000E+00 0.  1.
         11    1    3    3    0    0 -0.12460390987E+03 -0.23909459152E+01 -0.34852435726E+02  0.12940843579E+03  0.00000000000E+00 0. -1.
</event>
<event>
 7    1  0.6145388E-006  0.1630175E+03  0.7561462E-02  0.1185331E+00
         -1   -1    0    0    0  501 -0.00000000000E+00  0.00000000000E+00  0.20817952671E+02  0.20817952671E+02  0.00000000000E+00 0.  1.
          1   -1    0    0  501    0  0.00000000000E+00 -0.00000000000E+00 -0.16134492574E+04  0.16134492574E+04  0.00000000000E+00 0. -1.
         23    2    1    2    0    0 -0.12693036606E+03  0.73224156699E+02 -0.69329585531E+03  0.71452756316E+03  0.91746392657E+02 0.  0.
          5    1    1    2  502    0 -0.51498459413E+01 -0.10813845920E+02 -0.38058816987E+03  0.38079953732E+03  0.41800000000E+01 0.  1.
         -5    1    1    2    0  502  0.13208021200E+03 -0.62410310779E+02 -0.51874727955E+03  0.53894010960E+03  0.41800000000E+01 0.  1.
        -11    1    3    3    0    0 -0.38366231745E+02 -0.15928147926E+02 -0.10415777732E+03  0.11213615033E+03  0.00000000000E+00 0.  1.
         11    1    3    3    0    0 -0.88564134314E+02  0.89152304625E+02 -0.58913807799E+03  0.60239141283E+03  0.00000000000E+00 0. -1.
</event>
<event>
 7    1  0.6145388E-006  0.1646208E+03  0.7561462E-02  0.1183577E+00
         -1   -1    0    0    0  501 -0.00000000000E+00  0.00000000000E+00  0.14331454689E+03  0.14331454689E+03  0.00000000000E+00 0.  1.
          1   -1    0    0  501    0  0.00000000000E+00 -0.00000000000E+00 -0.22534460644E+03  0.22534460644E+03  0.00000000000E+00 0. -1.
         23    2    1    2    0    0 -0.14177164257E+03 -0.49524082438E+01 -0.73327778811E+02  0.17932910217E+03  0.81598031560E+02 0.  0.
          5    1    1    2  502    0  0.15072827708E+03  0.35556062616E+02 -0.17714080391E+02  0.15593110064E+03  0.41800000000E+01 0. -1.
         -5    1    1    2    0  502 -0.89566345084E+01 -0.30603654372E+02  0.90117996558E+01  0.33398950518E+02  0.41800000000E+01 0. -1.
        -11    1    3    3    0    0 -0.56920556310E+02 -0.65306968529E+01  0.12485842906E+02  0.58638690342E+02  0.00000000000E+00 0.  1.
         11    1    3    3    0    0 -0.84851086265E+02  0.15782886092E+01 -0.85813621717E+02  0.12069041183E+03  0.00000000000E+00 0. -1.
</event>
<event>
 7    1  0.6145388E-006  0.1112909E+03  0.7561462E-02  0.1258198E+00
         -3   -1    0    0    0  501 -0.00000000000E+00  0.00000000000E+00  0.47290540462E+03  0.47290540462E+03  0.00000000000E+00 0.  1.
          3   -1    0    0  501    0  0.00000000000E+00 -0.00000000000E+00 -0.41282581263E+02  0.41282581263E+02  0.00000000000E+00 0. -1.
         23    2    1    2    0    0  0.31529767825E+02  0.72693641164E+02  0.13225572944E+03  0.18020045132E+03  0.93285223704E+02 0.  0.
          5    1    1    2  502    0 -0.71027225179E+02 -0.29572860131E+02  0.23312762849E+03  0.24553082157E+03  0.41800000000E+01 0.  1.
         -5    1    1    2    0  502  0.39497457353E+02 -0.43120781033E+02  0.66239465423E+02  0.88456712995E+02  0.41800000000E+01 0.  1.
        -11    1    3    3    0    0  0.35573533313E+02  0.38289693868E+02  0.13567285201E+03  0.14539153931E+03  0.00000000000E+00 0.  1.
         11    1    3    3    0    0 -0.40437654877E+01  0.34403947296E+02 -0.34171225723E+01  0.34808912013E+02  0.00000000000E+00 0. -1.
</event>
<event>
 7    1  0.6145388E-006  0.7799772E+02  0.7561462E-02  0.1334832E+00
         -1   -1    0    0    0  501 -0.00000000000E+00  0.00000000000E+00  0.10033742041E+04  0.10033742041E+04  0.00000000000E+00 0.  1.
          1   -1    0    0  501    0  0.00000000000E+00 -0.00000000000E+00 -0.11614675166E+02  0.11614675166E+02  0.00000000000E+00 0. -1.
         23    2    1    2    0    0 -0.18499458300E+02  0.28536510044E+02  0.36328568626E+03  0.37576073345E+03  0.89794635702E+02 0.  0.
          5    1    1    2  502    0  0.20169920358E+02 -0.43328418598E+02  0.10406411327E+03  0.11459053022E+03  0.41800000000E+01 0. -1.
         -5    1    1    2    0  502 -0.16704620579E+01  0.14791908553E+02  0.52440972939E+03  0.52463761558E+03  0.41800000000E+01 0.  1.
        -11    1    3    3    0    0 -0.11330541252E+02 -0.30785630008E+02  0.84522273644E+02  0.90665047963E+02  0.00000000000E+00 0. -1.
         11    1    3    3    0    0 -0.71689170484E+01  0.59322140053E+02  0.27876341261E+03  0.28509568549E+03  0.00000000000E+00 0.  1.
</event>
<event>
 7    1  0.6145388E-006  0.7738437E+02  0.7561462E-02  0.1336642E+00
         -1   -1    0    0    0  501 -0.00000000000E+00  0.00000000000E+00  0.64385433897E+03  0.64385433897E+03  0.00000000000E+00 0.  1.
          1   -1    0    0  501    0  0.00000000000E+00 -0.00000000000E+00 -0.24497492742E+02  0.24497492742E+02  0.00000000000E+00 0. -1.
         23    2    1    2    0    0  0.43153421422E+02  0.27338236970E+02  0.15288411227E+03  0.18270458963E+03  0.86010570905E+02 0.  0.
          5    1    1    2  502    0  0.10228455944E+02 -0.93945187974E+01  0.39158552308E+03  0.39185401947E+03  0.41800000000E+01 0. -1.
         -5    1    1    2    0  502 -0.53381877366E+02 -0.17943718172E+02  0.74887210876E+02  0.93793222601E+02  0.41800000000E+01 0. -1.
        -11    1    3    3    0    0  0.48480073550E+02  0.44510383974E+02  0.63232700495E+02  0.91268100807E+02  0.00000000000E+00 0. -1.
         11    1    3    3    0    0 -0.53266521286E+01 -0.17172147005E+02  0.89651411776E+02  0.91436488827E+02  0.00000000000E+00 0.  1.
</event>
<event>
 7    1  0.6145388E-006  0.2906385E+03  0.7561462E-02  0.1090016E+00
          1   -1    0    0  501    0  0.00000000000E+00  0.00000000000E+00  0.36992923306E+03  0.36992923306E+03  0.00000000000E+00 0. -1.
         -1   -1    0    0    0  501 -0.00000000000E+00 -0.00000000000E+00 -0.24997343058E+03  0.24997343058E+03  0.00000000000E+00 0.  1.
         23    2    1    2    0    0 -0.45761417195E+02 -0.27661163772E+03  0.10190425359E+03  0.31236207610E+03  0.92614708650E+02 0.  0.
          5    1    1    2  502    0 -0.29888871962E+02  0.35214459642E+02 -0.22087195886E+02  0.51368467538E+02  0.41800000000E+01 0. -1.
         -5    1    1    2    0  502  0.75650289157E+02  0.24139717808E+03  0.40138744778E+02  0.25617212000E+03  0.41800000000E+01 0. -1.
        -11    1    3    3    0    0 -0.13751145119E+02 -0.17058188799E+03  0.10639944940E+03  0.20151455861E+03  0.00000000000E+00 0.  1.
         11    1    3    3    0    0 -0.32010272076E+02 -0.10602974973E+03 -0.44951958085E+01  0.11084751748E+03  0.00000000000E+00 0. -1.
</event>
<event>
 7    1  0.6145388E-006  0.2000992E+03  0.7561462E-02  0.1149655E+00
         -1   -1    0    0    0  501 -0.00000000000E+00  0.00000000000E+00  0.72796870249E+02  0.72796870249E+02  0.00000000000E+00 0.  1.
          1   -1    0    0  501    0  0.00000000000E+00 -0.00000000000E+00 -0.64806241158E+03  0.64806241158E+03  0.00000000000E+00 0. -1.
         23    2    1    2    0    0 -0.10286460213E+03 -0.15523860938E+03 -0.23724003865E+03  0.31516292633E+03  0.91458635365E+02 0.  0.
          5    1    1    2  502    0  0.42600565670E+01  0.85460458559E+02 -0.22280818485E+03  0.23871027982E+03  0.41800000000E+01 0. -1.
         -5    1    1    2    0  502  0.98604545566E+02  0.69778150822E+02 -0.11521731783E+03  0.16698607567E+03  0.41800000000E+01 0. -1.
        -11    1    3    3    0    0 -0.98408510089E+02 -0.10760304987E+03 -0.12107236224E+03  0.18952880546E+03  0.00000000000E+00 0.  1.
         11    1    3    3    0    0 -0.44560920441E+01 -0.47635559507E+02 -0.11616767641E+03  0.12563412088E+03  0.00000000000E+00 0. -1.
</event>
<event>
 7    1  0.6145388E-006  0.1220251E+03  0.7561462E-02  0.1239793E+00
          1   -1    0    0  501    0  0.00000000000E+00  0.00000000000E+00  0.11507284958E+04  0.11507284958E+04  0.00000000000E+00 0. -1.
         -1   -1    0    0    0  501 -0.00000000000E+00 -0.00000000000E+00 -0.21224325906E+02  0.21224325906E+02  0.00000000000E+00 0.  1.
         23    2    1    2    0    0  0.11617019405E+03 -0.27153577580E+02  0.47077283853E+03  0.49091840053E+03  0.71700625647E+02 0.  0.
          5    1    1    2  502    0 -0.82661348886E+02  0.23587335901E+02  0.16463349277E+03  0.18577115049E+03  0.41800000000E+01 0.  1.
         -5    1    1    2    0  502 -0.33508845163E+02  0.35662416786E+01  0.49409783862E+03  0.49526327071E+03  0.41800000000E+01 0.  1.
        -11    1    3    3    0    0  0.33983811172E+02  0.75602020841E+01  0.50872656096E+02  0.61644814993E+02  0.00000000000E+00 0.  1.
         11    1    3    3    0    0  0.82186382877E+02 -0.34713779664E+02  0.41990018244E+03  0.42927358553E+03  0.00000000000E+00 0. -1.
</event>
<event>
 7    1  0.6145388E-006  0.9020686E+02  0.7561462E-02  0.1302352E+00
         -1   -1    0    0    0  501 -0.00000000000E+00  0.00000000000E+00  0.74921099779E+02  0.74921099779E+02  0.00000000000E+00 0.  1.
          1   -1    0    0  501    0  0.00000000000E+00 -0.00000000000E+00 -0.16274268490E+03  0.16274268490E+03  0.00000000000E+00 0. -1.
         23    2    1    2    0    0 -0.12767469437E+02 -0.70607350493E+01 -0.24371070895E+02  0.96645223852E+02  0.92376879908E+02 0.  0.
          5    1    1    2  502    0 -0.18760617174E+02 -0.53738261161E+02 -0.24397642791E+02  0.62068340103E+02  0.41800000000E+01 0. -1.
         -5    1    1    2    0  502  0.31528086611E+02  0.60798996210E+02 -0.39052871439E+02  0.78950220729E+02  0.41800000000E+01 0. -1.
        -11    1    3    3    0    0  0.15451211794E+02  0.12927456957E+02  0.27630671165E+02  0.34195220109E+02  0.00000000000E+00 0.  1.
         11    1    3    3    0    0 -0.28218681231E+02 -0.19988192006E+02 -0.52001742060E+02  0.62450003742E+02  0.00000000000E+00 0. -1.
</event>
<event>
 7    1  0.6145388E-006  0.1222608E+03  0.7561462E-02  0.1239413E+00
         -1   -1    0    0    0  501 -0.00000000000E+00  0.00000000000E+00  0.29226979354E+02  0.29226979354E+02  0.00000000000E+00 0.  1.
          1   -1    0    0  501    0  0.00000000000E+00 -0.00000000000E+00 -0.68079666087E+03  0.68079666087E+03  0.00000000000E+00 0. -1.
         23    2    1    2    0    0 -0.85924136440E+02 -0.12523015497E+02 -0.34935500346E+03  0.37161292861E+03  0.92235931836E+02 0.  0.
          5    1    1    2  502    0 -0.20326436723E+02 -0.29527589263E+02 -0.51892194712E+02  0.63208502826E+02  0.41800000000E+01 0.  1.
         -5    1    1    2    0  502  0.10625057316E+03  0.42050604760E+02 -0.25032248334E+03  0.27520220879E+03  0.41800000000E+01 0.  1.
        -11    1    3    3    0    0 -0.73513272378E+02  0.37631721483E+01 -0.34203757014E+03  0.34986863544E+03  0.00000000000E+00 0. -1.
         11    1    3    3    0    0 -0.12410864062E+02 -0.16286187646E+02 -0.73174333293E+01  0.21744293167E+02  0.00000000000E+00 0.  1.
</event>
<event>
 7    1  0.6145388E-006  0.1268170E+03  0.7561462E-02  0.1232257E+00
         -1   -1    0    0    0  501 -0.00000000000E+00  0.00000000000E+00  0.29891123066E+03  0.29891123066E+03  0.00000000000E+00 0.  1.
          1   -1    0    0  501    0  0.00000000000E+00 -0.00000000000E+00 -0.15990525759E+03  0.15990525759E+03  0.00000000000E+00 0. -1.
         23    2    1    2    0    0 -0.31364485509E+02 -0.70346964669E+02 -0.11030485329E+03  0.16151488391E+03  0.89372650613E+02 0.  0.
          5    1    1    2  502    0 -0.38067478699E+02  0.70911812203E+02  0.76929212143E+02  0.11141451488E+03  0.41800000000E+01 0. -1.
         -5    1    1    2    0  502  0.69431964208E+02 -0.56484753376E+00  0.17238161421E+03  0.18588708945E+03  0.41800000000E+01 0.  1.
        -11    1    3    3    0    0  0.53760105961E+01 -0.66301758387E+02 -0.10482333691E+03  0.12414812369E+03  0.00000000000E+00 0. -1.
         11    1    3    3    0    0 -0.36740496105E+02 -0.40452062824E+01 -0.54815163811E+01  0.37366760226E+02  0.00000000000E+00 0.  1.
</event>
<event>
 6    1  0.6145388E-006  0.1733434E+03  0.7561462E-02  0.1174405E+00
          1   -1    0    0  501    0  0.00000000000E+00  0.00000000000E+00  0.11864488581E+04  0.11864488581E+04  0.00000000000E+00 0. -1.
         -1   -1    0    0    0  501 -0.00000000000E+00 -0.00000000000E+00 -0.44866239685E+02  0.44866239685E+02  0.00000000000E+00 0.  1.
          5    1    1    2  502    0  0.61771532662E+02  0.24293877556E+00  0.16985004412E+02  0.64200810287E+02  0.41800000000E+01 0.  1.
         -5    1    1    2    0  502  0.46868060825E+02 -0.29472961995E+02  0.21700070434E+03  0.22399117996E+03  0.41800000000E+01 0.  1.
        -11    1    1    2    0    0 -0.57182138475E+02 -0.85872895719E+02  0.20715530673E+03  0.23142444185E+03  0.00000000000E+00 0. -1.
         11    1    1    2    0    0 -0.51457455012E+02  0.11510291894E+03  0.70044160297E+03  0.71169866573E+03  0.00000000000E+00 0.  1.
</event>
<event>
 7    1  0.6145388E-006  0.1444452E+03  0.7561462E-02  0.1207470E+00
         -2   -1    0    0    0  501 -0.00000000000E+00  0.00000000000E+00  0.15844607899E+03  0.15844607899E+03  0.00000000000E+00 0. -1.
          2   -1    0    0  501    0  0.00000000000E+00 -0.00000000000E+00 -0.17250944446E+03  0.17250944446E+03  0.00000000000E+00 0.  1.
         23    2    1    2    0    0  0.24849554788E+02 -0.12185162179E+03 -0.17249418415E+02  0.15453817576E+03  0.90106532642E+02 0.  0.
          5    1    1    2  502    0  0.42258389375E+02  0.38016618135E+02 -0.29381991782E+02  0.64123385500E+02  0.41800000000E+01 0. -1.
         -5    1    1    2    0  502 -0.67107944163E+02  0.83835003653E+02  0.32568044725E+02  0.11229396219E+03  0.41800000000E+01 0. -1.
        -11    1    3    3    0    0  0.14203105002E+02 -0.79448642783E+02 -0.54264035600E+02  0.97254308857E+02  0.00000000000E+00 0.  1.
         11    1    3    3    0    0  0.10646449786E+02 -0.42402979005E+02  0.37014617185E+02  0.57283866899E+02  0.00000000000E+00 0. -1.
</event>
<event>
 6    1  0.6145388E-006  0.7822429E+02  0.7561462E-02  0.1334168E+00
         -3   -1    0    0    0  501 -0.00000000000E+00  0.00000000000E+00  0.72634482016E+02  0.72634482016E+02  0.00000000000E+00 0.  1.
          3   -1    0    0  501    0  0.00000000000E+00 -0.00000000000E+00 -0.13559450133E+03  0.13559450133E+03  0.00000000000E+00 0. -1.
          5    1    1    2  502    0 -0.55472011642E+02 -0.41186241654E+02  0.19404860614E+02  0.71885127757E+02  0.41800000000E+01 0. -1.
         -5    1    1    2    0  502  0.31301942361E+02  0.30019174184E+02 -0.47046947110E+01  0.43824296532E+02  0.41800000000E+01 0.  1.
        -11    1    1    2    0    0  0.30536922574E+02 -0.30749361328E+00 -0.72037316347E+02  0.78243038918E+02  0.00000000000E+00 0. -1.
         11    1    1    2    0    0 -0.63668532928E+01  0.11474561084E+02 -0.56228688687E+01  0.14276520137E+02  0.00000000000E+00 0.  1.
</event>
<event>
 7    1  0.6145388E-006  0.1597099E+03  0.7561462E-02  0.1189025E+00
         -1   -1    0    0    0  501 -0.00000000000E+00  0.00000000000E+00  0.20656664846E+03  0.20656664846E+03  0.00000000000E+00 0.  1.
          1   -1    0    0  501    0  0.00000000000E+00 -0.00000000000E+00 -0.15065438889E+03  0.15065438889E+03  0.00000000000E+00 0. -1.
         23    2    1    2    0    0 -0.91886664785E+02 -0.10246509266E+03  0.10064526910E+02  0.16567076599E+03  0.91669262150E+02 0.  0.
          5    1    1    2  502    0 -0.15194557134E+02  0.64154106836E+02 -0.63106782838E+01  0.66362045258E+02  0.41800000000E+01 0.  1.
         -5    1    1    2    0  502  0.10708122192E+03  0.38310985819E+02  0.52158410947E+02  0.12518822610E+03  0.41800000000E+01 0.  1.
        -11    1    3    3    0    0 -0.19617549587E+02 -0.94841365503E+01 -0.33621708393E+02  0.40065151605E+02  0.00000000000E+00 0. -1.
         11    1    3    3    0    0 -0.72269115197E+02 -0.92980956105E+02  0.43686235302E+02  0.12560561438E+03  0.00000000000E+00 0.  1.
</event>
<event>
 7    1  0.6145388E-006  0.1054555E+03  0.7561462E-02  0.1269225E+00
          2   -1    0    0  501    0  0.00000000000E+00  0.00000000000E+00  0.51855325824E+03  0.51855325824E+03  0.00000000000E+00 0. -1.
         -2   -1    0    0    0  501 -0.00000000000E+00 -0.00000000000E+00 -0.26790410998E+02  0.26790410998E+02  0.00000000000E+00 0.  1.
         23    2    1    2    0    0 -0.26208782200E+02 -0.36943855850E+02  0.25160427452E+03  0.27080101968E+03  0.89312555402E+02 0.  0.
          5    1    1    2  502    0  0.53147052223E+02 -0.20583169856E+02  0.17215593758E+03  0.18139298577E+03  0.41800000000E+01 0.  1.
         -5    1    1    2    0  502 -0.26938270023E+02  0.57527025706E+02  0.68002635135E+02  0.93149663787E+02  0.41800000000E+01 0.  1.
        -11    1    3    3    0    0 -0.12192873972E+02 -0.61030922076E+02  0.10915476406E+03  0.12565111278E+03  0.00000000000E+00 0.  1.
         11    1    3    3    0    0 -0.14015908229E+02  0.24087066226E+02  0.14244951047E+03  0.14514990691E+03  0.00000000000E+00 0. -1.
</event>
<event>
 7    1  0.6145388E-006  0.1254127E+03  0.7561462E-02  0.1234426E+00
         -1   -1    0    0    0  501 -0.00000000000E+00  0.00000000000E+00  0.11200008490E+03  0.11200008490E+03  0.00000000000E+00 0.  1.
          1   -1    0    0  501    0  0.00000000000E+00 -0.00000000000E+00 -0.14859083583E+03  0.14859083583E+03  0.00000000000E+00 0. -1.
         23    2    1    2    0    0  0.58166718880E+02  0.29429831789E+02 -0.41482000319E+02  0.11944716166E+03  0.91089987886E+02 0.  0.
          5    1    1    2  502    0  0.70579296710E+01 -0.65181040591E+02  0.10088155251E+02  0.66465221734E+02  0.41800000000E+01 0.  1.
         -5    1    1    2    0  502 -0.65224648551E+02  0.35751208802E+02 -0.51969058606E+01  0.74678537345E+02  0.41800000000E+01 0.  1.
        -11    1    3    3    0    0 -0.28768725394E+00 -0.28402818192E+02 -0.19093581960E+02  0.34225249704E+02  0.00000000000E+00 0.  1.
         11    1    3    3    0    0  0.58454406134E+02  0.57832649982E+02 -0.22388418359E+02  0.85221911953E+02  0.00000000000E+00 0. -1.
</event>
<event>
 7    1  0.6145388E-006  0.1147858E+03  0.7561462E-02  0.1251956E+00
         -2   -1    0    0    0  501 -0.00000000000E+00  0.00000000000E+00  0.52062007453E+02  0.52062007453E+02  0.00000000000E+00 0.  1.
          2   -1    0    0  501    0  0.00000000000E+00 -0.00000000000E+00 -0.40431166311E+03  0.40431166311E+03  0.00000000000E+00 0. -1.
         23    2    1    2    0    0  0.46906003315E+02 -0.74593322249E+02 -0.21269478260E+03  0.24927771552E+03  0.95582278896E+02 0.  0.
          5    1    1    2  502    0  0.19662468301E+02  0.65977759989E+02 -0.11762816495E+03  0.13635811329E+03  0.41800000000E+01 0.  1.
         -5    1    1    2    0  502 -0.66568471616E+02  0.86155622600E+01 -0.21926708108E+02  0.70737841746E+02  0.41800000000E+01 0.  1.
        -11    1    3    3    0    0  0.51243918795E+02 -0.64638494820E+02 -0.22081478335E+03  0.23571856688E+03  0.00000000000E+00 0. -1.
         11    1    3    3    0    0 -0.43379154798E+01 -0.99548274294E+01  0.81200007459E+01  0.13559148645E+02  0.00000000000E+00 0.  1.
</event>
<event>
 7    1  0.6145388E-006  0.1076055E+03  0.7561462E-02  0.1265070E+00
          1   -1    0    0  501    0  0.00000000000E+00  0.00000000000E+00  0.53304840370E+02  0.53304840370E+02  0.00000000000E+00 0. -1.
         -1   -1    0    0    0  501 -0.00000000000E+00 -0.00000000000E+00 -0.23145911290E+03  0.23145911290E+03  0.00000000000E+00 0.  1.
         23    2    1    2    0    0 -0.46357512912E+01 -0.42508445111E+02 -0.72397645723E+02  0.11546568591E+03  0.79135626746E+02 0.  0.
          5    1    1    2  502    0  0.25701969348E+02 -0.37632220684E+02 -0.19897267158E+02  0.49901391787E+02  0.41800000000E+01 0.  1.
         -5    1    1    2    0  502 -0.21066218057E+02  0.80140665795E+02 -0.85859359647E+02  0.11939687557E+03  0.41800000000E+01 0.  1.
        -11    1    3    3    0    0  0.30802521570E+02 -0.40636948283E+02 -0.57840839340E+02  0.77108492375E+02  0.00000000000E+00 0.  1.
         11    1    3    3    0    0 -0.35438272861E+02 -0.18714968284E+01 -0.14556806383E+02  0.38357193534E+02  0.00000000000E+00 0. -1.
</event>
<event>
 7    1  0.6145388E-006  0.1070651E+03  0.7561462E-02  0.1266103E+00
         -2   -1    0    0    0  501 -0.00000000000E+00  0.00000000000E+00  0.10072072432E+03  0.10072072432E+03  0.00000000000E+00 0.  1.
          2   -1    0    0  501    0  0.00000000000E+00 -0.00000000000E+00 -0.12958756456E+03  0.12958756456E+03  0.00000000000E+00 0. -1.
         23    2    1    2    0    0  0.33505817000E+02 -0.16918482650E+01 -0.21504308671E+02  0.10058286602E+03  0.92352452708E+02 0.  0.
          5    1    1    2  502    0 -0.62969029628E+02 -0.33365534716E+02  0.22557023106E+02  0.74864205669E+02  0.41800000000E+01 0.  1.
         -5    1    1    2    0  502  0.29463212627E+02  0.35057382981E+02 -0.29919554679E+02  0.54861217194E+02  0.41800000000E+01 0.  1.
        -11    1    3    3    0    0 -0.55135970079E+00  0.41641773847E+02 -0.17961957500E+02  0.45353866912E+02  0.00000000000E+00 0. -1.
         11    1    3    3    0    0  0.34057176701E+02 -0.43333622112E+02 -0.35423511718E+01  0.55228999104E+02  0.00000000000E+00 0.  1.
</event>
<event>
 7    1  0.6145388E-006  0.9949706E+02  0.7561462E-02  0.1281357E+00
         -2   -1    0    0    0  501 -0.00000000000E+00  0.00000000000E+00  0.25057461333E+03  0.25057461333E+03  0.00000000000E+00 0.  1.
          2   -1    0    0  501    0  0.00000000000E+00 -0.00000000000E+00 -0.49616550727E+02  0.49616550727E+02  0.00000000000E+00 0. -1.
         23    2    1    2    0    0 -0.19577140478E+02 -0.19221314073E+02  0.87988045230E+02  0.12942521502E+03  0.90864001866E+02 0.  0.
          5    1    1    2  502    0  0.59912086992E+02  0.25912361350E+02  0.11194531329E+03  0.12965390163E+03  0.41800000000E+01 0.  1.
         -5    1    1    2    0  502 -0.40334946514E+02 -0.66910472775E+01  0.10247040795E+01  0.41112047412E+02  0.41800000000E+01 0.  1.
        -11    1    3    3    0    0 -0.54474479163E+02 -0.46645483153E+01  0.65927980628E+02  0.85648850084E+02  0.00000000000E+00 0. -1.
         11    1    3    3    0    0  0.34897338685E+02 -0.14556765757E+02  0.22060064602E+02  0.43776364934E+02  0.00000000000E+00 0.  1.
</event>
<event>
 7    1  0.6145388E-006  0.1874328E+03  0.7561462E-02  0.1160797E+00
         -1   -1    0    0    0  501 -0.00000000000E+00  0.00000000000E+00  0.28865956154E+03  0.28865956154E+03  0.00000000000E+00 0.  1.
          1   -1    0    0  501    0  0.00000000000E+00 -0.00000000000E+00 -0.16503144065E+03  0.16503144065E+03  0.00000000000E+00 0. -1.
         23    2    1    2    0    0  0.64485020451E+02  0.15297673932E+03  0.28290453500E+02  0.19768509383E+03  0.10353185949E+03 0.  0.
          5    1    1    2  502    0  0.25811689216E+01 -0.11211821484E+03 -0.22379842379E+02  0.11443551143E+03  0.41800000000E+01 0. -1.
         -5    1    1    2    0  502 -0.67066189373E+02 -0.40858524478E+02  0.11771750977E+03  0.14157039692E+03  0.41800000000E+01 0.  1.
        -11    1    3    3    0    0  0.14680917423E+02 -0.71312474160E+01  0.25148277949E+02  0.29980325380E+02  0.00000000000E+00 0. -1.
         11    1    3    3    0    0  0.49804103028E+02  0.16010798674E+03  0.31421755516E+01  0.16770476845E+03  0.00000000000E+00 0.  1.
</event>
<event>
 7    1  0.6145388E-006  0.1708430E+03  0.7561462E-02  0.1176972E+00
          1   -1    0    0  501    0  0.00000000000E+00  0.00000000000E+00  0.11509799206E+04  0.11509799206E+04  0.00000000000E+00 0. -1.
         -1   -1    0    0    0  501 -0.00000000000E+00 -0.00000000000E+00 -0.33644797288E+02  0.33644797288E+02  0.00000000000E+00 0.  1.
         23    2    1    2    0    0  0.16378485382E+03  0.24555637854E+01  0.50736839337E+03  0.54077810517E+03  0.90480739991E+02 0.  0.
          5    1    1    2  502    0 -0.13691496313E+03  0.20723390739E+02  0.58258400839E+03  0.59882949600E+03  0.41800000000E+01 0. -1.
         -5    1    1    2    0  502 -0.26869890691E+02 -0.23178954524E+02  0.27382721579E+02  0.45017116741E+02  0.41800000000E+01 0. -1.
        -11    1    3    3    0    0  0.14613945431E+02 -0.10029801828E+02  0.79823562636E+01  0.19439195901E+02  0.00000000000E+00 0.  1.
         11    1    3    3    0    0  0.14917090839E+03  0.12485365613E+02  0.49938603711E+03  0.52133890927E+03  0.00000000000E+00 0. -1.
</event>
<event>
 7    1  0.6145388E-006  0.1504172E+03  0.7561462E-02  0.1199961E+00
          2   -1    0    0  501    0  0.00000000000E+00  0.00000000000E+00  0.16195568343E+03  0.16195568343E+03  0.00000000000E+00 0. -1.
         -2   -1    0    0    0  501 -0.00000000000E+00 -0.00000000000E+00 -0.14369853580E+03  0.14369853580E+03  0.00000000000E+00 0.  1.
         23    2    1    2    0    0  0.10329819315E+03 -0.24695450355E+02 -0.53793793470E+01  0.13986386467E+03  0.90843717134E+02 0.  0.
          5    1    1    2  502    0 -0.50921371796E+02 -0.49785152798E+02  0.21905210044E+02  0.74624782558E+02  0.41800000000E+01 0.  1.
         -5    1    1    2    0  502 -0.52376821351E+02  0.74480603153E+02  0.17313169346E+01  0.91165572006E+02  0.41800000000E+01 0.  1.
        -11    1    3    3    0    0  0.50691725502E+02  0.32830803042E+02 -0.12193819400E+02  0.61613325623E+02  0.00000000000E+00 0.  1.
         11    1    3    3    0    0  0.52606467645E+02 -0.57526253397E+02  0.68144400530E+01  0.78250539047E+02  0.00000000000E+00 0. -1.
</event>
<event>
 7    1  0.6145388E-006  0.1154382E+03  0.7561462E-02  0.1250818E+00
          2   -1    0    0  501    0  0.00000000000E+00  0.00000000000E+00  0.14490735381E+03  0.14490735381E+03  0.00000000000E+00 0. -1.
         -2   -1    0    0    0  501 -0.00000000000E+00 -0.00000000000E+00 -0.15546649905E+03  0.15546649905E+03  0.00000000000E+00 0.  1.
         23    2    1    2    0    0  0.79422172415E+02 -0.36962416576E+02  0.46124856423E+02  0.13747883982E+03  0.95387773371E+02 0.  0.
          5    1    1    2  502    0 -0.81077369401E+02 -0.73865239074E+01  0.10577047735E+02  0.82203691542E+02  0.41800000000E+01 0.  1.
         -5    1    1    2    0  502  0.16551969860E+01  0.44348940484E+02 -0.67261049400E+02  0.80691321500E+02  0.41800000000E+01 0.  1.
        -11    1    3    3    0    0  0.71167974356E+02 -0.51647643056E+02  0.67075073537E+02  0.11059577341E+03  0.00000000000E+00 0. -1.
         11    1    3    3    0    0  0.82541980589E+01  0.14685226480E+02 -0.20950217114E+02  0.26883066408E+02  0.00000000000E+00 0.  1.
</event>
<event>
 7    1  0.6145388E-006  0.1371420E+03  0.7561462E-02  0.1217227E+00
         -2   -1    0    0    0  501 -0.00000000000E+00  0.00000000000E+00  0.12117426261E+03  0.12117426261E+03  0.00000000000E+00 0.  1.
          2   -1    0    0  501    0  0.00000000000E+00 -0.00000000000E+00 -0.21427171014E+03  0.21427171014E+03  0.00000000000E+00 0. -1.
         23    2    1    2    0    0 -0.10896363154E+03  0.81450061204E+01 -0.91815851242E+02  0.16935139165E+03  0.91161006968E+02 0.  0.
          5    1    1    2  502    0  0.91925837138E+02 -0.59231967374E+02 -0.14749939048E+02  0.11042562472E+03  0.41800000000E+01 0. -1.
         -5    1    1    2    0  502  0.17037794401E+02  0.51086961253E+02  0.13468342755E+02  0.55668956383E+02  0.41800000000E+01 0. -1.
        -11    1    3    3    0    0 -0.46635433469E+02  0.12713498181E+02 -0.95195576130E+02  0.10676466834E+03  0.00000000000E+00 0. -1.
         11    1    3    3    0    0 -0.62328198069E+02 -0.45684920605E+01  0.33797248888E+01  0.62586723309E+02  0.00000000000E+00 0.  1.
</event>
<event>
 7    1  0.6145388E-006  0.1427542E+03  0.7561462E-02  0.1209670E+00
          4   -1    0    0  501    0  0.00000000000E+00  0.00000000000E+00  0.14562975061E+03  0.14562975061E+03  0.00000000000E+00 0. -1.
         -4   -1    0    0    0  501 -0.00000000000E+00 -0.00000000000E+00 -0.14956200419E+03  0.14956200419E+03  0.00000000000E+00 0.  1.
         23    2    1    2    0    0  0.36043124487E+02 -0.91362847022E+02 -0.39917304102E+01  0.13615238195E+03  0.94208601311E+02 0.  0.
          5    1    1    2  502    0  0.29419026096E+02 -0.12703580693E+02 -0.14010970340E+02  0.35222716373E+02  0.41800000000E+01 0.  1.
         -5    1    1    2    0  502 -0.65462150583E+02  0.10406642772E+03  0.14070447167E+02  0.12381665647E+03  0.41800000000E+01 0.  1.
        -11    1    3    3    0    0  0.59156404007E+02 -0.33762664693E+02 -0.21914768811E+02  0.71551762761E+02  0.00000000000E+00 0.  1.
         11    1    3    3    0    0 -0.23113279519E+02 -0.57600182329E+02  0.17923038400E+02  0.64600619192E+02  0.00000000000E+00 0. -1.
</event>
<event>
 7    1  0.6145388E-006  0.1270112E+03  0.7561462E-02  0.1231959E+00
         -1   -1    0    0    0  501 -0.00000000000E+00  0.00000000000E+00  0.79749577216E+03  0.79749577216E+03  0.00000000000E+00 0.  1.
          1   -1    0    0  501    0  0.00000000000E+00 -0.00000000000E+00 -0.23433052460E+02  0.23433052460E+02  0.00000000000E+00 0. -1.
         23    2    1    2    0    0 -0.53847009383E+02  0.53467820171E+02  0.24979360916E+03  0.27662667774E+03  0.91472200394E+02 0.  0.
          5    1    1    2  502    0  0.64225495845E+02  0.16134177286E+02  0.35143483798E+03  0.35764387838E+03  0.41800000000E+01 0.  1.
         -5    1    1    2    0  502 -0.10378486462E+02 -0.69601997458E+02  0.17283427256E+03  0.18665826851E+03  0.41800000000E+01 0.  1.
        -11    1    3    3    0    0 -0.67047926858E+02  0.53305584472E+01  0.16576946353E+03  0.17889481375E+03  0.00000000000E+00 0.  1.
         11    1    3    3    0    0  0.13200917475E+02  0.48137261724E+02  0.84024145634E+02  0.97731863985E+02  0.00000000000E+00 0. -1.
</event>
<event>
 7    1  0.6145388E-006  0.8895491E+02  0.7561462E-02  0.1305402E+00
         -2   -1    0    0    0  501 -0.00000000000E+00  0.00000000000E+00  0.13154809049E+03  0.13154809049E+03  0.00000000000E+00 0.  1.
          2   -1    0    0  501    0  0.00000000000E+00 -0.00000000000E+00 -0.14092678013E+03  0.14092678013E+03  0.00000000000E+00 0. -1.
         23    2    1    2    0    0  0.25929448989E+02  0.10454012495E+02 -0.91112765918E+02  0.12045507090E+03  0.73663188158E+02 0.  0.
          5    1    1    2  502    0 -0.91100095091E+01 -0.52617794842E+02 -0.52432587256E+01  0.53819966271E+02  0.41800000000E+01 0. -1.
         -5    1    1    2    0  502 -0.16819439480E+02  0.42163782347E+02  0.86977334998E+02  0.98199833450E+02  0.41800000000E+01 0. -1.
        -11    1    3    3    0    0  0.51785532046E+02  0.10804619882E+02 -0.62773200880E+02  0.82091143790E+02  0.00000000000E+00 0.  1.
         11    1    3    3    0    0 -0.25856083057E+02 -0.35060738691E+00 -0.28339565039E+02  0.38363927108E+02  0.00000000000E+00 0. -1.
</event>
<event>
 7    1  0.6145388E-006  0.9917017E+02  0.7561462E-02  0.1282051E+00
          1   -1    0    0  501    0  0.00000000000E+00  0.00000000000E+00  0.20620250328E+03  0.20620250328E+03  0.00000000000E+00 0.  1.
         -1   -1    0    0    0  501 -0.00000000000E+00 -0.00000000000E+00 -0.87640989469E+02  0.87640989469E+02  0.00000000000E+00 0. -1.
         23    2    1    2    0    0 -0.13988022585E+02 -0.77045607262E+02  0.40434597701E+02  0.12686086858E+03  0.91252577564E+02 0.  0.
          5    1    1    2  502    0  0.13467525692E+02 -0.10217766590E+02  0.77688769533E+02  0.79616545478E+02  0.41800000000E+01 0.  1.
         -5    1    1    2    0  502  0.52049689281E+00  0.87263373852E+02  0.43814657830E+00  0.87366078689E+02  0.41800000000E+01 0.  1.
        -11    1    3    3    0    0  0.11023061644E+02  0.15046541682E+01  0.42969010510E+02  0.44385895692E+02  0.00000000000E+00 0.  1.
         11    1    3    3    0    0 -0.25011084229E+02 -0.78550261430E+02 -0.25344128090E+01  0.82474972890E+02  0.00000000000E+00 0. -1.
</event>
<event>
 7    1  0.6145388E-006  0.1327493E+03  0.7561462E-02  0.1223432E+00
          2   -1    0    0  501    0  0.00000000000E+00  0.00000000000E+00  0.27610895023E+03  0.27610895023E+03  0.00000000000E+00 0. -1.
         -2   -1    0    0    0  501 -0.00000000000E+00 -0.00000000000E+00 -0.83823094030E+02  0.83823094030E+02  0.00000000000E+00 0.  1.
         23    2    1    2    0    0 -0.25258790876E+01  0.10108958592E+03  0.12855063073E+03  0.18694989685E+03  0.90551172421E+02 0.  0.
          5    1    1    2  502    0 -0.47456775180E+02 -0.34634314669E+01  0.35892928128E+02  0.59748770344E+02  0.41800000000E+01 0.  1.
         -5    1    1    2    0  502  0.49982654267E+02 -0.97626154449E+02  0.27842297346E+02  0.11323337707E+03  0.41800000000E+01 0.  1.
        -11    1    3    3    0    0  0.14318850186E+02  0.17053734067E+02  0.90458050297E+02  0.93158564715E+02  0.00000000000E+00 0. -1.
         11    1    3    3    0    0 -0.16844729273E+02  0.84035851848E+02  0.38092580430E+02  0.93791332137E+02  0.00000000000E+00 0.  1.
</event>
<event>
 7    1  0.6145388E-006  0.1149444E+03  0.7561462E-02  0.1251678E+00
         -3   -1    0    0    0  501 -0.00000000000E+00  0.00000000000E+00  0.10165762789E+03  0.10165762789E+03  0.00000000000E+00 0.  1.
          3   -1    0    0  501    0  0.00000000000E+00 -0.00000000000E+00 -0.15631087901E+03  0.15631087901E+03  0.00000000000E+00 0. -1.
         23    2    1    2    0    0  0.63606483180E+02  0.92545851159E+01 -0.33200500659E+02  0.11574464979E+03  0.90349978769E+02 0.  0.
          5    1    1    2  502    0 -0.19288230481E+02 -0.65661101338E+02 -0.14048130145E+02  0.69987416187E+02  0.41800000000E+01 0. -1.
         -5    1    1    2    0  502 -0.44318252699E+02  0.56406516222E+02 -0.74046203172E+01  0.72236440919E+02  0.41800000000E+01 0. -1.
        -11    1    3    3    0    0 -0.10599792647E+02 -0.80049665156E+01  0.19149662245E+02  0.23305464105E+02  0.00000000000E+00 0.  1.
         11    1    3    3    0    0  0.74206275827E+02  0.17259551631E+02 -0.52350162904E+02  0.92439185688E+02  0.00000000000E+00 0. -1.
</event>
<event>
 7    1  0.6145388E-006  0.1103902E+03  0.7561462E-02  0.1259849E+00
         -1   -1    0    0    0  501 -0.00000000000E+00  0.00000000000E+00  0.12229074464E+03  0.12229074464E+03  0.00000000000E+00 0.  1.
          1   -1    0    0  501    0  0.00000000000E+00 -0.00000000000E+00 -0.17516696695E+03  0.17516696695E+03  0.00000000000E+00 0. -1.
         23    2    1    2    0    0  0.86678432376E+02  0.41781924785E+02 -0.38921246273E+02  0.13901760993E+03  0.92477849132E+02 0.  0.
          5    1    1    2  502    0 -0.67520102653E+02 -0.94672998029E+01 -0.65422091232E+02  0.94583912210E+02  0.41800000000E+01 0. -1.
         -5    1    1    2    0  502 -0.19158329723E+02 -0.32314624983E+02  0.51467115195E+02  0.63856189457E+02  0.41800000000E+01 0. -1.
        -11    1    3    3    0    0  0.46312453850E+02 -0.11604086389E+02  0.18132110032E+02  0.51071240603E+02  0.00000000000E+00 0.  1.
         11    1    3    3    0    0  0.40365978526E+02  0.53386011174E+02 -0.57053356305E+02  0.87946369323E+02  0.00000000000E+00 0. -1.
</event>
<event>
 7    1  0.6145388E-006  0.2021539E+03  0.7561462E-02  0.1147934E+00
         -1   -1    0    0    0  501 -0.00000000000E+00  0.00000000000E+00  0.38620578978E+02  0.38620578978E+02  0.00000000000E+00 0.  1.
          1   -1    0    0  501    0  0.00000000000E+00 -0.00000000000E+00 -0.10926167193E+04  0.10926167193E+04  0.00000000000E+00 0. -1.
         23    2    1    2    0    0 -0.13675678147E+03  0.10754874853E+03 -0.51831254722E+03  0.55428513293E+03  0.91186410143E+02 0.  0.
          5    1    1    2  502    0 -0.47767681228E+01 -0.60713722589E+02 -0.21101378216E+03  0.21966625204E+03  0.41800000000E+01 0. -1.
         -5    1    1    2    0  502  0.14153354959E+03 -0.46835025937E+02 -0.32466981099E+03  0.35728591336E+03  0.41800000000E+01 0. -1.
        -11    1    3    3    0    0 -0.14314105348E+03  0.76256407841E+02 -0.46067151985E+03  0.48838780711E+03  0.00000000000E+00 0. -1.
         11    1    3    3    0    0  0.63842720102E+01  0.31292340685E+02 -0.57641027365E+02  0.65897325821E+02  0.00000000000E+00 0.  1.
</event>
<event>
 7    1  0.6145388E-006  0.9941415E+02  0.7561462E-02  0.1281533E+00
         -2   -1    0    0    0  501 -0.00000000000E+00  0.00000000000E+00  0.74423293664E+02  0.74423293664E+02  0.00000000000E+00 0.  1.
          2   -1    0    0  501    0  0.00000000000E+00 -0.00000000000E+00 -0.23417936663E+03  0.23417936663E+03  0.00000000000E+00 0. -1.
         23    2    1    2    0    0 -0.16604354627E+02 -0.54473275100E+02 -0.12916182029E+03  0.16778991525E+03  0.90706325830E+02 0.  0.
          5    1    1    2  502    0  0.49774242845E+02  0.29098193992E+02 -0.64677228384E+02  0.86745584417E+02  0.41800000000E+01 0.  1.
         -5    1    1    2    0  502 -0.33169888219E+02  0.25375081108E+02  0.34082975707E+02  0.54067160631E+02  0.41800000000E+01 0.  1.
        -11    1    3    3    0    0 -0.48996204257E+02 -0.41304117681E+02 -0.11152947743E+03  0.12862924436E+03  0.00000000000E+00 0. -1.
         11    1    3    3    0    0  0.32391849630E+02 -0.13169157419E+02 -0.17632342860E+02  0.39160670887E+02  0.00000000000E+00 0.  1.
</event>
<event>
 7    1  0.6145388E-006  0.8069057E+02  0.7561462E-02  0.1327103E+00
          1   -1    0    0  501    0  0.00000000000E+00  0.00000000000E+00  0.32076178720E+03  0.32076178720E+03  0.00000000000E+00 0. -1.
         -1   -1    0    0    0  501 -0.00000000000E+00 -0.00000000000E+00 -0.43794498992E+02  0.43794498992E+02  0.00000000000E+00 0.  1.
         23    2    1    2    0    0  0.28246783270E+02 -0.37900979254E+02  0.11891061907E+03  0.15751998010E+03  0.91861002658E+02 0.  0.
          5    1    1    2  502    0 -0.51690635592E+02  0.40707746923E+02  0.16845775204E+03  0.18089922358E+03  0.41800000000E+01 0.  1.
         -5    1    1    2    0  502  0.23443852322E+02 -0.28067676693E+01 -0.10401082911E+02  0.26137082511E+02  0.41800000000E+01 0.  1.
        -11    1    3    3    0    0  0.33494315481E+02 -0.28617371152E+00  0.11448444016E+03  0.11928385517E+03  0.00000000000E+00 0. -1.
         11    1    3    3    0    0 -0.52475322110E+01 -0.37614805542E+02  0.44261789147E+01  0.38236124935E+02  0.00000000000E+00 0.  1.
</event>
<event>
 7    1  0.6145388E-006  0.1182622E+03  0.7561462E-02  0.1245992E+00
         -2   -1    0    0    0  501 -0.00000000000E+00  0.00000000000E+00  0.37393977343E+03  0.37393977343E+03  0.00000000000E+00 0.  1.
          2   -1    0    0  501    0  0.00000000000E+00 -0.00000000000E+00 -0.44092983028E+02  0.44092983028E+02  0.00000000000E+00 0. -1.
         23    2    1    2    0    0  0.42319999547E+02  0.46918522313E+02  0.10832471424E+03  0.15588107807E+03  0.92586914236E+02 0.  0.
          5    1    1    2  502    0 -0.69567707634E+02 -0.73522937712E+02  0.14980400840E+03  0.18084247744E+03  0.41800000000E+01 0.  1.
         -5    1    1    2    0  502  0.27247708087E+02  0.26604415399E+02  0.71718067767E+02  0.81309200949E+02  0.41800000000E+01 0.  1.
        -11    1    3    3    0    0  0.50617591352E+02  0.61791851215E+02  0.47981530356E+02  0.93180473739E+02  0.00000000000E+00 0. -1.
         11    1    3    3    0    0 -0.82975918055E+01 -0.14873328902E+02  0.60343183882E+02  0.62700604331E+02  0.00000000000E+00 0.  1.
</event>
<event>
 7    1  0.6145388E-006  0.9562616E+02  0.7561462E-02  0.1289772E+00
          1   -1    0    0  501    0  0.00000000000E+00  0.00000000000E+00  0.48337025256E+03  0.48337025256E+03  0.00000000000E+00 0. -1.
         -1   -1    0    0    0  501 -0.00000000000E+00 -0.00000000000E+00 -0.27679410280E+02  0.27679410280E+02  0.00000000000E+00 0.  1.
         23    2    1    2    0    0  0.22759253974E+02 -0.21634906073E+02  0.14492291487E+03  0.17458498837E+03  0.92147784067E+02 0.  0.
          5    1    1    2  502    0  0.44030970566E+02 -0.20455784295E+02  0.97138301530E+02  0.10867606684E+03  0.41800000000E+01 0. -1.
         -5    1    1    2    0  502 -0.66790224541E+02  0.42090690368E+02  0.21362962588E+03  0.22778860763E+03  0.41800000000E+01 0. -1.
        -11    1    3    3    0    0 -0.14809394267E+02 -0.21241278254E+02  0.10803229204E+01  0.25916735097E+02  0.00000000000E+00 0.  1.
         11    1    3    3    0    0  0.37568648242E+02 -0.39362781868E+00  0.14384259195E+03  0.14866825327E+03  0.00000000000E+00 0. -1.
</event>
<event>
 7    1  0.6145388E-006  0.1077983E+03  0.7561462E-02  0.1264702E+00
         -1   -1    0    0    0  501 -0.00000000000E+00  0.00000000000E+00  0.10890346526E+03  0.10890346526E+03  0.00000000000E+00 0.  1.
          1   -1    0    0  501    0  0.00000000000E+00 -0.00000000000E+00 -0.27044769940E+03  0.27044769940E+03  0.00000000000E+00 0. -1.
         23    2    1    2    0    0 -0.85253303450E+02  0.27859272342E+02 -0.19178301609E+03  0.23065546944E+03  0.91525709595E+02 0.  0.
          5    1    1    2  502    0  0.46353553454E+02 -0.12769410990E+02 -0.42780124615E+02  0.64492799884E+02  0.41800000000E+01 0. -1.
         -5    1    1    2    0  502  0.38899749996E+02 -0.15089861352E+02  0.73018906575E+02  0.84202895335E+02  0.41800000000E+01 0.  1.
        -11    1    3    3    0    0 -0.59268024884E+02  0.59821284576E+02 -0.14975040829E+03  0.17180357867E+03  0.00000000000E+00 0. -1.
         11    1    3    3    0    0 -0.25985278567E+02 -0.31962012234E+02 -0.42032607801E+02  0.58851890766E+02  0.00000000000E+00 0.  1.
</event>
<event>
 7    1  0.6145388E-006  0.1100337E+03  0.7561462E-02  0.1260508E+00
          4   -1    0    0  501    0  0.00000000000E+00  0.00000000000E+00  0.11848878247E+02  0.11848878247E+02  0.00000000000E+00 0. -1.
         -4   -1    0    0    0  501 -0.00000000000E+00 -0.00000000000E+00 -0.11068748796E+04  0.11068748796E+04  0.00000000000E+00 0.  1.
         23    2    1    2    0    0  0.21246012733E+02  0.24106593544E+02 -0.37490283285E+03  0.38711074497E+03  0.90939946590E+02 0.  0.
          5    1    1    2  502    0  0.74791217471E+01  0.47199656310E+02 -0.37187785791E+03  0.37495914233E+03  0.41800000000E+01 0. -1.
         -5    1    1    2    0  502 -0.28725134480E+02 -0.71306249853E+02 -0.34824531059E+03  0.35665387054E+03  0.41800000000E+01 0. -1.
        -11    1    3    3    0    0 -0.91242458314E+01 -0.30930209141E+02 -0.15929429677E+03  0.16252569854E+03  0.00000000000E+00 0.  1.
         11    1    3    3    0    0  0.30370258564E+02  0.55036802685E+02 -0.21560853607E+03  0.22458504644E+03  0.00000000000E+00 0. -1.
</event>
<event>
 7    1  0.6145388E-006  0.1318961E+03  0.7561462E-02  0.1224669E+00
         -1   -1    0    0    0  501 -0.00000000000E+00  0.00000000000E+00  0.67183357951E+02  0.67183357951E+02  0.00000000000E+00 0.  1.
          1   -1    0    0  501    0  0.00000000000E+00 -0.00000000000E+00 -0.30500253582E+03  0.30500253582E+03  0.00000000000E+00 0. -1.
         23    2    1    2    0    0 -0.19307654864E+02  0.88957388001E+02 -0.14034799104E+03  0.18933502157E+03  0.88679137269E+02 0.  0.
          5    1    1    2  502    0 -0.75884699963E+01 -0.10784632821E+03 -0.37814381377E+02  0.11461158417E+03  0.41800000000E+01 0.  1.
         -5    1    1    2    0  502  0.26896124860E+02  0.18888940213E+02 -0.59656805449E+02  0.68239288033E+02  0.41800000000E+01 0.  1.
        -11    1    3    3    0    0  0.31834759925E+02  0.24416502136E+02 -0.23857104443E+02  0.46677392263E+02  0.00000000000E+00 0.  1.
         11    1    3    3    0    0 -0.51142414789E+02  0.64540885865E+02 -0.11649088660E+03  0.14265762931E+03  0.00000000000E+00 0. -1.
</event>
<event>
 7    1  0.6145388E-006  0.1141862E+03  0.7561462E-02  0.1253008E+00
         -4   -1    0    0    0  501 -0.00000000000E+00  0.00000000000E+00  0.39313746338E+02  0.39313746338E+02  0.00000000000E+00 0.  1.
          4   -1    0    0  501    0  0.00000000000E+00 -0.00000000000E+00 -0.42444366061E+03  0.42444366061E+03  0.00000000000E+00 0. -1.
         23    2    1    2    0    0  0.30000929191E+01  0.47128230108E+02 -0.26349942353E+03  0.28300459464E+03  0.91812764680E+02 0.  0.
          5    1    1    2  502    0 -0.14714679632E+02 -0.88856165057E+02 -0.81594813820E+02  0.12160232690E+03  0.41800000000E+01 0.  1.
         -5    1    1    2    0  502  0.11714586713E+02  0.41727934949E+02 -0.40035676924E+02  0.59150485405E+02  0.41800000000E+01 0.  1.
        -11    1    3    3    0    0  0.22042937050E+01  0.70873781851E+02 -0.23715680281E+03  0.24753040416E+03  0.00000000000E+00 0. -1.
         11    1    3    3    0    0  0.79579921415E+00 -0.23745551743E+02 -0.26342620713E+02  0.35474190477E+02  0.00000000000E+00 0.  1.
</event>
<event>
 7    1  0.6145388E-006  0.3675126E+03  0.7561462E-02  0.1055648E+00
          1   -1    0    0  501    0  0.00000000000E+00  0.00000000000E+00  0.17053111565E+04  0.17053111565E+04  0.00000000000E+00 0. -1.
         -1   -1    0    0    0  501 -0.00000000000E+00 -0.00000000000E+00 -0.84820761404E+02  0.84820761404E+02  0.00000000000E+00 0.  1.
         23    2    1    2    0    0  0.67656594551E+02 -0.34927913251E+03  0.98545824430E+03  0.10515623971E+04  0.89901037903E+02 0.  0.
          5    1    1    2  502    0 -0.84077823738E+02  0.11679868272E+03  0.23673888262E+03  0.27708082516E+03  0.41800000000E+01 0.  1.
         -5    1    1    2    0  502  0.16421229186E+02  0.23248044979E+03  0.39829326820E+03  0.46148869563E+03  0.41800000000E+01 0.  1.
        -11    1    3    3    0    0  0.83934778319E+01 -0.14525279924E+03  0.29122781806E+03  0.32554948651E+03  0.00000000000E+00 0. -1.
         11    1    3    3    0    0  0.59263116719E+02 -0.20402633326E+03  0.69423042624E+03  0.72601291061E+03  0.00000000000E+00 0.  1.
</event>
<event>
 7    1  0.6145388E-006  0.3423060E+03  0.7561462E-02  0.1065818E+00
         -2   -1    0    0    0  501 -0.00000000000E+00  0.00000000000E+00  0.69443610476E+02  0.69443610476E+02  0.00000000000E+00 0.  1.
          2   -1    0    0  501    0  0.00000000000E+00 -0.00000000000E+00 -0.19791569001E+04  0.19791569001E+04  0.00000000000E+00 0. -1.
         23    2    1    2    0    0 -0.14471164095E+03 -0.30982062014E+03 -0.11959172418E+04  0.12472997281E+04  0.92780853323E+02 0.  0.
          5    1    1    2  502    0  0.10119721466E+03  0.20666683125E+03 -0.59523280670E+03  0.63817836219E+03  0.41800000000E+01 0. -1.
         -5    1    1    2    0  502  0.43514426289E+02  0.10315378889E+03 -0.11856324109E+03  0.16312242027E+03  0.41800000000E+01 0. -1.
        -11    1    3    3    0    0 -0.10683509729E+03 -0.20892691380E+03 -0.95448213177E+03  0.98290403051E+03  0.00000000000E+00 0.  1.
         11    1    3    3    0    0 -0.37876543661E+02 -0.10089370635E+03 -0.24143511005E+03  0.26439569759E+03  0.00000000000E+00 0. -1.
</event>
<event>
 7    1  0.6145388E-006  0.1291095E+03  0.7561462E-02  0.1228783E+00
          1   -1    0    0  501    0  0.00000000000E+00  0.00000000000E+00  0.45344314475E+03  0.45344314475E+03  0.00000000000E+00 0. -1.
         -1   -1    0    0    0  501 -0.00000000000E+00 -0.00000000000E+00 -0.44486596427E+02  0.44486596427E+02  0.00000000000E+00 0.  1.
         23    2    1    2    0    0 -0.10453877155E+01 -0.79125068447E+02  0.16853972226E+03  0.21560435283E+03  0.10870938178E+03 0.  0.
          5    1    1    2  502    0 -0.11409615306E+02  0.11189078188E+03  0.18849710307E+03  0.21954124136E+03  0.41800000000E+01 0. -1.
         -5    1    1    2    0  502  0.12455003021E+02 -0.32765713437E+02  0.51919722988E+02  0.62784146983E+02  0.41800000000E+01 0. -1.
        -11    1    3    3    0    0 -0.20799663927E+00  0.15619330786E+02  0.93347293736E+02  0.94645253471E+02  0.00000000000E+00 0. -1.
         11    1    3    3    0    0 -0.83739107627E+00 -0.94744399233E+02  0.75192428522E+02  0.12095909936E+03  0.00000000000E+00 0.  1.
</event>
<event>
 7    1  0.6145388E-006  0.1141692E+03  0.7561462E-02  0.1253038E+00
          1   -1    0    0  501    0  0.00000000000E+00  0.00000000000E+00  0.10538502649E+03  0.10538502649E+03  0.00000000000E+00 0. -1.
         -1   -1    0    0    0  501 -0.00000000000E+00 -0.00000000000E+00 -0.17860311568E+03  0.17860311568E+03  0.00000000000E+00 0.  1.
         23    2    1    2    0    0  0.35960343567E+02  0.53587669107E+02  0.23655097325E+02  0.11311917847E+03  0.89842085455E+02 0.  0.
          5    1    1    2  502    0 -0.80720675719E+02 -0.19581357819E+02 -0.68593681100E+02  0.10780455718E+03  0.41800000000E+01 0. -1.
         -5    1    1    2    0  502  0.44760332152E+02 -0.34006311288E+02 -0.28279505412E+02  0.63064406507E+02  0.41800000000E+01 0. -1.
        -11    1    3    3    0    0  0.46742392915E+01  0.57126630245E+02 -0.18747040559E+02  0.60305488356E+02  0.00000000000E+00 0.  1.
         11    1    3    3    0    0  0.31286104275E+02 -0.35389611375E+01  0.42402137883E+02  0.52813690117E+02  0.00000000000E+00 0. -1.
</event>
<event>
 7    1  0.6145388E-006  0.8521842E+02  0.7561462E-02  0.1314862E+00
          1   -1    0    0  501    0  0.00000000000E+00  0.00000000000E+00  0.42158006467E+03  0.42158006467E+03  0.00000000000E+00 0. -1.
         -1   -1    0    0    0  501 -0.00000000000E+00 -0.00000000000E+00 -0.53335674591E+02  0.53335674591E+02  0.00000000000E+00 0.  1.
         23    2    1    2    0    0  0.76593825384E+01  0.74210737989E+02  0.27995997707E+03  0.30459870483E+03  0.94004693777E+02 0.  0.
          5    1    1    2  502    0 -0.99698517238E+01 -0.53277750518E+02 -0.21494199142E+02  0.58458443705E+02  0.41800000000E+01 0.  1.
         -5    1    1    2    0  502  0.23104691855E+01 -0.20932987471E+02  0.10977861215E+03  0.11185859072E+03  0.41800000000E+01 0.  1.
        -11    1    3    3    0    0  0.14247881039E+02  0.82665115529E+02  0.28153422057E+03  0.29376528180E+03  0.00000000000E+00 0. -1.
         11    1    3    3    0    0 -0.65884985006E+01 -0.84543775400E+01 -0.15742434980E+01  0.10833423036E+02  0.00000000000E+00 0.  1.
</event>
<event>
 7    1  0.6145388E-006  0.1193603E+03  0.7561462E-02  0.1244156E+00
         -2   -1    0    0    0  501 -0.00000000000E+00  0.00000000000E+00  0.13872378444E+02  0.13872378444E+02  0.00000000000E+00 0.  1.
          2   -1    0    0  501    0  0.00000000000E+00 -0.00000000000E+00 -0.10380369858E+04  0.10380369858E+04  0.00000000000E+00 0. -1.
         23    2    1    2    0    0  0.30147995173E+02  0.40848694176E+02 -0.48881084494E+03  0.49979584343E+03  0.91007282922E+02 0.  0.
          5    1    1    2  502    0  0.16125744748E+02  0.39013715273E+02 -0.18220888995E+03  0.18708196492E+03  0.41800000000E+01 0.  1.
         -5    1    1    2    0  502 -0.46273739921E+02 -0.79862409450E+02 -0.35314487245E+03  0.36503155588E+03  0.41800000000E+01 0.  1.
        -11    1    3    3    0    0  0.53839631074E+02 -0.31512498888E+01 -0.27278310563E+03  0.27806340817E+03  0.00000000000E+00 0.  1.
         11    1    3    3    0    0 -0.23691635901E+02  0.43999944065E+02 -0.21602773932E+03  0.22173243525E+03  0.00000000000E+00 0. -1.
</event>
<event>
 7    1  0.6145388E-006  0.1277758E+03  0.7561462E-02  0.1230794E+00
         -1   -1    0    0    0  501 -0.00000000000E+00  0.00000000000E+00  0.15924789223E+03  0.15924789223E+03  0.00000000000E+00 0.  1.
          1   -1    0    0  501    0  0.00000000000E+00 -0.00000000000E+00 -0.12735761062E+03  0.12735761062E+03  0.00000000000E+00 0. -1.
         23    2    1    2    0    0 -0.93117447660E+02 -0.61269536735E+01  0.43708272373E+01  0.12813305751E+03  0.87695938764E+02 0.  0.
          5    1    1    2  502    0  0.69829565069E+02 -0.38091859092E+02 -0.27273852204E+02  0.84193190347E+02  0.41800000000E+01 0. -1.
         -5    1    1    2    0  502  0.23287882592E+02  0.44218812766E+02  0.54793306570E+02  0.74279254997E+02  0.41800000000E+01 0. -1.
        -11    1    3    3    0    0 -0.10400461146E+03  0.11905101703E+02  0.12763106562E+02  0.10545893770E+03  0.00000000000E+00 0.  1.
         11    1    3    3    0    0  0.10887163803E+02 -0.18032055376E+02 -0.83922793249E+01  0.22674119807E+02  0.00000000000E+00 0. -1.
</event>
<event>
 7    1  0.6145388E-006  0.1696488E+03  0.7561462E-02  0.1178215E+00
         -2   -1    0    0    0  501 -0.00000000000E+00  0.00000000000E+00  0.13384564991E+03  0.13384564991E+03  0.00000000000E+00 0.  1.
          2   -1    0    0  501    0  0.00000000000E+00 -0.00000000000E+00 -0.28585757362E+03  0.28585757362E+03  0.00000000000E+00 0. -1.
         23    2    1    2    0    0 -0.15133441826E+03 -0.28505746380E+02 -0.12977738643E+03  0.22005508593E+03  0.88698292491E+02 0.  0.
          5    1    1    2  502    0  0.40005672613E+01  0.12054855586E+02 -0.47373367725E+02  0.49224307524E+02  0.41800000000E+01 0. -1.
         -5    1    1    2    0  502  0.14733385100E+03  0.16450890794E+02  0.25138830434E+02  0.15042383007E+03  0.41800000000E+01 0. -1.
        -11    1    3    3    0    0 -0.14790984750E+03  0.10006351281E+01 -0.11072399125E+03  0.18476505756E+03  0.00000000000E+00 0.  1.
         11    1    3    3    0    0 -0.34245707596E+01 -0.29506381508E+02 -0.19053395177E+02  0.35290028370E+02  0.00000000000E+00 0. -1.
</event>
<event>
 7    1  0.6145388E-006  0.1143938E+03  0.7561462E-02  0.1252643E+00
         -2   -1    0    0    0  501 -0.00000000000E+00  0.00000000000E+00  0.40660834568E+03  0.40660834568E+03  0.00000000000E+00 0.  1.
          2   -1    0    0  501    0  0.00000000000E+00 -0.00000000000E+00 -0.42432590482E+02  0.42432590482E+02  0.00000000000E+00 0. -1.
         23    2    1    2    0    0  0.71895592372E+02 -0.58092929790E+01  0.18830556994E+03  0.21972627366E+03  0.87280717098E+02 0.  0.
          5    1    1    2  502    0 -0.13975719485E+02 -0.55455435699E+02  0.10260531411E+03  0.11754126496E+03  0.41800000000E+01 0. -1.
         -5    1    1    2    0  502 -0.57919872887E+02  0.61264728678E+02  0.73264871142E+02  0.11177339754E+03  0.41800000000E+01 0.  1.
        -11    1    3    3    0    0  0.26592005561E+02  0.21446093384E+02  0.15150602141E+03  0.15530983293E+03  0.00000000000E+00 0.  1.
         11    1    3    3    0    0  0.45303586811E+02 -0.27255386363E+02  0.36799548527E+02  0.64416440724E+02  0.00000000000E+00 0. -1.
</event>
<event>
 7    1  0.6145388E-006  0.1152538E+03  0.7561462E-02  0.1251139E+00
         -1   -1    0    0    0  501 -0.00000000000E+00  0.00000000000E+00  0.13250488836E+03  0.13250488836E+03  0.00000000000E+00 0. -1.
          1   -1    0    0  501    0  0.00000000000E+00 -0.00000000000E+00 -0.10859460057E+03  0.10859460057E+03  0.00000000000E+00 0.  1.
         23    2    1    2    0    0  0.41801960290E+02 -0.19938234474E+02 -0.10770685124E+02  0.10327995460E+03  0.91683173403E+02 0.  0.
          5    1    1    2  502    0 -0.52069345342E+02  0.64648581624E+02  0.55141053617E+01  0.83297860647E+02  0.41800000000E+01 0.  1.
         -5    1    1    2    0  502  0.10267385052E+02 -0.44710347150E+02  0.29166867553E+02  0.54521673681E+02  0.41800000000E+01 0.  1.
        -11    1    3    3    0    0 -0.57218628796E+01 -0.46523368941E+02 -0.13432278418E+02  0.48760533999E+02  0.00000000000E+00 0.  1.
         11    1    3    3    0    0  0.47523823169E+02  0.26585134467E+02  0.26615932938E+01  0.54519420596E+02  0.00000000000E+00 0. -1.
</event>
<event>
 7    1  0.6145388E-006  0.1380895E+03  0.7561462E-02  0.1215923E+00
          2   -1    0    0  501    0  0.00000000000E+00  0.00000000000E+00  0.35711018746E+03  0.35711018746E+03  0.00000000000E+00 0. -1.
         -2   -1    0    0    0  501 -0.00000000000E+00 -0.00000000000E+00 -0.99916487624E+02  0.99916487624E+02  0.00000000000E+00 0.  1.
         23    2    1    2    0    0  0.78799306276E+02 -0.44222237232E+02  0.27321476778E+03  0.30188260764E+03  0.91224243093E+02 0.  0.
          5    1    1    2  502    0 -0.15428961444E+02 -0.43015726468E+02 -0.10620916533E+02  0.47102885716E+02  0.41800000000E+01 0. -1.
         -5    1    1    2    0  502 -0.63370344832E+02  0.87237963700E+02 -0.54001514068E+01  0.10804118173E+03  0.41800000000E+01 0. -1.
        -11    1    3    3    0    0  0.60547992535E+02 -0.68877736263E+02  0.23867579433E+03  0.25568796756E+03  0.00000000000E+00 0. -1.
         11    1    3    3    0    0  0.18251313741E+02  0.24655499031E+02  0.34538973444E+02  0.46194640082E+02  0.00000000000E+00 0.  1.
</event>
<event>
 7    1  0.6145388E-006  0.8996549E+02  0.7561462E-02  0.1302935E+00
          1   -1    0    0  501    0  0.00000000000E+00  0.00000000000E+00  0.70736530941E+02  0.70736530941E+02  0.00000000000E+00 0. -1.
         -1   -1    0    0    0  501 -0.00000000000E+00 -0.00000000000E+00 -0.19482912209E+03  0.19482912209E+03  0.00000000000E+00 0.  1.
         23    2    1    2    0    0  0.51262806939E+01  0.77052131623E+01 -0.12510888066E+01  0.89999210248E+02  0.89513370836E+02 0.  0.
          5    1    1    2  502    0  0.12424769831E+02  0.48296176312E+02 -0.14204991695E+02  0.52020666477E+02  0.41800000000E+01 0.  1.
         -5    1    1    2    0  502 -0.17551050525E+02 -0.56001389474E+02 -0.10863651064E+03  0.12354577630E+03  0.41800000000E+01 0.  1.
        -11    1    3    3    0    0  0.16840597560E+02 -0.28441791836E+02  0.26975916609E+02  0.42664286305E+02  0.00000000000E+00 0.  1.
         11    1    3    3    0    0 -0.11714316866E+02  0.36147004998E+02 -0.28227005415E+02  0.47334923943E+02  0.00000000000E+00 0. -1.
</event>
<event>
 7    1  0.6145388E-006  0.1115862E+03  0.7561462E-02  0.1257660E+00
          2   -1    0    0  501    0  0.00000000000E+00  0.00000000000E+00  0.33666987400E+02  0.33666987400E+02  0.00000000000E+00 0. -1.
         -2   -1    0    0    0  501 -0.00000000000E+00 -0.00000000000E+00 -0.41248354759E+03  0.41248354759E+03  0.00000000000E+00 0.  1.
         23    2    1    2    0    0  0.29663262724E+01 -0.34522815206E+02 -0.10472680283E+03  0.14287922304E+03  0.90808288629E+02 0.  0.
          5    1    1    2  502    0  0.59716225854E+02  0.24251804051E+02 -0.16143164816E+03  0.17387301992E+03  0.41800000000E+01 0.  1.
         -5    1    1    2    0  502 -0.62682552126E+02  0.10271011155E+02 -0.11265810920E+03  0.12939829203E+03  0.41800000000E+01 0.  1.
        -11    1    3    3    0    0  0.31725398857E+02 -0.52262359081E+02 -0.81471057499E+02  0.10185965010E+03  0.00000000000E+00 0.  1.
         11    1    3    3    0    0 -0.28759072585E+02  0.17739543875E+02 -0.23255745333E+02  0.41019572936E+02  0.00000000000E+00 0. -1.
</event>
<event>
 7    1  0.6145388E-006  0.9463258E+02  0.7561462E-02  0.1292006E+00
         -1   -1    0    0    0  501 -0.00000000000E+00  0.00000000000E+00  0.74064220664E+02  0.74064220664E+02  0.00000000000E+00 0.  1.
          1   -1    0    0  501    0  0.00000000000E+00 -0.00000000000E+00 -0.17812344105E+03  0.17812344105E+03  0.00000000000E+00 0. -1.
         23    2    1    2    0    0  0.37915285845E+02 -0.77121130834E+01 -0.44331155696E+02  0.10826406085E+03  0.90877994681E+02 0.  0.
          5    1    1    2  502    0  0.34966708385E+02  0.37189010085E+02 -0.32314740617E+02  0.60559128358E+02  0.41800000000E+01 0. -1.
         -5    1    1    2    0  502 -0.72881994230E+02 -0.29476897001E+02 -0.27413324073E+02  0.83364472508E+02  0.41800000000E+01 0. -1.
        -11    1    3    3    0    0 -0.37327328114E+01 -0.16362724147E+02  0.23090444294E+02  0.28545413878E+02  0.00000000000E+00 0.  1.
         11    1    3    3    0    0  0.41648018656E+02  0.86506110634E+01 -0.67421599990E+02  0.79718646971E+02  0.00000000000E+00 0. -1.
</event>
<event>
 6    1  0.6145388E-006  0.5300068E+02  0.7561462E-02  0.1429797E+00
          1   -1    0    0  501    0  0.00000000000E+00  0.00000000000E+00  0.38453841613E+02  0.38453841613E+02  0.00000000000E+00 0. -1.
         -1   -1    0    0    0  501 -0.00000000000E+00 -0.00000000000E+00 -0.18169718604E+03  0.18169718604E+03  0.00000000000E+00 0.  1.
          5    1    1    2  502    0 -0.19523338963E+02 -0.33524817245E+02  0.12150432239E+02  0.40867830126E+02  0.41800000000E+01 0. -1.
         -5    1    1    2    0  502  0.65250793756E+01  0.32289981100E+02 -0.13491712425E+03  0.13894359415E+03  0.41800000000E+01 0.  1.
        -11    1    1    2    0    0  0.14681242334E+02 -0.12897905128E+02 -0.70547909775E+01  0.20776547088E+02  0.00000000000E+00 0. -1.
         11    1    1    2    0    0 -0.16829827461E+01  0.14132741274E+02 -0.13421861445E+02  0.19563056292E+02  0.00000000000E+00 0.  1.
</event>
<event>
 7    1  0.6145388E-006  0.1040968E+03  0.7561462E-02  0.1271909E+00
         -1   -1    0    0    0  501 -0.00000000000E+00  0.00000000000E+00  0.31133243401E+03  0.31133243401E+03  0.00000000000E+00 0.  1.
          1   -1    0    0  501    0  0.00000000000E+00 -0.00000000000E+00 -0.49093613830E+02  0.49093613830E+02  0.00000000000E+00 0. -1.
         23    2    1    2    0    0 -0.18254292398E+02  0.58610720906E+02  0.10874389743E+03  0.15311829966E+03  0.88608931068E+02 0.  0.
          5    1    1    2  502    0  0.49862426944E+02 -0.35801855041E+02  0.14940797766E+02  0.63314566120E+02  0.41800000000E+01 0. -1.
         -5    1    1    2    0  502 -0.31608134546E+02 -0.22808865866E+02  0.13855412498E+03  0.14399318207E+03  0.41800000000E+01 0. -1.
        -11    1    3    3    0    0 -0.14532771132E+02  0.82255457717E+02  0.79344577218E+02  0.11520730747E+03  0.00000000000E+00 0. -1.
         11    1    3    3    0    0 -0.37215212658E+01 -0.23644736811E+02  0.29399320215E+02  0.37910992185E+02  0.00000000000E+00 0.  1.
</event>
<event>
 7    1  0.6145388E-006  0.9256271E+02  0.7561462E-02  0.1296762E+00
         -1   -1    0    0    0  501 -0.00000000000E+00  0.00000000000E+00  0.14743262870E+04  0.14743262870E+04  0.00000000000E+00 0.  1.
          1   -1    0    0  501    0  0.00000000000E+00 -0.00000000000E+00 -0.10551484639E+02  0.10551484639E+02  0.00000000000E+00 0. -1.
         23    2    1    2    0    0  0.54962905325E+01  0.62624748241E+02  0.53541112470E+03  0.54601731959E+03  0.86705089455E+02 0.  0.
          5    1    1    2  502    0  0.85141306425E+01  0.37007323368E+01  0.24667182730E+01  0.10475826434E+02  0.41800000000E+01 0.  1.
         -5    1    1    2    0  502 -0.14010421175E+02 -0.66325480578E+02  0.92589695934E+03  0.92838462557E+03  0.41800000000E+01 0.  1.
        -11    1    3    3    0    0 -0.34430840781E+02  0.57157246845E+02  0.32408473399E+03  0.33088268083E+03  0.00000000000E+00 0.  1.
         11    1    3    3    0    0  0.39927131313E+02  0.54675013967E+01  0.21132639071E+03  0.21513463876E+03  0.00000000000E+00 0. -1.
</event>
<event>
 7    1  0.6145388E-006  0.1148410E+03  0.7561462E-02  0.1251859E+00
         -1   -1    0    0    0  501 -0.00000000000E+00  0.00000000000E+00  0.99320838035E+02  0.99320838035E+02  0.00000000000E+00 0.  1.
          1   -1    0    0  501    0  0.00000000000E+00 -0.00000000000E+00 -0.16508736578E+03  0.16508736578E+03  0.00000000000E+00 0. -1.
         23    2    1    2    0    0 -0.94548312243E+01  0.64965602721E+02 -0.46702619027E+02  0.12185750101E+03  0.91423151104E+02 0.  0.
          5    1    1    2  502    0 -0.48059647062E+02 -0.29070206653E+02 -0.42647488038E+02  0.70647627182E+02  0.41800000000E+01 0. -1.
         -5    1    1    2    0  502  0.57514478286E+02 -0.35895396069E+02  0.23583579315E+02  0.71903075628E+02  0.41800000000E+01 0. -1.
        -11    1    3    3    0    0 -0.45957387097E+02  0.42336552501E+02 -0.61467904204E+01  0.62787324668E+02  0.00000000000E+00 0.  1.
         11    1    3    3    0    0  0.36502555872E+02  0.22629050220E+02 -0.40555828606E+02  0.59070176341E+02  0.00000000000E+00 0. -1.
</event>
<event>
 7    1  0.6145388E-006  0.1096361E+03  0.7561462E-02  0.1261245E+00
          1   -1    0    0  501    0  0.00000000000E+00  0.00000000000E+00  0.32603016369E+02  0.32603016369E+02  0.00000000000E+00 0. -1.
         -1   -1    0    0    0  501 -0.00000000000E+00 -0.00000000000E+00 -0.67904194373E+03  0.67904194373E+03  0.00000000000E+00 0.  1.
         23    2    1    2    0    0  0.72385991947E+02 -0.52515541123E+02 -0.16348312925E+03  0.20658624397E+03  0.89182558594E+02 0.  0.
          5    1    1    2  502    0 -0.58428379923E+02  0.11519766301E+02 -0.80307965617E+02  0.10006708918E+03  0.41800000000E+01 0. -1.
         -5    1    1    2    0  502 -0.13957612023E+02  0.40995774822E+02 -0.40264783250E+03  0.40499162695E+03  0.41800000000E+01 0.  1.
        -11    1    3    3    0    0  0.77688046994E+02 -0.65769596111E+02 -0.16315958267E+03  0.19230736293E+03  0.00000000000E+00 0. -1.
         11    1    3    3    0    0 -0.53020550473E+01  0.13254054988E+02 -0.32354657767E+00  0.14278881039E+02  0.00000000000E+00 0.  1.
</event>
<event>
 7    1  0.6145388E-006  0.1796322E+03  0.7561462E-02  0.1168159E+00
          2   -1    0    0  501    0  0.00000000000E+00  0.00000000000E+00  0.10141896031E+04  0.10141896031E+04  0.00000000000E+00 0. -1.
         -2   -1    0    0    0  501 -0.00000000000E+00 -0.00000000000E+00 -0.34531532441E+02  0.34531532441E+02  0.00000000000E+00 0.  1.
         23    2    1    2    0    0 -0.14273983110E+03 -0.49497148222E+02  0.50765305868E+03  0.53758525931E+03  0.91987259874E+02 0.  0.
          5    1    1    2  502    0  0.77780155244E+02 -0.29821903347E+02  0.29474987690E+03  0.30632345781E+03  0.41800000000E+01 0.  1.
         -5    1    1    2    0  502  0.64959675859E+02  0.79319051569E+02  0.17725513510E+03  0.20481241844E+03  0.41800000000E+01 0.  1.
        -11    1    3    3    0    0 -0.68318722511E+02 -0.68179113839E+02  0.33548049255E+03  0.34908881433E+03  0.00000000000E+00 0.  1.
         11    1    3    3    0    0 -0.74421108592E+02  0.18681965616E+02  0.17217256613E+03  0.18849644498E+03  0.00000000000E+00 0. -1.
</event>
<event>
 7    1  0.6145388E-006  0.1007086E+03  0.7561462E-02  0.1278813E+00
         -1   -1    0    0    0  501 -0.00000000000E+00  0.00000000000E+00  0.15418873732E+02  0.15418873732E+02  0.00000000000E+00 0.  1.
          1   -1    0    0  501    0  0.00000000000E+00 -0.00000000000E+00 -0.87905196524E+03  0.87905196524E+03  0.00000000000E+00 0. -1.
         23    2    1    2    0    0  0.35227279792E+02  0.26503403902E+02 -0.33110266060E+03  0.34567285714E+03  0.88979551852E+02 0.  0.
          5    1    1    2  502    0 -0.48805814457E+02 -0.65386310753E+02 -0.24404245019E+03  0.25735494371E+03  0.41800000000E+01 0.  1.
         -5    1    1    2    0  502  0.13578534665E+02  0.38882906851E+02 -0.28848798073E+03  0.29144303813E+03  0.41800000000E+01 0.  1.
        -11    1    3    3    0    0  0.26161247063E+02  0.48179791656E+02 -0.30757220121E+03  0.31242016921E+03  0.00000000000E+00 0. -1.
         11    1    3    3    0    0  0.90660327288E+01 -0.21676387754E+02 -0.23530459388E+02  0.33252687929E+02  0.00000000000E+00 0.  1.
</event>
<event>
 7    1  0.6145388E-006  0.1128178E+03  0.7561462E-02  0.1255439E+00
         -2   -1    0    0    0  501 -0.00000000000E+00  0.00000000000E+00  0.25794483940E+02  0.25794483940E+02  0.00000000000E+00 0.  1.
          2   -1    0    0  501    0  0.00000000000E+00 -0.00000000000E+00 -0.71645376068E+03  0.71645376068E+03  0.00000000000E+00 0. -1.
         23    2    1    2    0    0 -0.58912291985E+02  0.21217236369E+02 -0.45193601880E+03  0.46555918501E+03  0.92619438556E+02 0.  0.
          5    1    1    2  502    0  0.79803757807E+02  0.51704132427E+01 -0.22715177275E+03  0.24085425717E+03  0.41800000000E+01 0.  1.
         -5    1    1    2    0  502 -0.20891465822E+02 -0.26387649612E+02 -0.11571485195E+02  0.35834802439E+02  0.41800000000E+01 0.  1.
        -11    1    3    3    0    0  0.63424980346E+01  0.42524444966E+02 -0.18629909468E+03  0.19119599468E+03  0.00000000000E+00 0. -1.
         11    1    3    3    0    0 -0.65254790019E+02 -0.21307208597E+02 -0.26563692412E+03  0.27436319034E+03  0.00000000000E+00 0.  1.
</event>
<event>
 7    1  0.6145388E-006  0.1709236E+03  0.7561462E-02  0.1176888E+00
         -2   -1    0    0    0  501 -0.00000000000E+00  0.00000000000E+00  0.16389289915E+03  0.16389289915E+03  0.00000000000E+00 0.  1.
          2   -1    0    0  501    0  0.00000000000E+00 -0.00000000000E+00 -0.22735052409E+03  0.22735052409E+03  0.00000000000E+00 0. -1.
         23    2    1    2    0    0 -0.12464538118E+03 -0.97120422631E+02 -0.44492649477E+02  0.18881728435E+03  0.93292676407E+02 0.  0.
          5    1    1    2  502    0 -0.74821050202E+01  0.61261227966E+01 -0.39273839180E+02  0.40662244405E+02  0.41800000000E+01 0. -1.
         -5    1    1    2    0  502  0.13212748620E+03  0.90994299835E+02  0.20308863722E+02  0.16176389448E+03  0.41800000000E+01 0. -1.
        -11    1    3    3    0    0 -0.36195040439E+01 -0.34261318989E+02  0.17924453390E+02  0.38835870245E+02  0.00000000000E+00 0.  1.
         11    1    3    3    0    0 -0.12102587714E+03 -0.62859103642E+02 -0.62417102866E+02  0.14998141411E+03  0.00000000000E+00 0. -1.
</event>
<event>
 7    1  0.6145388E-006  0.1046158E+03  0.7561462E-02  0.1270878E+00
          1   -1    0    0  501    0  0.00000000000E+00  0.00000000000E+00  0.38484131950E+03  0.38484131950E+03  0.00000000000E+00 0.  1.
         -1   -1    0    0    0  501 -0.00000000000E+00 -0.00000000000E+00 -0.10558304188E+03  0.10558304188E+03  0.00000000000E+00 0. -1.
         23    2    1    2    0    0  0.66485309464E+02 -0.52077184195E+02  0.31187199960E+03  0.33600846746E+03  0.92223731122E+02 0.  0.
          5    1    1    2  502    0 -0.25932824988E+02 -0.15322175507E+02 -0.63026326820E+02  0.69979073633E+02  0.41800000000E+01 0. -1.
         -5    1    1    2    0  502 -0.40552484476E+02  0.67399359702E+02  0.30412604839E+02  0.84436820277E+02  0.41800000000E+01 0. -1.
        -11    1    3    3    0    0  0.18720417093E+02 -0.48692961602E+02  0.26093091038E+03  0.26609471719E+03  0.00000000000E+00 0.  1.
         11    1    3    3    0    0  0.47764892371E+02 -0.33842225923E+01  0.50941089225E+02  0.69913750273E+02  0.00000000000E+00 0. -1.
</event>
<event>
 7    1  0.6145388E-006  0.1319278E+03  0.7561462E-02  0.1224623E+00
         -2   -1    0    0    0  501 -0.00000000000E+00  0.00000000000E+00  0.68797107729E+02  0.68797107729E+02  0.00000000000E+00 0.  1.
          2   -1    0    0  501    0  0.00000000000E+00 -0.00000000000E+00 -0.31912385552E+03  0.31912385552E+03  0.00000000000E+00 0. -1.
         23    2    1    2    0    0 -0.78327073330E+02 -0.75486621192E+01 -0.19455749263E+03  0.22996967212E+03  0.94028290637E+02 0.  0.
          5    1    1    2  502    0  0.10153073782E+03 -0.27738658252E+02 -0.39199177026E+02  0.11239204493E+03  0.41800000000E+01 0. -1.
         -5    1    1    2    0  502 -0.23203664493E+02  0.35287320371E+02 -0.16570078140E+02  0.45559246202E+02  0.41800000000E+01 0. -1.
        -11    1    3    3    0    0  0.65693897406E+01 -0.27997091531E+02 -0.85811496018E+02  0.90501971606E+02  0.00000000000E+00 0.  1.
         11    1    3    3    0    0 -0.84896463070E+02  0.20448429412E+02 -0.10874599661E+03  0.13946770051E+03  0.00000000000E+00 0. -1.
</event>
<event>
 7    1  0.6145388E-006  0.9344212E+02  0.7561462E-02  0.1294724E+00
          1   -1    0    0  501    0  0.00000000000E+00  0.00000000000E+00  0.66769082781E+02  0.66769082781E+02  0.00000000000E+00 0.  1.
         -1   -1    0    0    0  501 -0.00000000000E+00 -0.00000000000E+00 -0.22721069945E+03  0.22721069945E+03  0.00000000000E+00 0. -1.
         23    2    1    2    0    0 -0.54500440733E+01  0.64528525761E+02 -0.48122574741E+02  0.11382228558E+03  0.80287588566E+02 0.  0.
          5    1    1    2  502    0 -0.53901087805E+01 -0.70492647889E+02 -0.13587447088E+03  0.15322405462E+03  0.41800000000E+01 0.  1.
         -5    1    1    2    0  502  0.10840152854E+02  0.59641221275E+01  0.23555428948E+02  0.26933442030E+02  0.41800000000E+01 0.  1.
        -11    1    3    3    0    0  0.36350818008E+02  0.18366571081E+02 -0.16079067614E+02  0.43786405636E+02  0.00000000000E+00 0. -1.
         11    1    3    3    0    0 -0.41800862082E+02  0.46161954680E+02 -0.32043507127E+02  0.70035879945E+02  0.00000000000E+00 0.  1.
</event>
<event>
 7    1  0.6145388E-006  0.9610035E+02  0.7561462E-02  0.1288717E+00
         -2   -1    0    0    0  501 -0.00000000000E+00  0.00000000000E+00  0.26164008700E+02  0.26164008700E+02  0.00000000000E+00 0.  1.
          2   -1    0    0  501    0  0.00000000000E+00 -0.00000000000E+00 -0.50768441982E+03  0.50768441982E+03  0.00000000000E+00 0. -1.
         23    2    1    2    0    0 -0.37642906173E+02  0.48552405474E+02 -0.23978939295E+03  0.25347788319E+03  0.54568854043E+02 0.  0.
          5    1    1    2  502    0  0.34768840070E+02  0.31944031359E+02 -0.15430942909E+03  0.16142541834E+03  0.41800000000E+01 0. -1.
         -5    1    1    2    0  502  0.28740661030E+01 -0.80496436833E+02 -0.87421589082E+02  0.11894512700E+03  0.41800000000E+01 0.  1.
        -11    1    3    3    0    0 -0.29327789558E+02  0.22993001813E+02 -0.21030398735E+03  0.21358034663E+03  0.00000000000E+00 0. -1.
         11    1    3    3    0    0 -0.83151166151E+01  0.25559403660E+02 -0.29485405605E+02  0.39897536559E+02  0.00000000000E+00 0.  1.
</event>
<event>
 7    1  0.1205097E-005  0.4063534E+03  0.7561462E-02  0.1041602E+00
          2   -1    0    0  501    0  0.00000000000E+00  0.00000000000E+00  0.36531168518E+04  0.36531168518E+04  0.00000000000E+00 0.  1.
         -2   -1    0    0    0  501 -0.00000000000E+00 -0.00000000000E+00 -0.51019994380E+02  0.51019994380E+02  0.00000000000E+00 0. -1.
         23    2    1    2    0    0 -0.38762478845E+03 -0.77459611467E+02  0.23610736028E+04  0.23956882594E+04  0.91655387527E+02 0.  0.
          5    1    1    2  502    0  0.13774685416E+03  0.75233653428E+02  0.36191441543E+03  0.39450451826E+03  0.41800000000E+01 0. -1.
         -5    1    1    2    0  502  0.24987793430E+03  0.22259580387E+01  0.87910883919E+03  0.91394406857E+03  0.41800000000E+01 0. -1.
        -11    1    3    3    0    0 -0.25670970595E+03 -0.63367271572E+01  0.14930963531E+04  0.15150170781E+04  0.00000000000E+00 0.  1.
         11    1    3    3    0    0 -0.13091508251E+03 -0.71122884309E+02  0.86797724973E+03  0.88067118128E+03  0.00000000000E+00 0. -1.
</event>
<event>
 7    1  0.6145388E-006  0.2667096E+03  0.7561462E-02  0.1103178E+00
          4   -1    0    0  501    0  0.00000000000E+00  0.00000000000E+00  0.35969862166E+02  0.35969862166E+02  0.00000000000E+00 0. -1.
         -4   -1    0    0    0  501 -0.00000000000E+00 -0.00000000000E+00 -0.20132770694E+04  0.20132770694E+04  0.00000000000E+00 0.  1.
         23    2    1    2    0    0 -0.61693009705E+01 -0.24629421769E+03 -0.10329962847E+04  0.10653417606E+04  0.84692624940E+02 0.  0.
          5    1    1    2  502    0  0.26229141532E+01  0.26030468054E+03 -0.87156992346E+03  0.90962465351E+03  0.41800000000E+01 0.  1.
         -5    1    1    2    0  502  0.35463868173E+01 -0.14010462843E+02 -0.72740999069E+02  0.74280517460E+02  0.41800000000E+01 0.  1.
        -11    1    3    3    0    0  0.35368663271E+02 -0.11436679115E+03 -0.55338829287E+03  0.56618840323E+03  0.00000000000E+00 0.  1.
         11    1    3    3    0    0 -0.41537964241E+02 -0.13192742654E+03 -0.47960799184E+03  0.49915335738E+03  0.00000000000E+00 0. -1.
</event>
<event>
 7    1  0.6145388E-006  0.1260070E+03  0.7561462E-02  0.1233504E+00
          1   -1    0    0  501    0  0.00000000000E+00  0.00000000000E+00  0.42849386009E+03  0.42849386009E+03  0.00000000000E+00 0. -1.
         -1   -1    0    0    0  501 -0.00000000000E+00 -0.00000000000E+00 -0.62994400142E+02  0.62994400142E+02  0.00000000000E+00 0.  1.
         23    2    1    2    0    0 -0.12077643551E+03 -0.21134048038E+02  0.21136350503E+03  0.25816806258E+03  0.83322397444E+02 0.  0.
          5    1    1    2  502    0  0.62415200542E+02  0.14895393890E+02 -0.41630248988E+01  0.64438600187E+02  0.41800000000E+01 0. -1.
         -5    1    1    2    0  502  0.58361234965E+02  0.62386541478E+01  0.15829897982E+03  0.16888159747E+03  0.41800000000E+01 0. -1.
        -11    1    3    3    0    0 -0.97036689345E+02 -0.32781699339E+02  0.20755554721E+03  0.23145207726E+03  0.00000000000E+00 0. -1.
         11    1    3    3    0    0 -0.23739746162E+02  0.11647651301E+02  0.38079578207E+01  0.26715985316E+02  0.00000000000E+00 0.  1.
</event>
<event>
 7    1  0.6145388E-006  0.9382963E+02  0.7561462E-02  0.1293834E+00
          2   -1    0    0  501    0  0.00000000000E+00  0.00000000000E+00  0.14242292632E+03  0.14242292632E+03  0.00000000000E+00 0. -1.
         -2   -1    0    0    0  501 -0.00000000000E+00 -0.00000000000E+00 -0.98340057530E+02  0.98340057530E+02  0.00000000000E+00 0.  1.
         23    2    1    2    0    0  0.16797942261E+02  0.22938907333E+01  0.44833055540E+02  0.11453831141E+03  0.10402686726E+03 0.  0.
          5    1    1    2  502    0  0.50186864208E+01  0.44858836890E+02  0.39691209953E+02  0.60252526985E+02  0.41800000000E+01 0.  1.
         -5    1    1    2    0  502 -0.21816628682E+02 -0.47152727623E+02 -0.40441396702E+02  0.65972145460E+02  0.41800000000E+01 0.  1.
        -11    1    3    3    0    0  0.46195621546E+02 -0.22834049931E+02  0.54158124747E+02  0.74756483079E+02  0.00000000000E+00 0. -1.
         11    1    3    3    0    0 -0.29397679285E+02  0.25127940664E+02 -0.93250692067E+01  0.39781828327E+02  0.00000000000E+00 0.  1.
</event>
<event>
 7    1  0.6145388E-006  0.3164449E+03  0.7561462E-02  0.1077297E+00
          2   -1    0    0  501    0  0.00000000000E+00  0.00000000000E+00  0.24311565481E+04  0.24311565481E+04  0.00000000000E+00 0. -1.
         -2   -1    0    0    0  501 -0.00000000000E+00 -0.00000000000E+00 -0.46872162264E+02  0.46872162264E+02  0.00000000000E+00 0.  1.
         23    2    1    2    0    0 -0.29814923698E+03  0.24885913161E+02  0.15818800300E+04  0.16125731398E+04  0.92387368826E+02 0.  0.
          5    1    1    2  502    0  0.14528761460E+03  0.44441602564E+02  0.45269696381E+03  0.47753069057E+03  0.41800000000E+01 0.  1.
         -5    1    1    2    0  502  0.15286162238E+03 -0.69327515725E+02  0.34970739208E+03  0.38792487998E+03  0.41800000000E+01 0.  1.
        -11    1    3    3    0    0 -0.80734203827E+02  0.48698138959E+02  0.45574868914E+03  0.46539917066E+03  0.00000000000E+00 0.  1.
         11    1    3    3    0    0 -0.21741503315E+03 -0.23812225797E+02  0.11261313408E+04  0.11471739692E+04  0.00000000000E+00 0. -1.
</event>
<event>
 7    1  0.6145388E-006  0.3731023E+03  0.7561462E-02  0.1053513E+00
         -1   -1    0    0    0  501 -0.00000000000E+00  0.00000000000E+00  0.14516901357E+03  0.14516901357E+03  0.00000000000E+00 0.  1.
          1   -1    0    0  501    0  0.00000000000E+00 -0.00000000000E+00 -0.10727587213E+04  0.10727587213E+04  0.00000000000E+00 0. -1.
         23    2    1    2    0    0 -0.35652988468E+03 -0.87051209454E+02 -0.60468097334E+03  0.71333938496E+03  0.92317532859E+02 0.  0.
          5    1    1    2  502    0  0.11054988552E+03 -0.99312187386E+01 -0.41886319552E+02  0.11870906646E+03  0.41800000000E+01 0. -1.
         -5    1    1    2    0  502  0.24597999916E+03  0.96982428192E+02 -0.28102241485E+03  0.38587928347E+03  0.41800000000E+01 0. -1.
        -11    1    3    3    0    0 -0.12414996112E+03 -0.50049963943E+01 -0.27467293117E+03  0.30146887393E+03  0.00000000000E+00 0. -1.
         11    1    3    3    0    0 -0.23237992356E+03 -0.82046213059E+02 -0.33000804218E+03  0.41187051103E+03  0.00000000000E+00 0.  1.
</event>
<event>
 7    1  0.6145388E-006  0.9969596E+02  0.7561462E-02  0.1280937E+00
         -2   -1    0    0    0  501 -0.00000000000E+00  0.00000000000E+00  0.32384949336E+02  0.32384949336E+02  0.00000000000E+00 0.  1.
          2   -1    0    0  501    0  0.00000000000E+00 -0.00000000000E+00 -0.42759736828E+03  0.42759736828E+03  0.00000000000E+00 0. -1.
         23    2    1    2    0    0 -0.41601820215E+02  0.37948500132E+02 -0.14635671333E+03  0.17581902688E+03  0.79506242328E+02 0.  0.
          5    1    1    2  502    0  0.80565796618E+02 -0.27205722666E+02 -0.21510562039E+03  0.23134152081E+03  0.41800000000E+01 0.  1.
         -5    1    1    2    0  502 -0.38963976404E+02 -0.10742777466E+02 -0.33750085229E+02  0.52821769923E+02  0.41800000000E+01 0.  1.
        -11    1    3    3    0    0 -0.33438297979E+02  0.49341620917E+02 -0.14993959242E+03  0.16135239912E+03  0.00000000000E+00 0. -1.
         11    1    3    3    0    0 -0.81635222359E+01 -0.11393120785E+02  0.35828790812E+01  0.14466627770E+02  0.00000000000E+00 0.  1.
</event>
<event>
 7    1  0.6145388E-006  0.1005086E+03  0.7561462E-02  0.1279230E+00
         -3   -1    0    0    0  501 -0.00000000000E+00  0.00000000000E+00  0.10861333084E+03  0.10861333084E+03  0.00000000000E+00 0.  1.
          3   -1    0    0  501    0  0.00000000000E+00 -0.00000000000E+00 -0.21503694960E+03  0.21503694960E+03  0.00000000000E+00 0. -1.
         23    2    1    2    0    0  0.56801028712E+02  0.79451814780E+02 -0.96373487739E+02  0.16463041485E+03  0.90974593262E+02 0.  0.
          5    1    1    2  502    0 -0.14980045178E+02 -0.71786337518E+01 -0.59478593953E+02  0.61895961700E+02  0.41800000000E+01 0.  1.
         -5    1    1    2    0  502 -0.41820983534E+02 -0.72273181028E+02  0.49428462938E+02  0.97123903896E+02  0.41800000000E+01 0.  1.
        -11    1    3    3    0    0  0.17040320754E+02  0.87211458299E+01  0.16736330451E+02  0.25427065756E+02  0.00000000000E+00 0.  1.
         11    1    3    3    0    0  0.39760707958E+02  0.70730668950E+02 -0.11310981819E+03  0.13920334909E+03  0.00000000000E+00 0. -1.
</event>
<event>
 7    1  0.6145388E-006  0.6875594E+02  0.7561462E-02  0.1364375E+00
          2   -1    0    0  501    0  0.00000000000E+00  0.00000000000E+00  0.64165679595E+02  0.64165679595E+02  0.00000000000E+00 0. -1.
         -2   -1    0    0    0  501 -0.00000000000E+00 -0.00000000000E+00 -0.18545521491E+03  0.18545521491E+03  0.00000000000E+00 0.  1.
         23    2    1    2    0    0 -0.78629734628E+01 -0.12049807521E+02 -0.57124172749E+02  0.10830114789E+03  0.90878728579E+02 0.  0.
          5    1    1    2  502    0 -0.29484048272E+02 -0.10763518468E+02 -0.86424891747E+02  0.92042907091E+02  0.41800000000E+01 0.  1.
         -5    1    1    2    0  502  0.37347021735E+02  0.22813325989E+02  0.22259529177E+02  0.49276839533E+02  0.41800000000E+01 0.  1.
        -11    1    3    3    0    0  0.79850992483E+01  0.22499270603E+02 -0.65207519405E+02  0.69440619054E+02  0.00000000000E+00 0.  1.
         11    1    3    3    0    0 -0.15848072711E+02 -0.34549078124E+02  0.80833466560E+01  0.38860528831E+02  0.00000000000E+00 0. -1.
</event>
<event>
 7    1  0.6145388E-006  0.1197854E+03  0.7561462E-02  0.1243452E+00
          1   -1    0    0  501    0  0.00000000000E+00  0.00000000000E+00  0.48848840710E+03  0.48848840710E+03  0.00000000000E+00 0. -1.
         -1   -1    0    0    0  501 -0.00000000000E+00 -0.00000000000E+00 -0.40016665936E+02  0.40016665936E+02  0.00000000000E+00 0.  1.
         23    2    1    2    0    0 -0.63427175188E+02 -0.18643133194E+02  0.31502055594E+03  0.33401214470E+03  0.89194109535E+02 0.  0.
          5    1    1    2  502    0  0.50700052831E+02  0.65240773861E+02  0.46410315728E+02  0.94859073035E+02  0.41800000000E+01 0.  1.
         -5    1    1    2    0  502  0.12727122357E+02 -0.46597640667E+02  0.87040869494E+02  0.99633855297E+02  0.41800000000E+01 0.  1.
        -11    1    3    3    0    0 -0.15536137697E+02 -0.49167530099E+02  0.18662265947E+03  0.19361517146E+03  0.00000000000E+00 0.  1.
         11    1    3    3    0    0 -0.47891037491E+02  0.30524396905E+02  0.12839789647E+03  0.14039697324E+03  0.00000000000E+00 0. -1.
</event>
<event>
 7    1  0.6145388E-006  0.1490387E+03  0.7561462E-02  0.1201659E+00
         -2   -1    0    0    0  501 -0.00000000000E+00  0.00000000000E+00  0.41403761017E+02  0.41403761017E+02  0.00000000000E+00 0.  1.
          2   -1    0    0  501    0  0.00000000000E+00 -0.00000000000E+00 -0.60074309479E+03  0.60074309479E+03  0.00000000000E+00 0. -1.
         23    2    1    2    0    0 -0.44636927808E+02 -0.95472174063E+02 -0.34840229527E+03  0.37522193883E+03  0.91104076098E+02 0.  0.
          5    1    1    2  502    0  0.84842682174E+02  0.77224179219E+02 -0.12186884034E+03  0.16742562892E+03  0.41800000000E+01 0. -1.
         -5    1    1    2    0  502 -0.40205754366E+02  0.18247994844E+02 -0.89068198157E+02  0.99499288053E+02  0.41800000000E+01 0. -1.
        -11    1    3    3    0    0  0.28119095109E+02 -0.24719332317E+02 -0.10670679117E+03  0.11308434101E+03  0.00000000000E+00 0. -1.
         11    1    3    3    0    0 -0.72756022917E+02 -0.70752841747E+02 -0.24169550410E+03  0.26213759782E+03  0.00000000000E+00 0.  1.
</event>
<event>
 7    1  0.6145388E-006  0.7407940E+02  0.7561462E-02  0.1346746E+00
         -1   -1    0    0    0  501 -0.00000000000E+00  0.00000000000E+00  0.27348067882E+03  0.27348067882E+03  0.00000000000E+00 0.  1.
          1   -1    0    0  501    0  0.00000000000E+00 -0.00000000000E+00 -0.46933562451E+02  0.46933562451E+02  0.00000000000E+00 0. -1.
         23    2    1    2    0    0 -0.16920410930E+02  0.78462596732E-01  0.57687991935E+02  0.10958872610E+03  0.91626841107E+02 0.  0.
          5    1    1    2  502    0 -0.50738967750E+02  0.72931007287E+01  0.40438906271E+02  0.65424840137E+02  0.41800000000E+01 0.  1.
         -5    1    1    2    0  502  0.67659378680E+02 -0.73715633254E+01  0.12842021817E+03  0.14540067504E+03  0.41800000000E+01 0.  1.
        -11    1    3    3    0    0 -0.13349316546E+02  0.10843427948E+02  0.81456783952E+02  0.83252578541E+02  0.00000000000E+00 0.  1.
         11    1    3    3    0    0 -0.35710943838E+01 -0.10764965351E+02 -0.23768792016E+02  0.26336147555E+02  0.00000000000E+00 0. -1.
</event>
<event>
 7    1  0.6145388E-006  0.1183539E+03  0.7561462E-02  0.1245838E+00
         -1   -1    0    0    0  501 -0.00000000000E+00  0.00000000000E+00  0.10912797062E+03  0.10912797062E+03  0.00000000000E+00 0.  1.
          1   -1    0    0  501    0  0.00000000000E+00 -0.00000000000E+00 -0.19081226637E+03  0.19081226637E+03  0.00000000000E+00 0. -1.
         23    2    1    2    0    0  0.18915204477E+02  0.75514635262E+02 -0.96488320334E+02  0.15185949930E+03  0.87698725580E+02 0.  0.
          5    1    1    2  502    0  0.11615391409E+01  0.20758163417E+02  0.41054212965E+02  0.46207914082E+02  0.41800000000E+01 0.  1.
         -5    1    1    2    0  502 -0.20076743617E+02 -0.96272798679E+02 -0.26250188384E+02  0.10187282361E+03  0.41800000000E+01 0.  1.
        -11    1    3    3    0    0 -0.32664860175E+02  0.10996043103E+02 -0.24456088366E+02  0.42261167901E+02  0.00000000000E+00 0.  1.
         11    1    3    3    0    0  0.51580064652E+02  0.64518592159E+02 -0.72032231968E+02  0.10959833140E+03  0.00000000000E+00 0. -1.
</event>
<event>
 7    1  0.6145388E-006  0.1072142E+03  0.7561462E-02  0.1265817E+00
         -2   -1    0    0    0  501 -0.00000000000E+00  0.00000000000E+00  0.26826827874E+02  0.26826827874E+02  0.00000000000E+00 0. -1.
          2   -1    0    0  501    0  0.00000000000E+00 -0.00000000000E+00 -0.46664427934E+03  0.46664427934E+03  0.00000000000E+00 0.  1.
         23    2    1    2    0    0  0.15376192879E+02 -0.10631988924E+02 -0.24663967430E+03  0.26257380036E+03  0.88115862365E+02 0.  0.
          5    1    1    2  502    0  0.52288845589E+02  0.20017375250E+02 -0.67554134242E+02  0.87839923373E+02  0.41800000000E+01 0.  1.
         -5    1    1    2    0  502 -0.67665038468E+02 -0.93853863263E+01 -0.12562364293E+03  0.14305738348E+03  0.41800000000E+01 0.  1.
        -11    1    3    3    0    0 -0.15103868455E+02  0.33188661862E+02 -0.90924671252E+02  0.97963819652E+02  0.00000000000E+00 0. -1.
         11    1    3    3    0    0  0.30480061334E+02 -0.43820650786E+02 -0.15571500305E+03  0.16460998071E+03  0.00000000000E+00 0.  1.
</event>
<event>
 7    1  0.6145388E-006  0.1350224E+03  0.7561462E-02  0.1220188E+00
         -2   -1    0    0    0  501 -0.00000000000E+00  0.00000000000E+00  0.11755972117E+03  0.11755972117E+03  0.00000000000E+00 0.  1.
          2   -1    0    0  501    0  0.00000000000E+00 -0.00000000000E+00 -0.17402790412E+03  0.17402790412E+03  0.00000000000E+00 0. -1.
         23    2    1    2    0    0 -0.39598504852E+02  0.88149349482E+02 -0.26559291618E+02  0.13072471468E+03  0.83935723358E+02 0.  0.
          5    1    1    2  502    0  0.82326257933E+02 -0.36454331125E+02 -0.94893951396E+01  0.90631407487E+02  0.41800000000E+01 0.  1.
         -5    1    1    2    0  502 -0.42727753081E+02 -0.51695018357E+02 -0.20419496194E+02  0.70231503125E+02  0.41800000000E+01 0.  1.
        -11    1    3    3    0    0  0.12690516363E+02  0.34105660446E+01  0.17462491809E+02  0.21854514098E+02  0.00000000000E+00 0.  1.
         11    1    3    3    0    0 -0.52289021215E+02  0.84738783437E+02 -0.44021783426E+02  0.10887020058E+03  0.00000000000E+00 0. -1.
</event>
<event>
 7    1  0.6145388E-006  0.1274556E+03  0.7561462E-02  0.1231281E+00
          3   -1    0    0  501    0  0.00000000000E+00  0.00000000000E+00  0.58310591785E+03  0.58310591785E+03  0.00000000000E+00 0. -1.
         -3   -1    0    0    0  501 -0.00000000000E+00 -0.00000000000E+00 -0.45760585564E+02  0.45760585564E+02  0.00000000000E+00 0.  1.
         23    2    1    2    0    0 -0.11838395628E+03  0.94764831612E+01  0.30687210741E+03  0.34099497934E+03  0.89456809623E+02 0.  0.
          5    1    1    2  502    0  0.63356399213E+02  0.11417716796E+02  0.21828274318E+03  0.22761640087E+03  0.41800000000E+01 0.  1.
         -5    1    1    2    0  502  0.55027557063E+02 -0.20894199957E+02  0.12190481695E+02  0.60255123202E+02  0.41800000000E+01 0.  1.
        -11    1    3    3    0    0 -0.41407412886E+02 -0.23540185215E+02  0.43074020515E+02  0.64219042388E+02  0.00000000000E+00 0.  1.
         11    1    3    3    0    0 -0.76976543390E+02  0.33016668376E+02  0.26379808690E+03  0.27677593695E+03  0.00000000000E+00 0. -1.
</event>
<event>
 7    1  0.6145388E-006  0.1144434E+03  0.7561462E-02  0.1252556E+00
         -2   -1    0    0    0  501 -0.00000000000E+00  0.00000000000E+00  0.48953781427E+02  0.48953781427E+02  0.00000000000E+00 0. -1.
          2   -1    0    0  501    0  0.00000000000E+00 -0.00000000000E+00 -0.30059702876E+03  0.30059702876E+03  0.00000000000E+00 0.  1.
         23    2    1    2    0    0  0.12401350708E+02 -0.52006854713E+02 -0.12468523435E+03  0.16348275411E+03  0.91223334675E+02 0.  0.
          5    1    1    2  502    0  0.42695482695E+02  0.58102469996E+02 -0.39176754285E+02  0.82165027466E+02  0.41800000000E+01 0.  1.
         -5    1    1    2    0  502 -0.55096833403E+02 -0.60956152826E+01 -0.87781258699E+02  0.10390302862E+03  0.41800000000E+01 0.  1.
        -11    1    3    3    0    0 -0.20949428728E+02 -0.62653876415E+02 -0.10279516997E+03  0.12219342766E+03  0.00000000000E+00 0.  1.
         11    1    3    3    0    0  0.33350779436E+02  0.10647021702E+02 -0.21890064381E+02  0.41289326450E+02  0.00000000000E+00 0. -1.
</event>
<event>
 7    1  0.6145388E-006  0.2342651E+03  0.7561462E-02  0.1123673E+00
          1   -1    0    0  501    0  0.00000000000E+00  0.00000000000E+00  0.79455230819E+03  0.79455230819E+03  0.00000000000E+00 0. -1.
         -1   -1    0    0    0  501 -0.00000000000E+00 -0.00000000000E+00 -0.84130715918E+02  0.84130715918E+02  0.00000000000E+00 0.  1.
         23    2    1    2    0    0  0.21813456148E+03  0.71941179860E+02  0.42494205233E+03  0.49152797240E+03  0.90916332619E+02 0.  0.
          5    1    1    2  502    0 -0.14166493255E+03 -0.14027509400E+02  0.24408448178E+03  0.28259587892E+03  0.41800000000E+01 0.  1.
         -5    1    1    2    0  502 -0.76469628934E+02 -0.57913670459E+02  0.41395058161E+02  0.10455917280E+03  0.41800000000E+01 0.  1.
        -11    1    3    3    0    0  0.10213266508E+03  0.40848597059E+02  0.11502670614E+03  0.15915662815E+03  0.00000000000E+00 0.  1.
         11    1    3    3    0    0  0.11600189641E+03  0.31092582800E+02  0.30991534619E+03  0.33237134425E+03  0.00000000000E+00 0. -1.
</event>
<event>
 7    1  0.6145388E-006  0.1079386E+03  0.7561462E-02  0.1264436E+00
         -4   -1    0    0    0  501 -0.00000000000E+00  0.00000000000E+00  0.41714739769E+03  0.41714739769E+03  0.00000000000E+00 0.  1.
          4   -1    0    0  501    0  0.00000000000E+00 -0.00000000000E+00 -0.30530214604E+02  0.30530214604E+02  0.00000000000E+00 0. -1.
         23    2    1    2    0    0  0.10159460180E+02  0.29889017660E+02  0.17492401014E+03  0.19977364552E+03  0.91184056246E+02 0.  0.
          5    1    1    2  502    0 -0.16255429988E+02  0.47625496711E+02  0.95578158374E+02  0.10809756565E+03  0.41800000000E+01 0. -1.
         -5    1    1    2    0  502  0.60959698074E+01 -0.77514514371E+02  0.11611501457E+03  0.13980640112E+03  0.41800000000E+01 0. -1.
        -11    1    3    3    0    0 -0.30521438278E+02 -0.83920346904E+01  0.26830811495E+02  0.41495504411E+02  0.00000000000E+00 0. -1.
         11    1    3    3    0    0  0.40680898459E+02  0.38281052350E+02  0.14809319864E+03  0.15827814111E+03  0.00000000000E+00 0.  1.
</event>
<event>
 7    1  0.6145388E-006  0.9039288E+02  0.7561462E-02  0.1301903E+00
          1   -1    0    0  501    0  0.00000000000E+00  0.00000000000E+00  0.50395030269E+03  0.50395030269E+03  0.00000000000E+00 0. -1.
         -1   -1    0    0    0  501 -0.00000000000E+00 -0.00000000000E+00 -0.37235232099E+02  0.37235232099E+02  0.00000000000E+00 0.  1.
         23    2    1    2    0    0 -0.51426713390E+02 -0.17203970206E+02  0.33450431319E+03  0.35127132147E+03  0.92507958034E+02 0.  0.
          5    1    1    2  502    0  0.18127708965E+02 -0.18314367209E+02 -0.18161357342E+02  0.31801527936E+02  0.41800000000E+01 0.  1.
         -5    1    1    2    0  502  0.33299004425E+02  0.35518337415E+02  0.15037211474E+03  0.15811268539E+03  0.41800000000E+01 0.  1.
        -11    1    3    3    0    0 -0.47840741804E+02 -0.52101051831E+02  0.19529620357E+03  0.20771100911E+03  0.00000000000E+00 0.  1.
         11    1    3    3    0    0 -0.35859715858E+01  0.34897081625E+02  0.13920810962E+03  0.14356031235E+03  0.00000000000E+00 0. -1.
</event>
<event>
 7    1  0.6145388E-006  0.1885335E+03  0.7561462E-02  0.1159791E+00
         -2   -1    0    0    0  501 -0.00000000000E+00  0.00000000000E+00  0.94224581698E+02  0.94224581698E+02  0.00000000000E+00 0.  1.
          2   -1    0    0  501    0  0.00000000000E+00 -0.00000000000E+00 -0.56322383813E+03  0.56322383813E+03  0.00000000000E+00 0. -1.
         23    2    1    2    0    0  0.60399518779E+02 -0.15952313132E+03 -0.39213061862E+03  0.43678870791E+03  0.89006864940E+02 0.  0.
          5    1    1    2  502    0  0.95059590950E+01 -0.15065057687E+02 -0.11009334177E+02  0.21354087675E+02  0.41800000000E+01 0. -1.
         -5    1    1    2    0  502 -0.69905477874E+02  0.17458818901E+03 -0.65859303640E+02  0.19930562424E+03  0.41800000000E+01 0.  1.
        -11    1    3    3    0    0  0.37811773211E+02 -0.92358217879E+02 -0.12252266071E+03  0.15802396334E+03  0.00000000000E+00 0.  1.
         11    1    3    3    0    0  0.22587745568E+02 -0.67164913445E+02 -0.26960795791E+03  0.27876474457E+03  0.00000000000E+00 0. -1.
</event>
<event>
 7    1  0.6145388E-006  0.1129925E+03  0.7561462E-02  0.1255126E+00
         -1   -1    0    0    0  501 -0.00000000000E+00  0.00000000000E+00  0.33822260577E+02  0.33822260577E+02  0.00000000000E+00 0.  1.
          1   -1    0    0  501    0  0.00000000000E+00 -0.00000000000E+00 -0.42853610243E+03  0.42853610243E+03  0.00000000000E+00 0. -1.
         23    2    1    2    0    0 -0.21510796224E+02  0.49730837873E+02 -0.21495294465E+03  0.23675412562E+03  0.83137699002E+02 0.  0.
          5    1    1    2  502    0 -0.36525003877E+02 -0.57978219848E+02 -0.55983782060E+02  0.88584457659E+02  0.41800000000E+01 0.  1.
         -5    1    1    2    0  502  0.58035800101E+02  0.82473819756E+01 -0.12377711514E+03  0.13701977972E+03  0.41800000000E+01 0.  1.
        -11    1    3    3    0    0  0.38250855819E+01  0.67507381840E+02 -0.13415783168E+03  0.15023382337E+03  0.00000000000E+00 0.  1.
         11    1    3    3    0    0 -0.25335881806E+02 -0.17776543967E+02 -0.80795112967E+02  0.86520302251E+02  0.00000000000E+00 0. -1.
</event>
<event>
 7    1  0.6145388E-006  0.1228117E+03  0.7561462E-02  0.1238529E+00
         -2   -1    0    0    0  501 -0.00000000000E+00  0.00000000000E+00  0.53498732509E+02  0.53498732509E+02  0.00000000000E+00 0.  1.
          2   -1    0    0  501    0  0.00000000000E+00 -0.00000000000E+00 -0.57385846807E+03  0.57385846807E+03  0.00000000000E+00 0. -1.
         23    2    1    2    0    0 -0.10578869957E+03 -0.49751269775E+02 -0.37333869300E+03  0.40168232035E+03  0.91106909682E+02 0.  0.
          5    1    1    2  502    0  0.49808320500E+02  0.47678980532E+02 -0.15427525730E+03  0.16903396519E+03  0.41800000000E+01 0.  1.
         -5    1    1    2    0  502  0.55980379071E+02  0.20722892431E+01  0.72542147399E+01  0.56640915027E+02  0.41800000000E+01 0.  1.
        -11    1    3    3    0    0 -0.42454049510E+02 -0.35765680527E+02 -0.60161695310E+02  0.81859390457E+02  0.00000000000E+00 0.  1.
         11    1    3    3    0    0 -0.63334650061E+02 -0.13985589247E+02 -0.31317699769E+03  0.31982292990E+03  0.00000000000E+00 0. -1.
</event>
<event>
 7    1  0.6145388E-006  0.7226952E+02  0.7561462E-02  0.1352541E+00
          4   -1    0    0  501    0  0.00000000000E+00  0.00000000000E+00  0.14690004663E+03  0.14690004663E+03  0.00000000000E+00 0. -1.
         -4   -1    0    0    0  501 -0.00000000000E+00 -0.00000000000E+00 -0.10782681892E+03  0.10782681892E+03  0.00000000000E+00 0.  1.
         23    2    1    2    0    0  0.12178875913E+02  0.15014320775E+02  0.33437154200E+02  0.12802392613E+03  0.12205870527E+03 0.  0.
          5    1    1    2  502    0 -0.49213208546E+02 -0.10391951878E+02 -0.42267794527E+02  0.65832905248E+02  0.41800000000E+01 0. -1.
         -5    1    1    2    0  502  0.37034332633E+02 -0.46223688970E+01  0.47903868031E+02  0.60870034172E+02  0.41800000000E+01 0. -1.
        -11    1    3    3    0    0  0.32261253525E+02  0.16758302477E+02 -0.38715355027E+02  0.53108454090E+02  0.00000000000E+00 0.  1.
         11    1    3    3    0    0 -0.20082377613E+02 -0.17439817020E+01  0.72152509228E+02  0.74915472037E+02  0.00000000000E+00 0. -1.
</event>
<event>
 7    1  0.6145388E-006  0.1018003E+03  0.7561462E-02  0.1276555E+00
          1   -1    0    0  501    0  0.00000000000E+00  0.00000000000E+00  0.43134222936E+03  0.43134222936E+03  0.00000000000E+00 0. -1.
         -1   -1    0    0    0  501 -0.00000000000E+00 -0.00000000000E+00 -0.35064056749E+02  0.35064056749E+02  0.00000000000E+00 0.  1.
         23    2    1    2    0    0  0.24242281057E+02 -0.13168215751E+02  0.27113153838E+03  0.28732533863E+03  0.91007961266E+02 0.  0.
          5    1    1    2  502    0 -0.14798851599E+02  0.66104029084E+02  0.96599820727E+02  0.11805823323E+03  0.41800000000E+01 0.  1.
         -5    1    1    2    0  502 -0.94434294576E+01 -0.52935813333E+02  0.28546813500E+02  0.61022714248E+02  0.41800000000E+01 0.  1.
        -11    1    3    3    0    0 -0.26178575103E+02  0.76116676215E+01  0.31928042338E+02  0.41983987018E+02  0.00000000000E+00 0.  1.
         11    1    3    3    0    0  0.50420856160E+02 -0.20779883372E+02  0.23920349604E+03  0.24534135161E+03  0.00000000000E+00 0. -1.
</event>
<event>
 7    1  0.6145388E-006  0.8896850E+02  0.7561462E-02  0.1305369E+00
         -2   -1    0    0    0  501 -0.00000000000E+00  0.00000000000E+00  0.60517666985E+02  0.60517666985E+02  0.00000000000E+00 0.  1.
          2   -1    0    0  501    0  0.00000000000E+00 -0.00000000000E+00 -0.22825134658E+03  0.22825134658E+03  0.00000000000E+00 0. -1.
         23    2    1    2    0    0  0.36257219092E+02  0.40382583131E+02 -0.10299459982E+03  0.13782201069E+03  0.73767744176E+02 0.  0.
          5    1    1    2  502    0 -0.36895653994E+02  0.87640411234E+01  0.27032565942E+02  0.46758204861E+02  0.41800000000E+01 0. -1.
         -5    1    1    2    0  502  0.63843490112E+00 -0.49146624254E+02 -0.91771645712E+02  0.10418879801E+03  0.41800000000E+01 0. -1.
        -11    1    3    3    0    0 -0.44518187907E+00  0.51967578541E+02 -0.69630653674E+02  0.86886450827E+02  0.00000000000E+00 0.  1.
         11    1    3    3    0    0  0.36702400972E+02 -0.11584995410E+02 -0.33363946151E+02  0.50935559862E+02  0.00000000000E+00 0. -1.
</event>
<event>
 7    1  0.6145388E-006  0.1503759E+03  0.7561462E-02  0.1200012E+00
         -1   -1    0    0    0  501 -0.00000000000E+00  0.00000000000E+00  0.83306638277E+03  0.83306638277E+03  0.00000000000E+00 0.  1.
          1   -1    0    0  501    0  0.00000000000E+00 -0.00000000000E+00 -0.30407248227E+02  0.30407248227E+02  0.00000000000E+00 0. -1.
         23    2    1    2    0    0  0.11396939871E+03  0.29716361721E+02  0.28913376714E+03  0.32340185087E+03  0.84370230847E+02 0.  0.
          5    1    1    2  502    0  0.63478069902E+01  0.24084562931E+02  0.31713493483E+02  0.40541076627E+02  0.41800000000E+01 0. -1.
         -5    1    1    2    0  502 -0.12031720570E+03 -0.53800924652E+02  0.48181187392E+03  0.49953070349E+03  0.41800000000E+01 0.  1.
        -11    1    3    3    0    0  0.33773299636E+02  0.50531287441E+02  0.10179288001E+03  0.11855731610E+03  0.00000000000E+00 0.  1.
         11    1    3    3    0    0  0.80196099076E+02 -0.20814925720E+02  0.18734088712E+03  0.20484453478E+03  0.00000000000E+00 0. -1.
</event>
<event>
 7    1  0.6145388E-006  0.1127473E+03  0.7561462E-02  0.1255565E+00
          1   -1    0    0  501    0  0.00000000000E+00  0.00000000000E+00  0.26212800718E+03  0.26212800718E+03  0.00000000000E+00 0. -1.
         -1   -1    0    0    0  501 -0.00000000000E+00 -0.00000000000E+00 -0.54927186381E+02  0.54927186381E+02  0.00000000000E+00 0.  1.
         23    2    1    2    0    0 -0.46807380259E+02 -0.21980011761E+02  0.10316499973E+03  0.14633198415E+03  0.89977667528E+02 0.  0.
          5    1    1    2  502    0 -0.22779773843E+02 -0.37249109138E+02  0.35221866743E+02  0.56253591217E+02  0.41800000000E+01 0. -1.
         -5    1    1    2    0  502  0.69587154102E+02  0.59229120899E+02  0.68813954328E+02  0.11446961819E+03  0.41800000000E+01 0. -1.
        -11    1    3    3    0    0  0.15794796229E+02 -0.22573972260E+02  0.23383913553E+01  0.27650097389E+02  0.00000000000E+00 0.  1.
         11    1    3    3    0    0 -0.62602176488E+02  0.59396049933E+00  0.10082660837E+03  0.11868188676E+03  0.00000000000E+00 0. -1.
</event>
<event>
 7    1  0.6145388E-006  0.1000444E+03  0.7561462E-02  0.1280203E+00
          1   -1    0    0  501    0  0.00000000000E+00  0.00000000000E+00  0.25099865224E+03  0.25099865224E+03  0.00000000000E+00 0. -1.
         -1   -1    0    0    0  501 -0.00000000000E+00 -0.00000000000E+00 -0.81632329333E+02  0.81632329333E+02  0.00000000000E+00 0.  1.
         23    2    1    2    0    0  0.14200854565E+02  0.71650714691E+02  0.14473637472E+03  0.18569802443E+03  0.90551912882E+02 0.  0.
          5    1    1    2  502    0  0.11010672541E+02 -0.51007042379E+02  0.72163496542E+02  0.89151533443E+02  0.41800000000E+01 0.  1.
         -5    1    1    2    0  502 -0.25211527106E+02 -0.20643672312E+02 -0.47533548351E+02  0.57781423696E+02  0.41800000000E+01 0.  1.
        -11    1    3    3    0    0  0.49334681580E+02  0.21888160131E+02  0.53501354665E+02  0.75996034840E+02  0.00000000000E+00 0. -1.
         11    1    3    3    0    0 -0.35133827014E+02  0.49762554561E+02  0.91235020051E+02  0.10970198959E+03  0.00000000000E+00 0.  1.
</event>
<event>
 7    1  0.6145388E-006  0.9484989E+02  0.7561462E-02  0.1291515E+00
          1   -1    0    0  501    0  0.00000000000E+00  0.00000000000E+00  0.11982841728E+03  0.11982841728E+03  0.00000000000E+00 0. -1.
         -1   -1    0    0    0  501 -0.00000000000E+00 -0.00000000000E+00 -0.16962360451E+03  0.16962360451E+03  0.00000000000E+00 0.  1.
         23    2    1    2    0    0 -0.70258988667E+02 -0.52206066186E+02 -0.26732790513E+01  0.12967281897E+03  0.95635216963E+02 0.  0.
          5    1    1    2  502    0  0.63498549441E+02  0.19954463586E+02 -0.85880482702E+02  0.10873442926E+03  0.41800000000E+01 0.  1.
         -5    1    1    2    0  502  0.67604392264E+01  0.32251602599E+02  0.38758574525E+02  0.51044773562E+02  0.41800000000E+01 0.  1.
        -11    1    3    3    0    0 -0.33949156157E+02 -0.12995116827E+02 -0.47574607243E+02  0.59872877996E+02  0.00000000000E+00 0.  1.
         11    1    3    3    0    0 -0.36309832510E+02 -0.39210949359E+02  0.44901328192E+02  0.69799940974E+02  0.00000000000E+00 0. -1.
</event>
<event>
 7    1  0.6145388E-006  0.9392564E+02  0.7561462E-02  0.1293614E+00
          4   -1    0    0  501    0  0.00000000000E+00  0.00000000000E+00  0.13305891416E+03  0.13305891416E+03  0.00000000000E+00 0. -1.
         -4   -1    0    0    0  501 -0.00000000000E+00 -0.00000000000E+00 -0.11782445656E+03  0.11782445656E+03  0.00000000000E+00 0.  1.
         23    2    1    2    0    0 -0.11939725273E+02  0.25249901577E+01  0.42578016737E+02  0.12225914071E+03  0.11395383874E+03 0.  0.
          5    1    1    2  502    0 -0.34354359058E+02 -0.47410352705E+02 -0.25455993250E+02  0.63980024400E+02  0.41800000000E+01 0.  1.
         -5    1    1    2    0  502  0.46294084330E+02  0.44885362547E+02 -0.18875658884E+01  0.64644205618E+02  0.41800000000E+01 0.  1.
        -11    1    3    3    0    0  0.18339653761E+02 -0.19746071730E+02 -0.30121621542E+02  0.40417351882E+02  0.00000000000E+00 0.  1.
         11    1    3    3    0    0 -0.30279379034E+02  0.22271061888E+02  0.72699638279E+02  0.81841788825E+02  0.00000000000E+00 0. -1.
</event>
<event>
 7    1  0.6145388E-006  0.1040861E+03  0.7561462E-02  0.1271931E+00
          2   -1    0    0  501    0  0.00000000000E+00  0.00000000000E+00  0.47800879147E+03  0.47800879147E+03  0.00000000000E+00 0. -1.
         -2   -1    0    0    0  501 -0.00000000000E+00 -0.00000000000E+00 -0.28250048949E+02  0.28250048949E+02  0.00000000000E+00 0.  1.
         23    2    1    2    0    0  0.13391201488E+02  0.16166098684E+02  0.27514722085E+03  0.29044034051E+03  0.90603152440E+02 0.  0.
          5    1    1    2  502    0 -0.60349009592E+02  0.21579282683E+02  0.69804387872E+02  0.94856699110E+02  0.41800000000E+01 0.  1.
         -5    1    1    2    0  502  0.46957808104E+02 -0.37745381367E+02  0.10480713380E+03  0.12096180080E+03  0.41800000000E+01 0.  1.
        -11    1    3    3    0    0 -0.21264542003E+02 -0.22953949331E+02  0.17184114785E+03  0.17466666720E+03  0.00000000000E+00 0. -1.
         11    1    3    3    0    0  0.34655743491E+02  0.39120048015E+02  0.10330607300E+03  0.11577367331E+03  0.00000000000E+00 0.  1.
</event>
<event>
 7    1  0.6145388E-006  0.2005909E+03  0.7561462E-02  0.1149241E+00
          1   -1    0    0  501    0  0.00000000000E+00  0.00000000000E+00  0.76019871444E+03  0.76019871444E+03  0.00000000000E+00 0. -1.
         -1   -1    0    0    0  501 -0.00000000000E+00 -0.00000000000E+00 -0.64198191496E+02  0.64198191496E+02  0.00000000000E+00 0.  1.
         23    2    1    2    0    0  0.18166306834E+03 -0.47417478435E+02  0.39999305785E+03  0.45221391247E+03  0.96192976068E+02 0.  0.
          5    1    1    2  502    0 -0.21678765924E+02  0.43819233646E+02  0.19741213270E+02  0.52889337590E+02  0.41800000000E+01 0. -1.
         -5    1    1    2    0  502 -0.15998430242E+03  0.35982447890E+01  0.27626625182E+03  0.31929365587E+03  0.41800000000E+01 0. -1.
        -11    1    3    3    0    0  0.10578728242E+03 -0.68822842608E+01  0.12407173645E+03  0.16319347641E+03  0.00000000000E+00 0.  1.
         11    1    3    3    0    0  0.75875785922E+02 -0.40535194174E+02  0.27592132141E+03  0.28902043606E+03  0.00000000000E+00 0. -1.
</event>
<event>
 7    1  0.6145388E-006  0.7895689E+02  0.7561462E-02  0.1332038E+00
          4   -1    0    0  501    0  0.00000000000E+00  0.00000000000E+00  0.60956155754E+02  0.60956155754E+02  0.00000000000E+00 0. -1.
         -4   -1    0    0    0  501 -0.00000000000E+00 -0.00000000000E+00 -0.24155427606E+03  0.24155427606E+03  0.00000000000E+00 0.  1.
         23    2    1    2    0    0 -0.49610722783E+02 -0.64864234712E+01 -0.52599345906E+02  0.11667175360E+03  0.91336243595E+02 0.  0.
          5    1    1    2  502    0  0.28950566367E+02  0.17026347502E+02  0.17735868114E+02  0.38210799782E+02  0.41800000000E+01 0.  1.
         -5    1    1    2    0  502  0.20660156416E+02 -0.10539924031E+02 -0.14573464251E+03  0.14762787843E+03  0.41800000000E+01 0.  1.
        -11    1    3    3    0    0 -0.32185849536E+02 -0.46675869080E+02 -0.44614072754E+02  0.72145555320E+02  0.00000000000E+00 0.  1.
         11    1    3    3    0    0 -0.17424873247E+02  0.40189445609E+02 -0.79852731529E+01  0.44526198281E+02  0.00000000000E+00 0. -1.
</event>
<event>
 7    1  0.6145388E-006  0.1728790E+03  0.7561462E-02  0.1174878E+00
          2   -1    0    0  501    0  0.00000000000E+00  0.00000000000E+00  0.61231559504E+03  0.61231559504E+03  0.00000000000E+00 0. -1.
         -2   -1    0    0    0  501 -0.00000000000E+00 -0.00000000000E+00 -0.66427455884E+02  0.66427455884E+02  0.00000000000E+00 0.  1.
         23    2    1    2    0    0 -0.39156046722E+01  0.10529761999E+03  0.35123049785E+03  0.37781362588E+03  0.90979956865E+02 0.  0.
          5    1    1    2  502    0 -0.89947186538E+02 -0.42039433873E+02  0.14835941485E+03  0.17856595068E+03  0.41800000000E+01 0. -1.
         -5    1    1    2    0  502  0.93862791210E+02 -0.63258186118E+02  0.46298226458E+02  0.12236347436E+03  0.41800000000E+01 0.  1.
        -11    1    3    3    0    0  0.28789667589E+02  0.71506180891E+01  0.39725069727E+02  0.49578800548E+02  0.00000000000E+00 0.  1.
         11    1    3    3    0    0 -0.32705272262E+02  0.98147001902E+02  0.31150542812E+03  0.32823482534E+03  0.00000000000E+00 0. -1.
</event>
<event>
 7    1  0.6145388E-006  0.1298890E+03  0.7561462E-02  0.1227620E+00
          2   -1    0    0  501    0  0.00000000000E+00  0.00000000000E+00  0.43237143177E+02  0.43237143177E+02  0.00000000000E+00 0.  1.
         -2   -1    0    0    0  501 -0.00000000000E+00 -0.00000000000E+00 -0.57494110271E+03  0.57494110271E+03  0.00000000000E+00 0. -1.
         23    2    1    2    0    0 -0.18320343958E+01 -0.10033864964E+03 -0.35139469577E+03  0.37686612016E+03  0.92079527319E+02 0.  0.
          5    1    1    2  502    0 -0.37230776914E+02  0.47134517887E+02 -0.16179169116E+03  0.17263202848E+03  0.41800000000E+01 0. -1.
         -5    1    1    2    0  502  0.39062811310E+02  0.53204131750E+02 -0.18517572598E+02  0.68680097245E+02  0.41800000000E+01 0. -1.
        -11    1    3    3    0    0 -0.40582850780E+02 -0.79911704268E+02 -0.26919068685E+03  0.28371900561E+03  0.00000000000E+00 0. -1.
         11    1    3    3    0    0  0.38750816384E+02 -0.20426945368E+02 -0.82204008918E+02  0.93147114554E+02  0.00000000000E+00 0.  1.
</event>
<event>
 7    1  0.6145388E-006  0.1425303E+03  0.7561462E-02  0.1209964E+00
         -2   -1    0    0    0  501 -0.00000000000E+00  0.00000000000E+00  0.26564498077E+03  0.26564498077E+03  0.00000000000E+00 0.  1.
          2   -1    0    0  501    0  0.00000000000E+00 -0.00000000000E+00 -0.88789001233E+02  0.88789001233E+02  0.00000000000E+00 0. -1.
         23    2    1    2    0    0 -0.91344813338E+02  0.56441325611E+02  0.51047375868E+02  0.14705818793E+03  0.86549280148E+02 0.  0.
          5    1    1    2  502    0  0.15382920493E+02  0.34490002164E+02  0.53688334325E+01  0.38373053887E+02  0.41800000000E+01 0.  1.
         -5    1    1    2    0  502  0.75961892845E+02 -0.90931327776E+02  0.12043977024E+03  0.16900274019E+03  0.41800000000E+01 0.  1.
        -11    1    3    3    0    0 -0.53293167399E+01 -0.15487829478E+02 -0.10198472459E+02  0.19294644836E+02  0.00000000000E+00 0.  1.
         11    1    3    3    0    0 -0.86015496598E+02  0.71929155090E+02  0.61245848327E+02  0.12776354309E+03  0.00000000000E+00 0. -1.
</event>
<event>
 7    1  0.6145388E-006  0.1146726E+03  0.7561462E-02  0.1252154E+00
         -3   -1    0    0    0  501 -0.00000000000E+00  0.00000000000E+00  0.81516645737E+02  0.81516645737E+02  0.00000000000E+00 0.  1.
          3   -1    0    0  501    0  0.00000000000E+00 -0.00000000000E+00 -0.25409976428E+03  0.25409976428E+03  0.00000000000E+00 0. -1.
         23    2    1    2    0    0 -0.14767696912E+01 -0.56000056306E+02 -0.16726832896E+03  0.19844863441E+03  0.90911932504E+02 0.  0.
          5    1    1    2  502    0  0.49029748893E+02  0.67677164906E+02 -0.19697279006E+02  0.85962608886E+02  0.41800000000E+01 0.  1.
         -5    1    1    2    0  502 -0.47552979202E+02 -0.11677108600E+02  0.14382489428E+02  0.51205166715E+02  0.41800000000E+01 0.  1.
        -11    1    3    3    0    0 -0.16876515859E+02 -0.72216573544E+02 -0.83194153490E+02  0.11145096436E+03  0.00000000000E+00 0.  1.
         11    1    3    3    0    0  0.15399746168E+02  0.16216517237E+02 -0.84074175471E+02  0.86997670052E+02  0.00000000000E+00 0. -1.
</event>
<event>
 7    1  0.6145388E-006  0.1273311E+03  0.7561462E-02  0.1231471E+00
         -1   -1    0    0    0  501 -0.00000000000E+00  0.00000000000E+00  0.26490100238E+02  0.26490100238E+02  0.00000000000E+00 0.  1.
          1   -1    0    0  501    0  0.00000000000E+00 -0.00000000000E+00 -0.82589590595E+03  0.82589590595E+03  0.00000000000E+00 0. -1.
         23    2    1    2    0    0 -0.87879049215E+02 -0.22748374304E+02 -0.49193736397E+03  0.50825778413E+03  0.89907670660E+02 0.  0.
          5    1    1    2  502    0  0.10120997706E+02 -0.47049101993E+02 -0.74836694708E+02  0.89073317373E+02  0.41800000000E+01 0.  1.
         -5    1    1    2    0  502  0.77758051509E+02  0.69797476297E+02 -0.23263174704E+03  0.25505490468E+03  0.41800000000E+01 0.  1.
        -11    1    3    3    0    0 -0.19243359103E+02  0.14123468923E+02 -0.23895482811E+02  0.33775336308E+02  0.00000000000E+00 0.  1.
         11    1    3    3    0    0 -0.68635690112E+02 -0.36871843227E+02 -0.46804188115E+03  0.47448244783E+03  0.00000000000E+00 0. -1.
</event>
<event>
 7    1  0.6145388E-006  0.1789209E+03  0.7561462E-02  0.1168852E+00
         -2   -1    0    0    0  501 -0.00000000000E+00  0.00000000000E+00  0.44364901820E+02  0.44364901820E+02  0.00000000000E+00 0.  1.
          2   -1    0    0  501    0  0.00000000000E+00 -0.00000000000E+00 -0.97757593913E+03  0.97757593913E+03  0.00000000000E+00 0. -1.
         23    2    1    2    0    0 -0.73551587795E+02 -0.13740299718E+03 -0.65333242822E+03  0.67803830322E+03  0.92753755536E+02 0.  0.
          5    1    1    2  502    0  0.83848133253E+02  0.33130227795E+02 -0.16702519691E+03  0.18984996773E+03  0.41800000000E+01 0.  1.
         -5    1    1    2    0  502 -0.10296545458E+02  0.10427276938E+03 -0.11285341218E+03  0.15405257000E+03  0.41800000000E+01 0.  1.
        -11    1    3    3    0    0  0.92121525862E+00 -0.40502742605E+02 -0.60988150630E+02  0.73217998561E+02  0.00000000000E+00 0.  1.
         11    1    3    3    0    0 -0.74472803053E+02 -0.96900254575E+02 -0.59234427759E+03  0.60482030466E+03  0.00000000000E+00 0. -1.
</event>
<event>
 7    1  0.6145388E-006  0.1827920E+03  0.7561462E-02  0.1165128E+00
         -1   -1    0    0    0  501 -0.00000000000E+00  0.00000000000E+00  0.79503763893E+03  0.79503763893E+03  0.00000000000E+00 0.  1.
          1   -1    0    0  501    0  0.00000000000E+00 -0.00000000000E+00 -0.52241692200E+02  0.52241692200E+02  0.00000000000E+00 0. -1.
         23    2    1    2    0    0  0.13443313036E+03 -0.10872731851E+03  0.33039752710E+03  0.38293213164E+03  0.87066613610E+02 0.  0.
          5    1    1    2  502    0 -0.69482235951E+02  0.17802785383E+02  0.56817949471E+02  0.91599519990E+02  0.41800000000E+01 0. -1.
         -5    1    1    2    0  502 -0.64950894408E+02  0.90924533127E+02  0.35558047016E+03  0.37274767949E+03  0.41800000000E+01 0. -1.
        -11    1    3    3    0    0  0.42440093656E+02 -0.70519077287E+02  0.21651975076E+03  0.23163528289E+03  0.00000000000E+00 0.  1.
         11    1    3    3    0    0  0.91993036703E+02 -0.38208241223E+02  0.11387777634E+03  0.15129684875E+03  0.00000000000E+00 0. -1.
</event>
<event>
 7    1  0.6145388E-006  0.9643672E+02  0.7561462E-02  0.1287973E+00
         -3   -1    0    0    0  501 -0.00000000000E+00  0.00000000000E+00  0.38762996026E+02  0.38762996026E+02  0.00000000000E+00 0.  1.
          3   -1    0    0  501    0  0.00000000000E+00 -0.00000000000E+00 -0.36182978398E+03  0.36182978398E+03  0.00000000000E+00 0. -1.
         23    2    1    2    0    0  0.30552482491E+02  0.80130214559E+01 -0.19993079960E+03  0.22224451979E+03  0.91774938019E+02 0.  0.
          5    1    1    2  502    0  0.27273439394E+02  0.19923548744E+02  0.55349368117E+01  0.34480374366E+02  0.41800000000E+01 0.  1.
         -5    1    1    2    0  502 -0.57825921884E+02 -0.27936570200E+02 -0.12867092517E+03  0.14386788586E+03  0.41800000000E+01 0.  1.
        -11    1    3    3    0    0 -0.28281348348E+02  0.19744363255E+02 -0.49866671487E+02  0.60632989947E+02  0.00000000000E+00 0.  1.
         11    1    3    3    0    0  0.58833830839E+02 -0.11731341799E+02 -0.15006412811E+03  0.16161152984E+03  0.00000000000E+00 0. -1.
</event>
<event>
 7    1  0.6145388E-006  0.7866435E+02  0.7561462E-02  0.1332885E+00
          2   -1    0    0  501    0  0.00000000000E+00  0.00000000000E+00  0.99196590530E+02  0.99196590530E+02  0.00000000000E+00 0. -1.
         -2   -1    0    0    0  501 -0.00000000000E+00 -0.00000000000E+00 -0.14589931364E+03  0.14589931364E+03  0.00000000000E+00 0.  1.
         23    2    1    2    0    0 -0.43696902494E+02 -0.23862147238E+02 -0.35163381939E+02  0.10995660593E+03  0.91515957072E+02 0.  0.
          5    1    1    2  502    0 -0.23527425483E+02  0.20069024578E+02  0.39649094225E+02  0.50456204477E+02  0.41800000000E+01 0.  1.
         -5    1    1    2    0  502  0.67224327977E+02  0.37931226608E+01 -0.51188435393E+02  0.84683093764E+02  0.41800000000E+01 0.  1.
        -11    1    3    3    0    0 -0.86720816449E+01  0.76380291989E+01 -0.56911070721E+02  0.58072493150E+02  0.00000000000E+00 0.  1.
         11    1    3    3    0    0 -0.35024820849E+02 -0.31500176437E+02  0.21747688782E+02  0.51884112775E+02  0.00000000000E+00 0. -1.
</event>
<event>
 7    1  0.6145388E-006  0.1069620E+03  0.7561462E-02  0.1266301E+00
          2   -1    0    0  501    0  0.00000000000E+00  0.00000000000E+00  0.98262484203E+02  0.98262484203E+02  0.00000000000E+00 0. -1.
         -2   -1    0    0    0  501 -0.00000000000E+00 -0.00000000000E+00 -0.16220570602E+03  0.16220570602E+03  0.00000000000E+00 0.  1.
         23    2    1    2    0    0  0.41968187907E+02  0.87625211737E+01  0.24251177086E+02  0.10152778455E+03  0.88778718580E+02 0.  0.
          5    1    1    2  502    0 -0.36223038035E+02 -0.65467665479E+02 -0.53653037010E+02  0.92164225642E+02  0.41800000000E+01 0.  1.
         -5    1    1    2    0  502 -0.57451498719E+01  0.56705144305E+02 -0.34541361892E+02  0.66776180028E+02  0.41800000000E+01 0.  1.
        -11    1    3    3    0    0 -0.15489173331E+02  0.17886434345E+02 -0.17913858317E+02  0.29677354057E+02  0.00000000000E+00 0. -1.
         11    1    3    3    0    0  0.57457361238E+02 -0.91239131711E+01  0.42165035402E+02  0.71850430496E+02  0.00000000000E+00 0.  1.
</event>
<event>
 7    1  0.6145388E-006  0.8560796E+02  0.7561462E-02  0.1313850E+00
         -1   -1    0    0    0  501 -0.00000000000E+00  0.00000000000E+00  0.14983402332E+03  0.14983402332E+03  0.00000000000E+00 0.  1.
          1   -1    0    0  501    0  0.00000000000E+00 -0.00000000000E+00 -0.86601756425E+02  0.86601756425E+02  0.00000000000E+00 0. -1.
         23    2    1    2    0    0 -0.21870665188E+02 -0.17492292764E+02  0.40373110003E+02  0.10622749582E+03  0.94180606049E+02 0.  0.
          5    1    1    2  502    0 -0.19915975553E+02 -0.12832460827E+02 -0.41271044611E+02  0.47771222052E+02  0.41800000000E+01 0. -1.
         -5    1    1    2    0  502  0.41786640741E+02  0.30324753590E+02  0.64130201508E+02  0.82437061873E+02  0.41800000000E+01 0. -1.
        -11    1    3    3    0    0 -0.61778948310E+01 -0.54662914442E+02  0.35771196552E+02  0.65618435692E+02  0.00000000000E+00 0.  1.
         11    1    3    3    0    0 -0.15692770357E+02  0.37170621678E+02  0.46019134513E+01  0.40609060133E+02  0.00000000000E+00 0. -1.
</event>
<event>
 7    1  0.6145388E-006  0.1026123E+03  0.7561462E-02  0.1274897E+00
          2   -1    0    0  501    0  0.00000000000E+00  0.00000000000E+00  0.23322299210E+02  0.23322299210E+02  0.00000000000E+00 0. -1.
         -2   -1    0    0    0  501 -0.00000000000E+00 -0.00000000000E+00 -0.80678633314E+03  0.80678633314E+03  0.00000000000E+00 0.  1.
         23    2    1    2    0    0 -0.82591441037E+02  0.94573327710E+01 -0.35905022662E+03  0.37990277160E+03  0.92186025854E+02 0.  0.
          5    1    1    2  502    0  0.72415977731E+02 -0.25368433839E+02 -0.10452493764E+03  0.12973267227E+03  0.41800000000E+01 0.  1.
         -5    1    1    2    0  502  0.10175463305E+02  0.15911101068E+02 -0.31988886967E+03  0.32047318847E+03  0.41800000000E+01 0.  1.
        -11    1    3    3    0    0 -0.59776014586E+02 -0.27346517996E+02 -0.11872758897E+03  0.13571014829E+03  0.00000000000E+00 0.  1.
         11    1    3    3    0    0 -0.22815426451E+02  0.36803850767E+02 -0.24032263764E+03  0.24419262331E+03  0.00000000000E+00 0. -1.
</event>
<event>
 7    1  0.6145388E-006  0.1066738E+03  0.7561462E-02  0.1266857E+00
          1   -1    0    0  501    0  0.00000000000E+00  0.00000000000E+00  0.35830498973E+03  0.35830498973E+03  0.00000000000E+00 0. -1.
         -1   -1    0    0    0  501 -0.00000000000E+00 -0.00000000000E+00 -0.54330305944E+02  0.54330305944E+02  0.00000000000E+00 0.  1.
         23    2    1    2    0    0 -0.55521381797E+02 -0.22543029065E+02  0.23170805024E+03  0.25623474632E+03  0.91524929280E+02 0.  0.
          5    1    1    2  502    0  0.59524900103E+02 -0.25226174300E+02  0.84763211852E+02  0.10668574453E+03  0.41800000000E+01 0.  1.
         -5    1    1    2    0  502 -0.40035183057E+01  0.47769203365E+02 -0.12496578310E+02  0.49714804821E+02  0.41800000000E+01 0.  1.
        -11    1    3    3    0    0 -0.27000174303E+02  0.30183862640E+02  0.46992069187E+02  0.62034905841E+02  0.00000000000E+00 0.  1.
         11    1    3    3    0    0 -0.28521207495E+02 -0.52726891705E+02  0.18471598105E+03  0.19419984048E+03  0.00000000000E+00 0. -1.
</event>
<event>
 7    1  0.6145388E-006  0.1050596E+03  0.7561462E-02  0.1270002E+00
          2   -1    0    0  501    0  0.00000000000E+00  0.00000000000E+00  0.91714290818E+02  0.91714290818E+02  0.00000000000E+00 0. -1.
         -2   -1    0    0    0  501 -0.00000000000E+00 -0.00000000000E+00 -0.14043947443E+03  0.14043947443E+03  0.00000000000E+00 0.  1.
         23    2    1    2    0    0  0.22208829005E+02 -0.12576692857E+02 -0.10491946315E+02  0.98887784038E+02  0.94959505083E+02 0.  0.
          5    1    1    2  502    0 -0.44528203718E+02  0.51187211416E+02 -0.52900808065E+02  0.86132801143E+02  0.41800000000E+01 0.  1.
         -5    1    1    2    0  502  0.22319374713E+02 -0.38610518559E+02  0.14667570767E+02  0.47133180067E+02  0.41800000000E+01 0.  1.
        -11    1    3    3    0    0  0.59025615047E+02 -0.13397874241E+02 -0.13244187563E+02  0.61959137906E+02  0.00000000000E+00 0.  1.
         11    1    3    3    0    0 -0.36816786042E+02  0.82118138441E+00  0.27522412473E+01  0.36928646133E+02  0.00000000000E+00 0. -1.
</event>
<event>
 7    1  0.6145388E-006  0.1110145E+03  0.7561462E-02  0.1258703E+00
          2   -1    0    0  501    0  0.00000000000E+00  0.00000000000E+00  0.21255296777E+03  0.21255296777E+03  0.00000000000E+00 0. -1.
         -2   -1    0    0    0  501 -0.00000000000E+00 -0.00000000000E+00 -0.58069164300E+02  0.58069164300E+02  0.00000000000E+00 0.  1.
         23    2    1    2    0    0 -0.42578811723E+01 -0.12242026583E+02  0.70536071445E+02  0.11939184094E+03  0.95451964575E+02 0.  0.
          5    1    1    2  502    0  0.52211033334E+02  0.43702706185E+02  0.43017101379E+02  0.80646524666E+02  0.41800000000E+01 0. -1.
         -5    1    1    2    0  502 -0.47953152162E+02 -0.31460679602E+02  0.40930630647E+02  0.70583766465E+02  0.41800000000E+01 0. -1.
        -11    1    3    3    0    0  0.45434417621E+02 -0.14467474703E+01  0.34481309143E+02  0.57055587483E+02  0.00000000000E+00 0.  1.
         11    1    3    3    0    0 -0.49692298793E+02 -0.10795279113E+02  0.36054762303E+02  0.62336253458E+02  0.00000000000E+00 0. -1.
</event>
<event>
 7    1  0.6145388E-006  0.1306517E+03  0.7561462E-02  0.1226492E+00
          4   -1    0    0  501    0  0.00000000000E+00  0.00000000000E+00  0.75440922739E+02  0.75440922739E+02  0.00000000000E+00 0. -1.
         -4   -1    0    0    0  501 -0.00000000000E+00 -0.00000000000E+00 -0.25292677121E+03  0.25292677121E+03  0.00000000000E+00 0.  1.
         23    2    1    2    0    0 -0.78516251569E+02  0.28898991173E+02 -0.80686601322E+02  0.14943447211E+03  0.93916880108E+02 0.  0.
          5    1    1    2  502    0 -0.27509956198E+02 -0.15058887157E+02 -0.56178446279E+02  0.64475251056E+02  0.41800000000E+01 0. -1.
         -5    1    1    2    0  502  0.10602620777E+03 -0.13840104016E+02 -0.40620800864E+02  0.11445797078E+03  0.41800000000E+01 0. -1.
        -11    1    3    3    0    0 -0.45372352154E+02 -0.30476057961E+02 -0.52620793461E+02  0.75870866301E+02  0.00000000000E+00 0.  1.
         11    1    3    3    0    0 -0.33143899416E+02  0.59375049134E+02 -0.28065807861E+02  0.73563605805E+02  0.00000000000E+00 0. -1.
</event>
<event>
 7    1  0.6145388E-006  0.1125094E+03  0.7561462E-02  0.1255992E+00
          1   -1    0    0  501    0  0.00000000000E+00  0.00000000000E+00  0.20310875974E+03  0.20310875974E+03  0.00000000000E+00 0. -1.
         -1   -1    0    0    0  501 -0.00000000000E+00 -0.00000000000E+00 -0.23575337478E+03  0.23575337478E+03  0.00000000000E+00 0.  1.
         23    2    1    2    0    0  0.62350228234E+02 -0.31752326067E+02  0.16020210611E+03  0.19763492765E+03  0.92190501967E+02 0.  0.
          5    1    1    2  502    0 -0.79853243814E+02  0.10240987229E+00 -0.51138378812E+02  0.94916580337E+02  0.41800000000E+01 0. -1.
         -5    1    1    2    0  502  0.17503015580E+02  0.31649916194E+02 -0.14170834234E+03  0.14631062654E+03  0.41800000000E+01 0.  1.
        -11    1    3    3    0    0 -0.97721532528E+01  0.18378228562E+02  0.87974362063E+01  0.22597547391E+02  0.00000000000E+00 0.  1.
         11    1    3    3    0    0  0.72122381487E+02 -0.50130554629E+02  0.15140466991E+03  0.17503738026E+03  0.00000000000E+00 0. -1.
</event>
<event>
 7    1  0.6145388E-006  0.8676864E+02  0.7561462E-02  0.1310871E+00
         -2   -1    0    0    0  501 -0.00000000000E+00  0.00000000000E+00  0.69686070588E+03  0.69686070588E+03  0.00000000000E+00 0.  1.
          2   -1    0    0  501    0  0.00000000000E+00 -0.00000000000E+00 -0.21525479712E+02  0.21525479712E+02  0.00000000000E+00 0. -1.
         23    2    1    2    0    0 -0.31932927926E+02  0.41969530534E+02  0.23692367070E+03  0.25943764329E+03  0.91618293169E+02 0.  0.
          5    1    1    2  502    0  0.13538382680E+01 -0.38857426619E+02  0.29810883835E+02  0.49172082287E+02  0.41800000000E+01 0. -1.
         -5    1    1    2    0  502  0.30579089658E+02 -0.31121039158E+01  0.40860067164E+03  0.40977646001E+03  0.41800000000E+01 0. -1.
        -11    1    3    3    0    0 -0.27441391822E+02 -0.24502525001E+02  0.11157328389E+03  0.11748191944E+03  0.00000000000E+00 0.  1.
         11    1    3    3    0    0 -0.44915361038E+01  0.66472055535E+02  0.12535038680E+03  0.14195572386E+03  0.00000000000E+00 0. -1.
</event>
<event>
 7    1  0.6145388E-006  0.1524363E+03  0.7561462E-02  0.1197511E+00
          2   -1    0    0  501    0  0.00000000000E+00  0.00000000000E+00  0.11635698591E+04  0.11635698591E+04  0.00000000000E+00 0. -1.
         -2   -1    0    0    0  501 -0.00000000000E+00 -0.00000000000E+00 -0.25594771454E+02  0.25594771454E+02  0.00000000000E+00 0.  1.
         23    2    1    2    0    0 -0.10694341478E+03  0.79003629783E+02  0.58613422250E+03  0.60791240424E+03  0.91245257192E+02 0.  0.
          5    1    1    2  502    0  0.83081877953E+02 -0.25615745012E+02  0.13715760390E+03  0.16244520782E+03  0.41800000000E+01 0.  1.
         -5    1    1    2    0  502  0.23861536830E+02 -0.53387884772E+02  0.41468326123E+03  0.41880701847E+03  0.41800000000E+01 0.  1.
        -11    1    3    3    0    0 -0.53246031389E+02  0.89831196307E+02  0.33613726920E+03  0.35198444203E+03  0.00000000000E+00 0.  1.
         11    1    3    3    0    0 -0.53697383393E+02 -0.10827566524E+02  0.24999695330E+03  0.25592796221E+03  0.00000000000E+00 0. -1.
</event>
<event>
 7    1  0.6145388E-006  0.1179401E+03  0.7561462E-02  0.1246534E+00
          2   -1    0    0  501    0  0.00000000000E+00  0.00000000000E+00  0.10554025528E+04  0.10554025528E+04  0.00000000000E+00 0. -1.
         -2   -1    0    0    0  501 -0.00000000000E+00 -0.00000000000E+00 -0.13827457461E+02  0.13827457461E+02  0.00000000000E+00 0.  1.
         23    2    1    2    0    0 -0.40690049330E+02  0.22515616910E+02  0.56302172450E+03  0.57241823521E+03  0.92230909253E+02 0.  0.
          5    1    1    2  502    0 -0.41859474073E+02  0.11494341957E+02  0.17686001996E+03  0.18215727964E+03  0.41800000000E+01 0. -1.
         -5    1    1    2    0  502  0.82549523404E+02 -0.34009958867E+02  0.30169335090E+03  0.31465449543E+03  0.41800000000E+01 0. -1.
        -11    1    3    3    0    0 -0.61157349352E+02 -0.12416579373E+02  0.36560578907E+03  0.37089349660E+03  0.00000000000E+00 0. -1.
         11    1    3    3    0    0  0.20467300022E+02  0.34932196284E+02  0.19741593543E+03  0.20152473861E+03  0.00000000000E+00 0.  1.
</event>
<event>
 7    1  0.6145388E-006  0.1093170E+03  0.7561462E-02  0.1261840E+00
          1   -1    0    0  501    0  0.00000000000E+00  0.00000000000E+00  0.53891442969E+03  0.53891442969E+03  0.00000000000E+00 0.  1.
         -1   -1    0    0    0  501 -0.00000000000E+00 -0.00000000000E+00 -0.25278316919E+02  0.25278316919E+02  0.00000000000E+00 0. -1.
         23    2    1    2    0    0  0.60701022218E+02  0.15045221699E+02  0.22525335448E+03  0.24369010993E+03  0.68810051421E+02 0.  0.
          5    1    1    2  502    0 -0.81664119390E+02 -0.48037599140E+02  0.24066565168E+03  0.25867753599E+03  0.41800000000E+01 0.  1.
         -5    1    1    2    0  502  0.20963097172E+02  0.32992377441E+02  0.47717106599E+02  0.61825100683E+02  0.41800000000E+01 0.  1.
        -11    1    3    3    0    0  0.59098424806E+02 -0.95262322539E+01  0.19850059173E+03  0.20733031094E+03  0.00000000000E+00 0.  1.
         11    1    3    3    0    0  0.16025974120E+01  0.24571453953E+02  0.26752762752E+02  0.36359798992E+02  0.00000000000E+00 0. -1.
</event>
<event>
 7    1  0.7261688E-006  0.3430433E+03  0.7561462E-02  0.1065507E+00
         -2   -1    0    0    0  501 -0.00000000000E+00  0.00000000000E+00  0.65580138838E+02  0.65580138838E+02  0.00000000000E+00 0. -1.
          2   -1    0    0  501    0  0.00000000000E+00 -0.00000000000E+00 -0.19114889569E+04  0.19114889569E+04  0.00000000000E+00 0.  1.
         23    2    1    2    0    0 -0.32892873303E+03  0.72297949359E+02 -0.91782618218E+03  0.98187745131E+03  0.90869817929E+02 0.  0.
          5    1    1    2  502    0  0.29105206623E+03 -0.34098365283E+02 -0.66629600094E+03  0.72790235405E+03  0.41800000000E+01 0.  1.
         -5    1    1    2    0  502  0.37876666799E+02 -0.38199584076E+02 -0.26178663490E+03  0.26728929033E+03  0.41800000000E+01 0.  1.
        -11    1    3    3    0    0 -0.22595042865E+03  0.68115202018E+02 -0.73555557533E+03  0.77248642794E+03  0.00000000000E+00 0.  1.
         11    1    3    3    0    0 -0.10297830438E+03  0.41827473408E+01 -0.18227060685E+03  0.20939102337E+03  0.00000000000E+00 0. -1.
</event>
<event>
 7    1  0.6145388E-006  0.1040968E+03  0.7561462E-02  0.1271910E+00
         -1   -1    0    0    0  501 -0.00000000000E+00  0.00000000000E+00  0.22985401062E+03  0.22985401062E+03  0.00000000000E+00 0.  1.
          1   -1    0    0  501    0  0.00000000000E+00 -0.00000000000E+00 -0.69467516332E+02  0.69467516332E+02  0.00000000000E+00 0. -1.
         23    2    1    2    0    0  0.49589924546E+02  0.41366428260E+02  0.68455079295E+02  0.13118914538E+03  0.91401050211E+02 0.  0.
          5    1    1    2  502    0 -0.74755365758E+02 -0.35081817652E+02  0.10899227306E+03  0.13680601824E+03  0.41800000000E+01 0.  1.
         -5    1    1    2    0  502  0.25165441211E+02 -0.62846106080E+01 -0.17060858068E+02  0.31326363336E+02  0.41800000000E+01 0.  1.
        -11    1    3    3    0    0  0.69868067054E+02  0.33532605215E+02  0.75640748604E+02  0.10829360672E+03  0.00000000000E+00 0.  1.
         11    1    3    3    0    0 -0.20278142508E+02  0.78338230452E+01 -0.71856693087E+01  0.22895538659E+02  0.00000000000E+00 0. -1.
</event>
<event>
 7    1  0.6145388E-006  0.1156733E+03  0.7561462E-02  0.1250410E+00
         -1   -1    0    0    0  501 -0.00000000000E+00  0.00000000000E+00  0.31347377764E+02  0.31347377764E+02  0.00000000000E+00 0.  1.
          1   -1    0    0  501    0  0.00000000000E+00 -0.00000000000E+00 -0.46585262962E+03  0.46585262962E+03  0.00000000000E+00 0. -1.
         23    2    1    2    0    0  0.51731300919E+02 -0.86508039453E+01 -0.21246509330E+03  0.23701016907E+03  0.91002420112E+02 0.  0.
          5    1    1    2  502    0  0.29238142539E+02 -0.32220196878E+02 -0.88514507336E+02  0.98718288452E+02  0.41800000000E+01 0.  1.
         -5    1    1    2    0  502 -0.80969443458E+02  0.40871000823E+02 -0.13352565122E+03  0.16147154987E+03  0.41800000000E+01 0.  1.
        -11    1    3    3    0    0  0.59076383223E+02  0.23710371018E+02 -0.90734214678E+02  0.11083726116E+03  0.00000000000E+00 0.  1.
         11    1    3    3    0    0 -0.73450823038E+01 -0.32361174964E+02 -0.12173087862E+03  0.12617290791E+03  0.00000000000E+00 0. -1.
</event>
<event>
 7    1  0.6145388E-006  0.1724626E+03  0.7561462E-02  0.1175304E+00
         -2   -1    0    0    0  501 -0.00000000000E+00  0.00000000000E+00  0.17050093365E+03  0.17050093365E+03  0.00000000000E+00 0.  1.
          2   -1    0    0  501    0  0.00000000000E+00 -0.00000000000E+00 -0.29844396468E+03  0.29844396468E+03  0.00000000000E+00 0. -1.
         23    2    1    2    0    0  0.47490414376E+02  0.16535900839E+03 -0.16568990026E+03  0.25291014581E+03  0.83135177226E+02 0.  0.
          5    1    1    2  502    0 -0.34009496084E+01 -0.17169382167E+02 -0.39312401102E+02  0.43235302967E+02  0.41800000000E+01 0. -1.
         -5    1    1    2    0  502 -0.44089464767E+02 -0.14818962622E+03  0.77059270331E+02  0.17279944956E+03  0.41800000000E+01 0. -1.
        -11    1    3    3    0    0  0.38039908877E+02  0.11829736073E+03 -0.62485460857E+02  0.13908893932E+03  0.00000000000E+00 0.  1.
         11    1    3    3    0    0  0.94505054988E+01  0.47061647662E+02 -0.10320443940E+03  0.11382120649E+03  0.00000000000E+00 0. -1.
</event>
<event>
 7    1  0.6145388E-006  0.1119412E+03  0.7561462E-02  0.1257017E+00
          2   -1    0    0  501    0  0.00000000000E+00  0.00000000000E+00  0.20907976438E+03  0.20907976438E+03  0.00000000000E+00 0. -1.
         -2   -1    0    0    0  501 -0.00000000000E+00 -0.00000000000E+00 -0.23394106719E+03  0.23394106719E+03  0.00000000000E+00 0.  1.
         23    2    1    2    0    0 -0.59559112055E+02  0.76190954225E+02  0.15470666691E+03  0.20376118076E+03  0.90731012696E+02 0.  0.
          5    1    1    2  502    0  0.62156292641E+02 -0.13098375440E+02 -0.16127564065E+03  0.17338476525E+03  0.41800000000E+01 0.  1.
         -5    1    1    2    0  502 -0.25971805862E+01 -0.63092578784E+02 -0.18292329068E+02  0.65874885558E+02  0.41800000000E+01 0.  1.
        -11    1    3    3    0    0 -0.14452034081E+02  0.23389123815E+02 -0.64833342159E+01  0.28247938411E+02  0.00000000000E+00 0.  1.
         11    1    3    3    0    0 -0.45107077974E+02  0.52801830409E+02  0.16119000112E+03  0.17551324235E+03  0.00000000000E+00 0. -1.
</event>
<event>
 7    1  0.6145388E-006  0.1143612E+03  0.7561462E-02  0.1252700E+00
         -2   -1    0    0    0  501 -0.00000000000E+00  0.00000000000E+00  0.46086679132E+02  0.46086679132E+02  0.00000000000E+00 0.  1.
          2   -1    0    0  501    0  0.00000000000E+00 -0.00000000000E+00 -0.35469767675E+03  0.35469767675E+03  0.00000000000E+00 0. -1.
         23    2    1    2    0    0  0.66510662403E+02  0.15244361276E+02 -0.17162098985E+03  0.20312238964E+03  0.84551062981E+02 0.  0.
          5    1    1    2  502    0 -0.94925711202E+02 -0.38221677845E+01 -0.54576303388E+02  0.10964280599E+03  0.41800000000E+01 0.  1.
         -5    1    1    2    0  502  0.28415048799E+02 -0.11422193492E+02 -0.82413704377E+02  0.88019160252E+02  0.41800000000E+01 0.  1.
        -11    1    3    3    0    0  0.42107850893E+01  0.36614489736E+02 -0.96048243003E+02  0.10287670559E+03  0.00000000000E+00 0. -1.
         11    1    3    3    0    0  0.62299877314E+02 -0.21370128460E+02 -0.75572746850E+02  0.10024568405E+03  0.00000000000E+00 0.  1.
</event>
<event>
 7    1  0.6145388E-006  0.1611445E+03  0.7561462E-02  0.1187411E+00
         -2   -1    0    0    0  501 -0.00000000000E+00  0.00000000000E+00  0.47759331322E+03  0.47759331322E+03  0.00000000000E+00 0.  1.
          2   -1    0    0  501    0  0.00000000000E+00 -0.00000000000E+00 -0.17174408685E+03  0.17174408685E+03  0.00000000000E+00 0. -1.
         23    2    1    2    0    0  0.14848494534E+03  0.14024080418E+02 -0.98923006321E+02  0.20019455006E+03  0.89708655496E+02 0.  0.
          5    1    1    2  502    0 -0.10005959963E+03 -0.21173140799E+02  0.10981976742E+03  0.15012687663E+03  0.41800000000E+01 0.  1.
         -5    1    1    2    0  502 -0.48425345711E+02  0.71490603802E+01  0.29495246526E+03  0.29901597338E+03  0.41800000000E+01 0.  1.
        -11    1    3    3    0    0  0.12628422371E+03 -0.22290906666E+02 -0.56604523064E+02  0.14017368408E+03  0.00000000000E+00 0.  1.
         11    1    3    3    0    0  0.22200721631E+02  0.36314987085E+02 -0.42318483256E+02  0.60020865980E+02  0.00000000000E+00 0. -1.
</event>
<event>
 7    1  0.6145388E-006  0.1124242E+03  0.7561462E-02  0.1256145E+00
          1   -1    0    0  501    0  0.00000000000E+00  0.00000000000E+00  0.10946866887E+03  0.10946866887E+03  0.00000000000E+00 0. -1.
         -1   -1    0    0    0  501 -0.00000000000E+00 -0.00000000000E+00 -0.16039805504E+03  0.16039805504E+03  0.00000000000E+00 0.  1.
         23    2    1    2    0    0  0.12483779524E+02 -0.72850831460E+02 -0.41602868425E+02  0.12427306770E+03  0.90829005823E+02 0.  0.
          5    1    1    2  502    0 -0.29258377121E+02  0.10364060572E+03  0.40125749783E+01  0.10784711838E+03  0.41800000000E+01 0.  1.
         -5    1    1    2    0  502  0.16774597597E+02 -0.30789774258E+02 -0.13339092719E+02  0.37746537828E+02  0.41800000000E+01 0.  1.
        -11    1    3    3    0    0  0.19134849560E+02 -0.17233780278E+02 -0.60018788788E+02  0.65310034894E+02  0.00000000000E+00 0.  1.
         11    1    3    3    0    0 -0.66510700359E+01 -0.55617051182E+02  0.18415920363E+02  0.58963032805E+02  0.00000000000E+00 0. -1.
</event>
<event>
 7    1  0.6145388E-006  0.8244824E+02  0.7561462E-02  0.1322244E+00
         -4   -1    0    0    0  501 -0.00000000000E+00  0.00000000000E+00  0.46245383182E+03  0.46245383182E+03  0.00000000000E+00 0.  1.
          4   -1    0    0  501    0  0.00000000000E+00 -0.00000000000E+00 -0.26046116393E+02  0.26046116393E+02  0.00000000000E+00 0. -1.
         23    2    1    2    0    0  0.18282589321E+01 -0.79516928199E+01  0.16964888321E+03  0.19375354448E+03  0.93236905103E+02 0.  0.
          5    1    1    2  502    0 -0.13358413067E+02 -0.33552621751E+02  0.24234508644E+03  0.24505680759E+03  0.41800000000E+01 0. -1.
         -5    1    1    2    0  502  0.11530154135E+02  0.41504314571E+02  0.24413745782E+02  0.49689596149E+02  0.41800000000E+01 0. -1.
        -11    1    3    3    0    0 -0.13431718855E+02  0.36166470927E+02  0.38330656145E+02  0.54384408531E+02  0.00000000000E+00 0.  1.
         11    1    3    3    0    0  0.15259977787E+02 -0.44118163747E+02  0.13131822707E+03  0.13936913595E+03  0.00000000000E+00 0. -1.
</event>
<event>
 7    1  0.6145388E-006  0.1271307E+03  0.7561462E-02  0.1231777E+00
          1   -1    0    0  501    0  0.00000000000E+00  0.00000000000E+00  0.66342187384E+03  0.66342187384E+03  0.00000000000E+00 0. -1.
         -1   -1    0    0    0  501 -0.00000000000E+00 -0.00000000000E+00 -0.27320913875E+02  0.27320913875E+02  0.00000000000E+00 0.  1.
         23    2    1    2    0    0  0.18805542124E+02  0.74067563797E+02  0.34116288963E+03  0.36138344236E+03  0.91467058157E+02 0.  0.
          5    1    1    2  502    0  0.34392701337E+02  0.10827024181E+02  0.33669098823E+02  0.49509221095E+02  0.41800000000E+01 0.  1.
         -5    1    1    2    0  502 -0.53198243461E+02 -0.84894587978E+02  0.26126897151E+03  0.27985012426E+03  0.41800000000E+01 0.  1.
        -11    1    3    3    0    0  0.26962904389E+02 -0.13215209614E+02  0.64133951099E+02  0.70815278448E+02  0.00000000000E+00 0.  1.
         11    1    3    3    0    0 -0.81573622647E+01  0.87282773411E+02  0.27702893853E+03  0.29056816391E+03  0.00000000000E+00 0. -1.
</event>
<event>
 7    1  0.6145388E-006  0.1166701E+03  0.7561462E-02  0.1248694E+00
         -2   -1    0    0    0  501 -0.00000000000E+00  0.00000000000E+00  0.13919825487E+03  0.13919825487E+03  0.00000000000E+00 0.  1.
          2   -1    0    0  501    0  0.00000000000E+00 -0.00000000000E+00 -0.16607452565E+03  0.16607452565E+03  0.00000000000E+00 0. -1.
         23    2    1    2    0    0  0.92584701432E+02  0.52947623345E+02 -0.13219518100E+02  0.14032967146E+03  0.90234601321E+02 0.  0.
          5    1    1    2  502    0 -0.47967433944E+02 -0.46330782981E+02 -0.67228517082E+02  0.94786929900E+02  0.41800000000E+01 0. -1.
         -5    1    1    2    0  502 -0.44617267488E+02 -0.66168403637E+01  0.53571764398E+02  0.70156179166E+02  0.41800000000E+01 0. -1.
        -11    1    3    3    0    0  0.76231176482E+02  0.12052275837E+02  0.25913490087E+02  0.81412275420E+02  0.00000000000E+00 0.  1.
         11    1    3    3    0    0  0.16353524950E+02  0.40895347507E+02 -0.39133008187E+02  0.58917396037E+02  0.00000000000E+00 0. -1.
</event>
<event>
 7    1  0.6145388E-006  0.8713841E+02  0.7561462E-02  0.1309933E+00
          3   -1    0    0  501    0  0.00000000000E+00  0.00000000000E+00  0.37220595901E+02  0.37220595901E+02  0.00000000000E+00 0. -1.
         -3   -1    0    0    0  501 -0.00000000000E+00 -0.00000000000E+00 -0.33486687895E+03  0.33486687895E+03  0.00000000000E+00 0.  1.
         23    2    1    2    0    0 -0.21629880176E+02  0.17709690030E+02 -0.11642230726E+03  0.15011567134E+03  0.90548751047E+02 0.  0.
          5    1    1    2  502    0  0.11316227588E+02 -0.61331144527E+02 -0.16082952064E+03  0.17254904638E+03  0.41800000000E+01 0.  1.
         -5    1    1    2    0  502  0.10313652588E+02  0.43621454496E+02 -0.20394455148E+02  0.49422757135E+02  0.41800000000E+01 0.  1.
        -11    1    3    3    0    0 -0.19726399815E+02  0.39884199388E+02 -0.16044570333E+02  0.47300195006E+02  0.00000000000E+00 0. -1.
         11    1    3    3    0    0 -0.19034803612E+01 -0.22174509358E+02 -0.10037773692E+03  0.10281547633E+03  0.00000000000E+00 0.  1.
</event>
<event>
 7    1  0.6145388E-006  0.7932823E+02  0.7561462E-02  0.1330969E+00
          1   -1    0    0  501    0  0.00000000000E+00  0.00000000000E+00  0.17970713909E+02  0.17970713909E+02  0.00000000000E+00 0. -1.
         -1   -1    0    0    0  501 -0.00000000000E+00 -0.00000000000E+00 -0.72966612158E+03  0.72966612158E+03  0.00000000000E+00 0.  1.
         23    2    1    2    0    0  0.12904814929E+02  0.30614221762E+02 -0.19538481018E+03  0.21535109127E+03  0.84244309225E+02 0.  0.
          5    1    1    2  502    0 -0.33648885140E+02 -0.40178817855E+02 -0.82332197235E+02  0.97686477963E+02  0.41800000000E+01 0.  1.
         -5    1    1    2    0  502  0.20744070211E+02  0.95645960929E+01 -0.43397840025E+03  0.43459926626E+03  0.41800000000E+01 0.  1.
        -11    1    3    3    0    0  0.41006929568E+02 -0.39843734484E+00 -0.14030455475E+03  0.14617487852E+03  0.00000000000E+00 0. -1.
         11    1    3    3    0    0 -0.28102114640E+02  0.31012659106E+02 -0.55080255429E+02  0.69176212748E+02  0.00000000000E+00 0.  1.
</event>
<event>
 7    1  0.6145388E-006  0.1141783E+03  0.7561462E-02  0.1253022E+00
         -3   -1    0    0    0  501 -0.00000000000E+00  0.00000000000E+00  0.13186632756E+03  0.13186632756E+03  0.00000000000E+00 0.  1.
          3   -1    0    0  501    0  0.00000000000E+00 -0.00000000000E+00 -0.13752772225E+03  0.13752772225E+03  0.00000000000E+00 0. -1.
         23    2    1    2    0    0 -0.81469161151E+02 -0.95022267627E+01  0.58592362556E+01  0.11937309759E+03  0.86533746292E+02 0.  0.
          5    1    1    2  502    0 -0.18032425628E+02  0.28362735757E+02 -0.32020676259E+02  0.46609111360E+02  0.41800000000E+01 0. -1.
         -5    1    1    2    0  502  0.99501586779E+02 -0.18860508994E+02  0.20500045316E+02  0.10341184085E+03  0.41800000000E+01 0. -1.
        -11    1    3    3    0    0 -0.49672629391E+02  0.16195041174E+02 -0.33952207337E+02  0.62308922734E+02  0.00000000000E+00 0. -1.
         11    1    3    3    0    0 -0.31796531759E+02 -0.25697267936E+02  0.39811443593E+02  0.57064174858E+02  0.00000000000E+00 0.  1.
</event>
<event>
 7    1  0.6145388E-006  0.1318060E+03  0.7561462E-02  0.1224800E+00
         -1   -1    0    0    0  501 -0.00000000000E+00  0.00000000000E+00  0.73151587567E+02  0.73151587567E+02  0.00000000000E+00 0.  1.
          1   -1    0    0  501    0  0.00000000000E+00 -0.00000000000E+00 -0.36629259827E+03  0.36629259827E+03  0.00000000000E+00 0. -1.
         23    2    1    2    0    0  0.84105762763E+02  0.48008435585E+02 -0.23968424945E+03  0.27259774052E+03  0.86500864059E+02 0.  0.
          5    1    1    2  502    0 -0.48007911476E+02 -0.79730420407E+02  0.22093472517E+01  0.93188267061E+02  0.41800000000E+01 0. -1.
         -5    1    1    2    0  502 -0.36097851287E+02  0.31721984821E+02 -0.55666108505E+02  0.73658178260E+02  0.41800000000E+01 0. -1.
        -11    1    3    3    0    0  0.27919144163E+02 -0.19743219208E+02 -0.31177345534E+02  0.46274184920E+02  0.00000000000E+00 0.  1.
         11    1    3    3    0    0  0.56186618600E+02  0.67751654794E+02 -0.20850690392E+03  0.22632355560E+03  0.00000000000E+00 0. -1.
</event>
<event>
 7    1  0.6145388E-006  0.1017201E+03  0.7561462E-02  0.1276720E+00
          2   -1    0    0  501    0  0.00000000000E+00  0.00000000000E+00  0.12801173980E+03  0.12801173980E+03  0.00000000000E+00 0. -1.
         -2   -1    0    0    0  501 -0.00000000000E+00 -0.00000000000E+00 -0.21110915287E+03  0.21110915287E+03  0.00000000000E+00 0.  1.
         23    2    1    2    0    0 -0.17450485406E+00 -0.19616155910E+01  0.85684226702E+02  0.12671880816E+03  0.93338048228E+02 0.  0.
          5    1    1    2  502    0 -0.54918989982E+02 -0.15057201325E+02 -0.35792189816E+02  0.67389672979E+02  0.41800000000E+01 0. -1.
         -5    1    1    2    0  502  0.55093494836E+02  0.17018816916E+02 -0.13298944995E+03  0.14501241154E+03  0.41800000000E+01 0.  1.
        -11    1    3    3    0    0 -0.22600845195E+02 -0.39089223870E+02  0.63729555628E+02  0.78103917231E+02  0.00000000000E+00 0.  1.
         11    1    3    3    0    0  0.22426340341E+02  0.37127608279E+02  0.21954671075E+02  0.48614890925E+02  0.00000000000E+00 0. -1.
</event>
<event>
 7    1  0.6145388E-006  0.2206226E+03  0.7561462E-02  0.1133420E+00
         -2   -1    0    0    0  501 -0.00000000000E+00  0.00000000000E+00  0.56674158561E+02  0.56674158561E+02  0.00000000000E+00 0.  1.
          2   -1    0    0  501    0  0.00000000000E+00 -0.00000000000E+00 -0.11977285162E+04  0.11977285162E+04  0.00000000000E+00 0. -1.
         23    2    1    2    0    0  0.12919846696E+03  0.16777505971E+03 -0.80917195891E+03  0.84132809557E+03  0.90735829605E+02 0.  0.
          5    1    1    2  502    0 -0.11863090888E+03 -0.15254339053E+03 -0.19387859207E+03  0.27376844120E+03  0.41800000000E+01 0.  1.
         -5    1    1    2    0  502 -0.10567558076E+02 -0.15231669183E+02 -0.13800380662E+03  0.13930613795E+03  0.41800000000E+01 0.  1.
        -11    1    3    3    0    0  0.99622455522E+02  0.58027015239E+02 -0.36072702091E+03  0.37870272214E+03  0.00000000000E+00 0.  1.
         11    1    3    3    0    0  0.29576011436E+02  0.10974804447E+03 -0.44844493800E+03  0.46262537342E+03  0.00000000000E+00 0. -1.
</event>
<event>
 7    1  0.6145388E-006  0.1338900E+03  0.7561462E-02  0.1221795E+00
         -2   -1    0    0    0  501 -0.00000000000E+00  0.00000000000E+00  0.86131416706E+03  0.86131416706E+03  0.00000000000E+00 0.  1.
          2   -1    0    0  501    0  0.00000000000E+00 -0.00000000000E+00 -0.49287610546E+02  0.49287610546E+02  0.00000000000E+00 0. -1.
         23    2    1    2    0    0 -0.41635631521E+02  0.91936360457E+02  0.75962836876E+02  0.15719585650E+03  0.93564761140E+02 0.  0.
          5    1    1    2  502    0 -0.25223245083E+02  0.17593405488E+02  0.10895778860E+03  0.11329171243E+03  0.41800000000E+01 0.  1.
         -5    1    1    2    0  502  0.66858876604E+02 -0.10952976594E+03  0.62710593103E+03  0.64011420867E+03  0.41800000000E+01 0.  1.
        -11    1    3    3    0    0 -0.27924888185E+02  0.18153102355E+02  0.75089096203E+02  0.82144426919E+02  0.00000000000E+00 0.  1.
         11    1    3    3    0    0 -0.13710743336E+02  0.73783258102E+02  0.87374067320E+00  0.75051429578E+02  0.00000000000E+00 0. -1.
</event>
<event>
 7    1  0.6145388E-006  0.1246009E+03  0.7561462E-02  0.1235694E+00
         -4   -1    0    0    0  501 -0.00000000000E+00  0.00000000000E+00  0.51476562734E+02  0.51476562734E+02  0.00000000000E+00 0.  1.
          4   -1    0    0  501    0  0.00000000000E+00 -0.00000000000E+00 -0.40816957378E+03  0.40816957378E+03  0.00000000000E+00 0. -1.
         23    2    1    2    0    0  0.87857712754E+02 -0.78785731898E+01 -0.21675353192E+03  0.25225378865E+03  0.94174469369E+02 0.  0.
          5    1    1    2  502    0 -0.10783082062E+03  0.30060339851E+02 -0.13720781056E+03  0.17712866958E+03  0.41800000000E+01 0.  1.
         -5    1    1    2    0  502  0.19973107871E+02 -0.22181766661E+02 -0.27316685641E+01  0.30263678286E+02  0.41800000000E+01 0.  1.
        -11    1    3    3    0    0  0.19679697097E+02  0.24615855448E+02 -0.11503844558E+02  0.33549504569E+02  0.00000000000E+00 0.  1.
         11    1    3    3    0    0  0.68178015657E+02 -0.32494428638E+02 -0.20524968736E+03  0.21870428408E+03  0.00000000000E+00 0. -1.
</event>
<event>
 7    1  0.6145388E-006  0.1130509E+03  0.7561462E-02  0.1255022E+00
         -1   -1    0    0    0  501 -0.00000000000E+00  0.00000000000E+00  0.70494646013E+03  0.70494646013E+03  0.00000000000E+00 0.  1.
          1   -1    0    0  501    0  0.00000000000E+00 -0.00000000000E+00 -0.26171440705E+02  0.26171440705E+02  0.00000000000E+00 0. -1.
         23    2    1    2    0    0  0.49793530511E+02  0.22850531759E+02  0.14433786552E+03  0.17950896535E+03  0.91588791540E+02 0.  0.
          5    1    1    2  502    0 -0.81333441739E+02 -0.49231425127E+02  0.36453386566E+03  0.37675094370E+03  0.41800000000E+01 0. -1.
         -5    1    1    2    0  502  0.31539911228E+02  0.26380893368E+02  0.16990328824E+03  0.17485799179E+03  0.41800000000E+01 0. -1.
        -11    1    3    3    0    0  0.22049490118E+02  0.47580318833E+02  0.12909320333E+03  0.13933815665E+03  0.00000000000E+00 0.  1.
         11    1    3    3    0    0  0.27744040393E+02 -0.24729787074E+02  0.15244662198E+02  0.40170808699E+02  0.00000000000E+00 0. -1.
</event>
<event>
 7    1  0.6145388E-006  0.8997243E+02  0.7561462E-02  0.1302918E+00
          2   -1    0    0  501    0  0.00000000000E+00  0.00000000000E+00  0.11946868563E+04  0.11946868563E+04  0.00000000000E+00 0. -1.
         -2   -1    0    0    0  501 -0.00000000000E+00 -0.00000000000E+00 -0.13791970083E+02  0.13791970083E+02  0.00000000000E+00 0.  1.
         23    2    1    2    0    0  0.34269799851E+02 -0.59825555584E+02  0.56255363236E+03  0.57385581212E+03  0.89946581585E+02 0.  0.
          5    1    1    2  502    0 -0.26411753874E+01  0.16634230053E+02  0.38312712601E+01  0.17771450598E+02  0.41800000000E+01 0.  1.
         -5    1    1    2    0  502 -0.31628624464E+02  0.43191325531E+02  0.61450998259E+03  0.61685156366E+03  0.41800000000E+01 0.  1.
        -11    1    3    3    0    0  0.10211689664E+02 -0.78048710924E+02  0.46885198716E+03  0.47541357338E+03  0.00000000000E+00 0.  1.
         11    1    3    3    0    0  0.24058110187E+02  0.18223155340E+02  0.93701645200E+02  0.98442238747E+02  0.00000000000E+00 0. -1.
</event>
<event>
 7    1  0.6145388E-006  0.1117694E+03  0.7561462E-02  0.1257328E+00
         -2   -1    0    0    0  501 -0.00000000000E+00  0.00000000000E+00  0.23646186590E+03  0.23646186590E+03  0.00000000000E+00 0.  1.
          2   -1    0    0  501    0  0.00000000000E+00 -0.00000000000E+00 -0.64551361968E+02  0.64551361968E+02  0.00000000000E+00 0. -1.
         23    2    1    2    0    0 -0.53075818759E+02 -0.10854863386E+02  0.73011234633E+02  0.13259526345E+03  0.96519391374E+02 0.  0.
          5    1    1    2  502    0  0.26581756545E+02 -0.54207768119E+02  0.69481531576E+02  0.92142430702E+02  0.41800000000E+01 0.  1.
         -5    1    1    2    0  502  0.26494062214E+02  0.65062631505E+02  0.29417737728E+02  0.76275533718E+02  0.41800000000E+01 0.  1.
        -11    1    3    3    0    0 -0.53511671828E+02  0.23388201125E+02  0.78574748069E+02  0.97900449477E+02  0.00000000000E+00 0.  1.
         11    1    3    3    0    0  0.43585306896E+00 -0.34243064511E+02 -0.55635134364E+01  0.34694813975E+02  0.00000000000E+00 0. -1.
</event>
<event>
 7    1  0.6145388E-006  0.1227875E+03  0.7561462E-02  0.1238568E+00
         -1   -1    0    0    0  501 -0.00000000000E+00  0.00000000000E+00  0.16360915538E+03  0.16360915538E+03  0.00000000000E+00 0.  1.
          1   -1    0    0  501    0  0.00000000000E+00 -0.00000000000E+00 -0.48758568451E+03  0.48758568451E+03  0.00000000000E+00 0. -1.
         23    2    1    2    0    0 -0.60837360199E+01 -0.54994810449E+02 -0.44324153685E+03  0.45581439593E+03  0.90786907232E+02 0.  0.
          5    1    1    2  502    0 -0.31394912289E+01 -0.41932295346E+02  0.79682699784E+02  0.90194117563E+02  0.41800000000E+01 0. -1.
         -5    1    1    2    0  502  0.92232272487E+01  0.96927105795E+02  0.39582307936E+02  0.10518632639E+03  0.41800000000E+01 0.  1.
        -11    1    3    3    0    0 -0.26750678570E+02  0.16507674166E+02 -0.15165401607E+03  0.15487750870E+03  0.00000000000E+00 0.  1.
         11    1    3    3    0    0  0.20666942550E+02 -0.71502484615E+02 -0.29158752078E+03  0.30093688723E+03  0.00000000000E+00 0. -1.
</event>
<event>
 7    1  0.6145388E-006  0.1807889E+03  0.7561462E-02  0.1167042E+00
          2   -1    0    0  501    0  0.00000000000E+00  0.00000000000E+00  0.11386108136E+04  0.11386108136E+04  0.00000000000E+00 0. -1.
         -2   -1    0    0    0  501 -0.00000000000E+00 -0.00000000000E+00 -0.32737374381E+02  0.32737374381E+02  0.00000000000E+00 0.  1.
         23    2    1    2    0    0  0.13775510431E+03  0.61789781255E+02  0.67752445495E+03  0.70025885214E+03  0.92350566419E+02 0.  0.
          5    1    1    2  502    0 -0.10522118883E+03 -0.93028077958E+02  0.24700306300E+03  0.28417196800E+03  0.41800000000E+01 0. -1.
         -5    1    1    2    0  502 -0.32533915484E+02  0.31238296703E+02  0.18134592126E+03  0.18691736782E+03  0.41800000000E+01 0. -1.
        -11    1    3    3    0    0  0.14640412476E+03  0.39169249209E+02  0.60923831962E+03  0.62780548574E+03  0.00000000000E+00 0. -1.
         11    1    3    3    0    0 -0.86490204528E+01  0.22620532046E+02  0.68286135330E+02  0.72453366403E+02  0.00000000000E+00 0.  1.
</event>
<event>
 7    1  0.6145388E-006  0.9558680E+02  0.7561462E-02  0.1289860E+00
          1   -1    0    0  501    0  0.00000000000E+00  0.00000000000E+00  0.88922588678E+03  0.88922588678E+03  0.00000000000E+00 0. -1.
         -1   -1    0    0    0  501 -0.00000000000E+00 -0.00000000000E+00 -0.16690369527E+02  0.16690369527E+02  0.00000000000E+00 0.  1.
         23    2    1    2    0    0  0.20074525318E+02  0.46563944783E+02  0.45387963831E+03  0.46603802823E+03  0.92809106021E+02 0.  0.
          5    1    1    2  502    0  0.67291509393E+01  0.16605961108E+02  0.30805862425E+01  0.18654807109E+02  0.41800000000E+01 0.  1.
         -5    1    1    2    0  502 -0.26803676257E+02 -0.63169905892E+02  0.41557529270E+03  0.42122342097E+03  0.41800000000E+01 0.  1.
        -11    1    3    3    0    0  0.19311564587E+02 -0.25483976350E+02  0.10348850821E+03  0.10831546939E+03  0.00000000000E+00 0.  1.
         11    1    3    3    0    0  0.76296073045E+00  0.72047921133E+02  0.35039113010E+03  0.35772255884E+03  0.00000000000E+00 0. -1.
</event>
<event>
 7    1  0.6145388E-006  0.1252354E+03  0.7561462E-02  0.1234702E+00
          1   -1    0    0  501    0  0.00000000000E+00  0.00000000000E+00  0.57564938528E+02  0.57564938528E+02  0.00000000000E+00 0. -1.
         -1   -1    0    0    0  501 -0.00000000000E+00 -0.00000000000E+00 -0.28259542739E+03  0.28259542739E+03  0.00000000000E+00 0.  1.
         23    2    1    2    0    0  0.85020621944E+01 -0.63098365841E+02 -0.12411914190E+03  0.16727096346E+03  0.92305606541E+02 0.  0.
          5    1    1    2  502    0 -0.47908296586E+02 -0.16549056796E+02 -0.44272777510E+02  0.67428683741E+02  0.41800000000E+01 0.  1.
         -5    1    1    2    0  502  0.39406234392E+02  0.79647422638E+02 -0.56638569455E+02  0.10546071871E+03  0.41800000000E+01 0.  1.
        -11    1    3    3    0    0 -0.27679577061E+02 -0.68674617721E+02 -0.95278935034E+02  0.12066663817E+03  0.00000000000E+00 0.  1.
         11    1    3    3    0    0  0.36181639256E+02  0.55762518795E+01 -0.28840206863E+02  0.46604325294E+02  0.00000000000E+00 0. -1.
</event>
<event>
 7    1  0.6145388E-006  0.9398661E+02  0.7561462E-02  0.1293475E+00
          3   -1    0    0  501    0  0.00000000000E+00  0.00000000000E+00  0.36376893111E+03  0.36376893111E+03  0.00000000000E+00 0. -1.
         -3   -1    0    0    0  501 -0.00000000000E+00 -0.00000000000E+00 -0.34177777641E+02  0.34177777641E+02  0.00000000000E+00 0.  1.
         23    2    1    2    0    0 -0.19362787482E+02 -0.27062874295E+02  0.15968680274E+03  0.18435291775E+03  0.85899980266E+02 0.  0.
          5    1    1    2  502    0 -0.29973787825E+02  0.51972825374E+02  0.39647012585E+02  0.72034439963E+02  0.41800000000E+01 0.  1.
         -5    1    1    2    0  502  0.49336575307E+02 -0.24909951079E+02  0.13025733814E+03  0.14155935104E+03  0.41800000000E+01 0.  1.
        -11    1    3    3    0    0 -0.18499222701E+01 -0.46330533493E+02  0.14927590226E+03  0.15631134169E+03  0.00000000000E+00 0. -1.
         11    1    3    3    0    0 -0.17512865212E+02  0.19267659198E+02  0.10410900476E+02  0.28041576054E+02  0.00000000000E+00 0.  1.
</event>
<event>
 7    1  0.6145388E-006  0.1123423E+03  0.7561462E-02  0.1256293E+00
         -4   -1    0    0    0  501 -0.00000000000E+00  0.00000000000E+00  0.13542768685E+03  0.13542768685E+03  0.00000000000E+00 0.  1.
          4   -1    0    0  501    0  0.00000000000E+00 -0.00000000000E+00 -0.99648470083E+02  0.99648470083E+02  0.00000000000E+00 0. -1.
         23    2    1    2    0    0 -0.30538493317E+02  0.16045583609E+01  0.29871383877E+01  0.10219090784E+03  0.97462220720E+02 0.  0.
          5    1    1    2  502    0  0.38951088740E+02 -0.56908538412E+02  0.33505704544E+02  0.76784592825E+02  0.41800000000E+01 0. -1.
         -5    1    1    2    0  502 -0.84125954235E+01  0.55303980052E+02 -0.71362616667E+00  0.56100656267E+02  0.41800000000E+01 0. -1.
        -11    1    3    3    0    0  0.23878440906E+02 -0.28603530684E+02  0.12344499386E+02  0.39252115519E+02  0.00000000000E+00 0.  1.
         11    1    3    3    0    0 -0.54416934222E+02  0.30208089044E+02 -0.93573609984E+01  0.62938792320E+02  0.00000000000E+00 0. -1.
</event>
<event>
 7    1  0.6145388E-006  0.1124593E+03  0.7561462E-02  0.1256082E+00
          3   -1    0    0  501    0  0.00000000000E+00  0.00000000000E+00  0.23254015326E+02  0.23254015326E+02  0.00000000000E+00 0. -1.
         -3   -1    0    0    0  501 -0.00000000000E+00 -0.00000000000E+00 -0.90980421284E+03  0.90980421284E+03  0.00000000000E+00 0.  1.
         23    2    1    2    0    0  0.89167701998E+02  0.31004552628E+02 -0.39413640488E+03  0.41532972784E+03  0.90791606522E+02 0.  0.
          5    1    1    2  502    0 -0.31009939824E+02  0.20258862960E+02 -0.27362072403E+02  0.46240602315E+02  0.41800000000E+01 0. -1.
         -5    1    1    2    0  502 -0.58157762174E+02 -0.51263415588E+02 -0.46505172023E+03  0.47148789801E+03  0.41800000000E+01 0.  1.
        -11    1    3    3    0    0  0.52797283565E+02 -0.11527988851E+02 -0.30734767544E+03  0.31206255988E+03  0.00000000000E+00 0. -1.
         11    1    3    3    0    0  0.36370418432E+02  0.42532541479E+02 -0.86788729435E+02  0.10326716796E+03  0.00000000000E+00 0.  1.
</event>
<event>
 7    1  0.6145388E-006  0.1809375E+03  0.7561462E-02  0.1166899E+00
          2   -1    0    0  501    0  0.00000000000E+00  0.00000000000E+00  0.21346061721E+03  0.21346061721E+03  0.00000000000E+00 0. -1.
         -2   -1    0    0    0  501 -0.00000000000E+00 -0.00000000000E+00 -0.18335641793E+03  0.18335641793E+03  0.00000000000E+00 0.  1.
         23    2    1    2    0    0 -0.49807060989E+02 -0.15220587435E+03  0.54567305065E+02  0.19213667236E+03  0.91057885840E+02 0.  0.
          5    1    1    2  502    0  0.57751868444E+02  0.10774397049E+02 -0.22212828289E+02  0.62946390533E+02  0.41800000000E+01 0.  1.
         -5    1    1    2    0  502 -0.79448074541E+01  0.14143147730E+03 -0.22502774949E+01  0.14173397224E+03  0.41800000000E+01 0.  1.
        -11    1    3    3    0    0 -0.15420853951E+02 -0.77541570438E+02 -0.19564401375E+02  0.81444850566E+02  0.00000000000E+00 0.  1.
         11    1    3    3    0    0 -0.34386207038E+02 -0.74664303915E+02  0.74131706440E+02  0.11069182180E+03  0.00000000000E+00 0. -1.
</event>
<event>
 7    1  0.6145388E-006  0.1832893E+03  0.7561462E-02  0.1164657E+00
         -2   -1    0    0    0  501 -0.00000000000E+00  0.00000000000E+00  0.55428823206E+02  0.55428823206E+02  0.00000000000E+00 0.  1.
          2   -1    0    0  501    0  0.00000000000E+00 -0.00000000000E+00 -0.74337204946E+03  0.74337204946E+03  0.00000000000E+00 0. -1.
         23    2    1    2    0    0 -0.22696065531E+02 -0.15624383199E+03 -0.45892421200E+03  0.49380279710E+03  0.91118185035E+02 0.  0.
          5    1    1    2  502    0 -0.13544209898E+02  0.16337243532E+03 -0.18033219566E+03  0.24374406954E+03  0.41800000000E+01 0. -1.
         -5    1    1    2    0  502  0.36240275429E+02 -0.71286033346E+01 -0.48686818594E+02  0.61254006020E+02  0.41800000000E+01 0. -1.
        -11    1    3    3    0    0  0.14494822827E+02 -0.70258587311E+02 -0.30737051005E+03  0.31563111289E+03  0.00000000000E+00 0. -1.
         11    1    3    3    0    0 -0.37190888358E+02 -0.85985244677E+02 -0.15155370195E+03  0.17817168421E+03  0.00000000000E+00 0.  1.
</event>
<event>
 7    1  0.6145388E-006  0.8782459E+02  0.7561462E-02  0.1308207E+00
         -2   -1    0    0    0  501 -0.00000000000E+00  0.00000000000E+00  0.11750087690E+03  0.11750087690E+03  0.00000000000E+00 0.  1.
          2   -1    0    0  501    0  0.00000000000E+00 -0.00000000000E+00 -0.10477425651E+03  0.10477425651E+03  0.00000000000E+00 0. -1.
         23    2    1    2    0    0  0.39094613463E+01  0.22474602824E+02 -0.10008405611E+02  0.93124553680E+02  0.89730834472E+02 0.  0.
          5    1    1    2  502    0  0.21247112051E+02  0.23207846145E+02  0.57957736984E+02  0.66080372044E+02  0.41800000000E+01 0. -1.
         -5    1    1    2    0  502 -0.25156573397E+02 -0.45682448968E+02 -0.35222710977E+02  0.63070207685E+02  0.41800000000E+01 0. -1.
        -11    1    3    3    0    0  0.46971240219E+01 -0.34395049729E+02  0.27933533815E+01  0.34826502021E+02  0.00000000000E+00 0.  1.
         11    1    3    3    0    0 -0.78766267557E+00  0.56869652552E+02 -0.12801758992E+02  0.58298051659E+02  0.00000000000E+00 0. -1.
</event>
<event>
 7    1  0.6145388E-006  0.1077277E+03  0.7561462E-02  0.1264837E+00
          1   -1    0    0  501    0  0.00000000000E+00  0.00000000000E+00  0.40649056020E+03  0.40649056020E+03  0.00000000000E+00 0. -1.
         -1   -1    0    0    0  501 -0.00000000000E+00 -0.00000000000E+00 -0.38771110758E+02  0.38771110758E+02  0.00000000000E+00 0.  1.
         23    2    1    2    0    0  0.44952521557E+02  0.30601605954E+02  0.22272395503E+03  0.24619635258E+03  0.89718985719E+02 0.  0.
          5    1    1    2  502    0 -0.42604980436E+02  0.32353852025E+02  0.16906405366E+02  0.56260599368E+02  0.41800000000E+01 0. -1.
         -5    1    1    2    0  502 -0.23475411206E+01 -0.62955457979E+02  0.12808908905E+03  0.14280471901E+03  0.41800000000E+01 0. -1.
        -11    1    3    3    0    0  0.41347783819E+02 -0.21381807452E+02  0.14762452561E+03  0.15478960391E+03  0.00000000000E+00 0.  1.
         11    1    3    3    0    0  0.36047377376E+01  0.51983413405E+02  0.75099429417E+02  0.91406748669E+02  0.00000000000E+00 0. -1.
</event>
<event>
 7    1  0.6145388E-006  0.9433232E+02  0.7561462E-02  0.1292687E+00
          1   -1    0    0  501    0  0.00000000000E+00  0.00000000000E+00  0.22473132427E+03  0.22473132427E+03  0.00000000000E+00 0. -1.
         -1   -1    0    0    0  501 -0.00000000000E+00 -0.00000000000E+00 -0.66009677058E+02  0.66009677058E+02  0.00000000000E+00 0.  1.
         23    2    1    2    0    0  0.42016337274E+02  0.34590922240E+02  0.62193304159E+02  0.12362829711E+03  0.91945876822E+02 0.  0.
          5    1    1    2  502    0  0.13291848962E+02  0.38782273202E+01  0.98526528453E+02  0.99582443759E+02  0.41800000000E+01 0.  1.
         -5    1    1    2    0  502 -0.55308186236E+02 -0.38469149560E+02 -0.19981854036E+01  0.67530260458E+02  0.41800000000E+01 0.  1.
        -11    1    3    3    0    0  0.62695812625E+02  0.50584745329E+02  0.49680606818E+02  0.94645359498E+02  0.00000000000E+00 0.  1.
         11    1    3    3    0    0 -0.20679475351E+02 -0.15993823090E+02  0.12512697341E+02  0.28982937611E+02  0.00000000000E+00 0. -1.
</event>
<event>
 7    1  0.6145388E-006  0.9832301E+02  0.7561462E-02  0.1283862E+00
          1   -1    0    0  501    0  0.00000000000E+00  0.00000000000E+00  0.30684555292E+03  0.30684555292E+03  0.00000000000E+00 0. -1.
         -1   -1    0    0    0  501 -0.00000000000E+00 -0.00000000000E+00 -0.14721314501E+03  0.14721314501E+03  0.00000000000E+00 0.  1.
         23    2    1    2    0    0 -0.33397822736E+02  0.47393332963E+01  0.26579493784E+03  0.28655891559E+03  0.10164244822E+03 0.  0.
          5    1    1    2  502    0  0.40643265656E+02  0.49050042761E+02 -0.90694847233E+02  0.11090901430E+03  0.41800000000E+01 0. -1.
         -5    1    1    2    0  502 -0.72454429199E+01 -0.53789376057E+02 -0.15467682698E+02  0.56590768044E+02  0.41800000000E+01 0. -1.
        -11    1    3    3    0    0  0.15672161543E+02 -0.18358345252E+02  0.11855061737E+02  0.26892154555E+02  0.00000000000E+00 0.  1.
         11    1    3    3    0    0 -0.49069984279E+02  0.23097678549E+02  0.25393987610E+03  0.25966676104E+03  0.00000000000E+00 0. -1.
</event>
<event>
 7    1  0.6145388E-006  0.1179702E+03  0.7561462E-02  0.1246484E+00
          2   -1    0    0  501    0  0.00000000000E+00  0.00000000000E+00  0.37133157978E+03  0.37133157978E+03  0.00000000000E+00 0. -1.
         -2   -1    0    0    0  501 -0.00000000000E+00 -0.00000000000E+00 -0.75828993658E+02  0.75828993658E+02  0.00000000000E+00 0.  1.
         23    2    1    2    0    0 -0.98053398258E+02  0.50552855095E+02  0.22357577477E+03  0.26552728071E+03  0.91370398184E+02 0.  0.
          5    1    1    2  502    0  0.70492514591E+02 -0.27300705444E+02  0.10705332986E+03  0.13111983437E+03  0.41800000000E+01 0. -1.
         -5    1    1    2    0  502  0.27560883667E+02 -0.23252149651E+02 -0.35126518519E+02  0.50513458357E+02  0.41800000000E+01 0. -1.
        -11    1    3    3    0    0 -0.18007447522E+02 -0.12593973621E+02  0.25528352351E+01  0.22122235546E+02  0.00000000000E+00 0.  1.
         11    1    3    3    0    0 -0.80045950736E+02  0.63146828716E+02  0.22102293954E+03  0.24340504516E+03  0.00000000000E+00 0. -1.
</event>
<event>
 7    1  0.6145388E-006  0.1247615E+03  0.7561462E-02  0.1235443E+00
         -1   -1    0    0    0  501 -0.00000000000E+00  0.00000000000E+00  0.72740742674E+02  0.72740742674E+02  0.00000000000E+00 0.  1.
          1   -1    0    0  501    0  0.00000000000E+00 -0.00000000000E+00 -0.23024807104E+03  0.23024807104E+03  0.00000000000E+00 0. -1.
         23    2    1    2    0    0  0.32837558077E+02 -0.61727601826E+02 -0.86383162395E+02  0.14300452032E+03  0.89998000200E+02 0.  0.
          5    1    1    2  502    0 -0.64313451519E+02  0.78713910078E+02 -0.31627101847E+02  0.10653565439E+03  0.41800000000E+01 0. -1.
         -5    1    1    2    0  502  0.31475893442E+02 -0.16986308252E+02 -0.39497064126E+02  0.53448638997E+02  0.41800000000E+01 0. -1.
        -11    1    3    3    0    0  0.38726013564E+02  0.98511023969E+01 -0.17966255231E+02  0.43812494474E+02  0.00000000000E+00 0. -1.
         11    1    3    3    0    0 -0.58884554878E+01 -0.71578704223E+02 -0.68416907163E+02  0.99192025849E+02  0.00000000000E+00 0.  1.
</event>
<event>
 7    1  0.6145388E-006  0.2930070E+03  0.7561462E-02  0.1088790E+00
         -1   -1    0    0    0  501 -0.00000000000E+00  0.00000000000E+00  0.55237219033E+02  0.55237219033E+02  0.00000000000E+00 0.  1.
          1   -1    0    0  501    0  0.00000000000E+00 -0.00000000000E+00 -0.16696727938E+04  0.16696727938E+04  0.00000000000E+00 0. -1.
         23    2    1    2    0    0  0.21143523148E+03  0.18259392934E+03 -0.89929608129E+03  0.94701710818E+03  0.10031231838E+03 0.  0.
          5    1    1    2  502    0 -0.11571646453E+03 -0.42910941428E+02 -0.19447017553E+03  0.23036443004E+03  0.41800000000E+01 0.  1.
         -5    1    1    2    0  502 -0.95718766948E+02 -0.13968298792E+03 -0.52066931792E+03  0.54752847458E+03  0.41800000000E+01 0.  1.
        -11    1    3    3    0    0  0.18487778878E+03  0.10834206184E+03 -0.58604139560E+03  0.62398903556E+03  0.00000000000E+00 0.  1.
         11    1    3    3    0    0  0.26557442696E+02  0.74251867503E+02 -0.31325468569E+03  0.32302807262E+03  0.00000000000E+00 0. -1.
</event>
<event>
 7    1  0.6145388E-006  0.1078883E+03  0.7561462E-02  0.1264531E+00
          1   -1    0    0  501    0  0.00000000000E+00  0.00000000000E+00  0.11399128250E+03  0.11399128250E+03  0.00000000000E+00 0. -1.
         -1   -1    0    0    0  501 -0.00000000000E+00 -0.00000000000E+00 -0.12243813157E+03  0.12243813157E+03  0.00000000000E+00 0.  1.
         23    2    1    2    0    0 -0.17770200181E+02 -0.40202131111E+02  0.18676558710E+02  0.10109527549E+03  0.89103588707E+02 0.  0.
          5    1    1    2  502    0 -0.39395512187E+02  0.59517257865E+02 -0.82414513983E+01  0.71970162466E+02  0.41800000000E+01 0. -1.
         -5    1    1    2    0  502  0.57165712369E+02 -0.19315126754E+02 -0.18881956381E+02  0.63363976113E+02  0.41800000000E+01 0. -1.
        -11    1    3    3    0    0  0.26952612698E+02 -0.63127667654E+01  0.33108701576E+02  0.43156465049E+02  0.00000000000E+00 0. -1.
         11    1    3    3    0    0 -0.44722812879E+02 -0.33889364345E+02 -0.14432142866E+02  0.57938810440E+02  0.00000000000E+00 0.  1.
</event>
<event>
 7    1  0.6145388E-006  0.9966616E+02  0.7561462E-02  0.1281000E+00
          1   -1    0    0  501    0  0.00000000000E+00  0.00000000000E+00  0.15158011980E+03  0.15158011980E+03  0.00000000000E+00 0. -1.
         -1   -1    0    0    0  501 -0.00000000000E+00 -0.00000000000E+00 -0.97767937869E+02  0.97767937869E+02  0.00000000000E+00 0.  1.
         23    2    1    2    0    0  0.17848130474E+02 -0.43817191995E+02  0.53025796151E+02  0.11560540914E+03  0.91183186439E+02 0.  0.
          5    1    1    2  502    0 -0.68751574751E+02  0.77488497008E+01  0.11632751540E+02  0.70282408971E+02  0.41800000000E+01 0. -1.
         -5    1    1    2    0  502  0.50903444277E+02  0.36068342295E+02 -0.10846365756E+02  0.63460239562E+02  0.41800000000E+01 0. -1.
        -11    1    3    3    0    0  0.34296279500E+02 -0.34225745230E+02  0.73252365259E+02  0.87826792268E+02  0.00000000000E+00 0. -1.
         11    1    3    3    0    0 -0.16448149026E+02 -0.95914467657E+01 -0.20226569108E+02  0.27778616872E+02  0.00000000000E+00 0.  1.
</event>
<event>
 7    1  0.6145388E-006  0.1151742E+03  0.7561462E-02  0.1251277E+00
         -2   -1    0    0    0  501 -0.00000000000E+00  0.00000000000E+00  0.21841591503E+02  0.21841591503E+02  0.00000000000E+00 0.  1.
          2   -1    0    0  501    0  0.00000000000E+00 -0.00000000000E+00 -0.72711595072E+03  0.72711595072E+03  0.00000000000E+00 0. -1.
         23    2    1    2    0    0  0.47767807000E+02  0.93351783069E+01 -0.44750996471E+03  0.45833838891E+03  0.86255442110E+02 0.  0.
          5    1    1    2  502    0  0.31591602465E+02  0.30356560615E+02 -0.10592180425E+03  0.11470157425E+03  0.41800000000E+01 0. -1.
         -5    1    1    2    0  502 -0.79359409465E+02 -0.39691738922E+02 -0.15184259025E+03  0.17591757907E+03  0.41800000000E+01 0. -1.
        -11    1    3    3    0    0  0.63282810575E+02  0.31311427051E+02 -0.28491650286E+03  0.29353455194E+03  0.00000000000E+00 0.  1.
         11    1    3    3    0    0 -0.15515003575E+02 -0.21976248744E+02 -0.16259346185E+03  0.16480383697E+03  0.00000000000E+00 0. -1.
</event>
<event>
 7    1  0.6145388E-006  0.1272725E+03  0.7561462E-02  0.1231560E+00
         -2   -1    0    0    0  501 -0.00000000000E+00  0.00000000000E+00  0.61643690989E+03  0.61643690989E+03  0.00000000000E+00 0.  1.
          2   -1    0    0  501    0  0.00000000000E+00 -0.00000000000E+00 -0.37947995206E+02  0.37947995206E+02  0.00000000000E+00 0. -1.
         23    2    1    2    0    0  0.10343502184E+03 -0.85569683161E+01  0.19694144554E+03  0.23965844049E+03  0.88759279382E+02 0.  0.
          5    1    1    2  502    0 -0.11187341663E+03 -0.24265878353E+02  0.20433070531E+03  0.23424987456E+03  0.41800000000E+01 0. -1.
         -5    1    1    2    0  502  0.84383947820E+01  0.32822846669E+02  0.17721676383E+03  0.18047659004E+03  0.41800000000E+01 0. -1.
        -11    1    3    3    0    0  0.86004105142E+02  0.91415402416E+00  0.20168731330E+03  0.21926083583E+03  0.00000000000E+00 0.  1.
         11    1    3    3    0    0  0.17430916702E+02 -0.94711223403E+01 -0.47458677596E+01  0.20397604670E+02  0.00000000000E+00 0. -1.
</event>
<event>
 7    1  0.6145388E-006  0.1169644E+03  0.7561462E-02  0.1248190E+00
         -2   -1    0    0    0  501 -0.00000000000E+00  0.00000000000E+00  0.30509883566E+02  0.30509883566E+02  0.00000000000E+00 0.  1.
          2   -1    0    0  501    0  0.00000000000E+00 -0.00000000000E+00 -0.53496389886E+03  0.53496389886E+03  0.00000000000E+00 0. -1.
         23    2    1    2    0    0 -0.37634240458E+02 -0.41713074005E+02 -0.30824110062E+03  0.32609692685E+03  0.90389783659E+02 0.  0.
          5    1    1    2  502    0 -0.31833574087E+02  0.57297883176E+02 -0.99123415724E+02  0.11890898957E+03  0.41800000000E+01 0. -1.
         -5    1    1    2    0  502  0.69467814545E+02 -0.15584809171E+02 -0.97089498947E+02  0.12046786601E+03  0.41800000000E+01 0. -1.
        -11    1    3    3    0    0  0.96427940564E+01 -0.48250466313E+02 -0.88755348219E+02  0.10148203198E+03  0.00000000000E+00 0.  1.
         11    1    3    3    0    0 -0.47277034514E+02  0.65373923085E+01 -0.21948575240E+03  0.22461489487E+03  0.00000000000E+00 0. -1.
</event>
<event>
 7    1  0.6145388E-006  0.2594823E+03  0.7561462E-02  0.1107455E+00
          1   -1    0    0  501    0  0.00000000000E+00  0.00000000000E+00  0.93012181454E+02  0.93012181454E+02  0.00000000000E+00 0. -1.
         -1   -1    0    0    0  501 -0.00000000000E+00 -0.00000000000E+00 -0.83143500697E+03  0.83143500697E+03  0.00000000000E+00 0.  1.
         23    2    1    2    0    0  0.14191806367E+03  0.20733746420E+03 -0.28365700215E+03  0.39005202577E+03  0.92464734265E+02 0.  0.
          5    1    1    2  502    0 -0.90559685857E+02 -0.19428348275E+03 -0.41796311633E+03  0.46974223504E+03  0.41800000000E+01 0.  1.
         -5    1    1    2    0  502 -0.51358377812E+02 -0.13053981456E+02 -0.36802707038E+02  0.64652927610E+02  0.41800000000E+01 0.  1.
        -11    1    3    3    0    0  0.55777585652E+02  0.73856644814E+02 -0.43890585004E+02  0.10243205795E+03  0.00000000000E+00 0.  1.
         11    1    3    3    0    0  0.86140478017E+02  0.13348081939E+03 -0.23976641714E+03  0.28761996782E+03  0.00000000000E+00 0. -1.
</event>
<event>
 7    1  0.6145388E-006  0.9846836E+02  0.7561462E-02  0.1283550E+00
          1   -1    0    0  501    0  0.00000000000E+00  0.00000000000E+00  0.27948543856E+03  0.27948543856E+03  0.00000000000E+00 0. -1.
         -1   -1    0    0    0  501 -0.00000000000E+00 -0.00000000000E+00 -0.50877005466E+02  0.50877005466E+02  0.00000000000E+00 0.  1.
         23    2    1    2    0    0 -0.33181616520E+02  0.95408943879E+00  0.15091305181E+03  0.17940905072E+03  0.91164292965E+02 0.  0.
          5    1    1    2  502    0  0.34063766615E+02 -0.59722071861E+02  0.53666668888E+02  0.87319240794E+02  0.41800000000E+01 0. -1.
         -5    1    1    2    0  502 -0.88215009491E+00  0.58767982422E+02  0.24028712398E+02  0.63634152515E+02  0.41800000000E+01 0. -1.
        -11    1    3    3    0    0  0.49356057738E+01 -0.23390099207E+02  0.22412580073E+01  0.24010001723E+02  0.00000000000E+00 0.  1.
         11    1    3    3    0    0 -0.38117222294E+02  0.24344188646E+02  0.14867179380E+03  0.15539904900E+03  0.00000000000E+00 0. -1.
</event>
<event>
 7    1  0.6145388E-006  0.1684796E+03  0.7561462E-02  0.1179443E+00
         -2   -1    0    0    0  501 -0.00000000000E+00  0.00000000000E+00  0.30885552085E+03  0.30885552085E+03  0.00000000000E+00 0.  1.
          2   -1    0    0  501    0  0.00000000000E+00 -0.00000000000E+00 -0.13974984328E+03  0.13974984328E+03  0.00000000000E+00 0. -1.
         23    2    1    2    0    0 -0.24927576786E+00  0.15542535516E+03 -0.12718644401E+02  0.17867027645E+03  0.87202067679E+02 0.  0.
          5    1    1    2  502    0  0.22820152547E+02 -0.62222250737E+02  0.24018453514E+01  0.66450049737E+02  0.41800000000E+01 0.  1.
         -5    1    1    2    0  502 -0.22570876779E+02 -0.93203104422E+02  0.17942247661E+03  0.20348503794E+03  0.41800000000E+01 0.  1.
        -11    1    3    3    0    0 -0.39643654015E+02  0.68855406995E+02  0.12112621857E+02  0.80370404904E+02  0.00000000000E+00 0.  1.
         11    1    3    3    0    0  0.39394378247E+02  0.86569948163E+02 -0.24831266258E+02  0.98299871548E+02  0.00000000000E+00 0. -1.
</event>
<event>
 7    1  0.6145388E-006  0.7904350E+02  0.7561462E-02  0.1331788E+00
          1   -1    0    0  501    0  0.00000000000E+00  0.00000000000E+00  0.51639508371E+03  0.51639508371E+03  0.00000000000E+00 0. -1.
         -1   -1    0    0    0  501 -0.00000000000E+00 -0.00000000000E+00 -0.74883890298E+02  0.74883890298E+02  0.00000000000E+00 0.  1.
         23    2    1    2    0    0  0.35285238440E+02 -0.38831361393E+02  0.44338671306E+03  0.45562325095E+03  0.90817656916E+02 0.  0.
          5    1    1    2  502    0 -0.23021176579E+02  0.23870434610E+02  0.61099021561E+02  0.69644346901E+02  0.41800000000E+01 0.  1.
         -5    1    1    2    0  502 -0.12264061860E+02  0.14960926783E+02 -0.62974541202E+02  0.66011376164E+02  0.41800000000E+01 0.  1.
        -11    1    3    3    0    0 -0.64100079105E+01  0.26556827122E+02  0.11222081304E+03  0.11549832963E+03  0.00000000000E+00 0. -1.
         11    1    3    3    0    0  0.41695246350E+02 -0.65388188515E+02  0.33116590002E+03  0.34012492132E+03  0.00000000000E+00 0.  1.
</event>
<event>
 7    1  0.6145388E-006  0.1037736E+03  0.7561462E-02  0.1272555E+00
         -1   -1    0    0    0  501 -0.00000000000E+00  0.00000000000E+00  0.28788449916E+03  0.28788449916E+03  0.00000000000E+00 0.  1.
          1   -1    0    0  501    0  0.00000000000E+00 -0.00000000000E+00 -0.40387154751E+02  0.40387154751E+02  0.00000000000E+00 0. -1.
         23    2    1    2    0    0  0.10504990481E+02  0.11896492804E+02  0.81766700052E+02  0.12002522984E+03  0.86419796313E+02 0.  0.
          5    1    1    2  502    0 -0.41073946584E+02  0.45185896228E+02  0.80807114705E+02  0.10137108312E+03  0.41800000000E+01 0. -1.
         -5    1    1    2    0  502  0.30568956103E+02 -0.57082389031E+02  0.84923529651E+02  0.10687534095E+03  0.41800000000E+01 0. -1.
        -11    1    3    3    0    0  0.77589797768E+01  0.46297187776E+02  0.68524547637E+02  0.83061693891E+02  0.00000000000E+00 0.  1.
         11    1    3    3    0    0  0.27460107040E+01 -0.34400694972E+02  0.13242152415E+02  0.36963535950E+02  0.00000000000E+00 0. -1.
</event>
<event>
 7    1  0.6145388E-006  0.8936708E+02  0.7561462E-02  0.1304392E+00
          2   -1    0    0  501    0  0.00000000000E+00  0.00000000000E+00  0.50097386648E+03  0.50097386648E+03  0.00000000000E+00 0. -1.
         -2   -1    0    0    0  501 -0.00000000000E+00 -0.00000000000E+00 -0.29343917673E+02  0.29343917673E+02  0.00000000000E+00 0.  1.
         23    2    1    2    0    0 -0.29873922484E+02  0.45631078837E+02  0.24594847632E+03  0.26658654527E+03  0.87195679430E+02 0.  0.
          5    1    1    2  502    0  0.24400818121E+02 -0.57611157921E+02  0.23744417900E+03  0.24558431543E+03  0.41800000000E+01 0. -1.
         -5    1    1    2    0  502  0.54731043635E+01  0.11980079084E+02 -0.11762706521E+02  0.18146923457E+02  0.41800000000E+01 0. -1.
        -11    1    3    3    0    0  0.30573279109E+02  0.20125750870E+02  0.74292834559E+02  0.82820266302E+02  0.00000000000E+00 0.  1.
         11    1    3    3    0    0 -0.60447201593E+02  0.25505327967E+02  0.17165564177E+03  0.18376627897E+03  0.00000000000E+00 0. -1.
</event>
<event>
 7    1  0.6145388E-006  0.6917273E+02  0.7561462E-02  0.1362929E+00
          3   -1    0    0  501    0  0.00000000000E+00  0.00000000000E+00  0.80155709616E+03  0.80155709616E+03  0.00000000000E+00 0. -1.
         -3   -1    0    0    0  501 -0.00000000000E+00 -0.00000000000E+00 -0.14612703992E+02  0.14612703992E+02  0.00000000000E+00 0.  1.
         23    2    1    2    0    0  0.12366794613E+02  0.14392388297E+02  0.35038379148E+03  0.36164049437E+03  0.87492670466E+02 0.  0.
          5    1    1    2  502    0  0.20719378485E+02 -0.84948763318E+01  0.41215746387E+03  0.41278651018E+03  0.41800000000E+01 0. -1.
         -5    1    1    2    0  502 -0.33086173098E+02 -0.58975119650E+01  0.24403136816E+02  0.41742795595E+02  0.41800000000E+01 0. -1.
        -11    1    3    3    0    0  0.29146393821E+02  0.40962669948E+02  0.28113773913E+03  0.28559741065E+03  0.00000000000E+00 0. -1.
         11    1    3    3    0    0 -0.16779599208E+02 -0.26570281651E+02  0.69246052349E+02  0.76043083726E+02  0.00000000000E+00 0.  1.
</event>
<event>
 7    1  0.6145388E-006  0.1706704E+03  0.7561462E-02  0.1177151E+00
         -3   -1    0    0    0  501 -0.00000000000E+00  0.00000000000E+00  0.10624527469E+04  0.10624527469E+04  0.00000000000E+00 0.  1.
          3   -1    0    0  501    0  0.00000000000E+00 -0.00000000000E+00 -0.29686903941E+02  0.29686903941E+02  0.00000000000E+00 0. -1.
         23    2    1    2    0    0 -0.13101425025E+03  0.38944027672E+02  0.39081994446E+03  0.42399043657E+03  0.91358033315E+02 0.  0.
          5    1    1    2  502    0  0.16972620056E+02  0.41913387775E+02  0.16001787058E+03  0.16633698690E+03  0.41800000000E+01 0.  1.
         -5    1    1    2    0  502  0.11404163019E+03 -0.80857415447E+02  0.48192802788E+03  0.50181222734E+03  0.41800000000E+01 0.  1.
        -11    1    3    3    0    0 -0.13506404243E+03  0.19808574537E+02  0.28053966279E+03  0.31198906645E+03  0.00000000000E+00 0. -1.
         11    1    3    3    0    0  0.40497921835E+01  0.19135453135E+02  0.11028028167E+03  0.11200137012E+03  0.00000000000E+00 0.  1.
</event>
<event>
 7    1  0.6145388E-006  0.1287999E+03  0.7561462E-02  0.1229247E+00
         -2   -1    0    0    0  501 -0.00000000000E+00  0.00000000000E+00  0.14534160906E+04  0.14534160906E+04  0.00000000000E+00 0.  1.
          2   -1    0    0  501    0  0.00000000000E+00 -0.00000000000E+00 -0.16252480177E+02  0.16252480177E+02  0.00000000000E+00 0. -1.
         23    2    1    2    0    0  0.46644518767E+02  0.67218332605E+02  0.31975069111E+03  0.34230268543E+03  0.90755763571E+02 0.  0.
          5    1    1    2  502    0 -0.27551554157E+02  0.27249563433E+02  0.14389875086E+03  0.14908370046E+03  0.41800000000E+01 0. -1.
         -5    1    1    2    0  502 -0.19092964610E+02 -0.94467896037E+02  0.97351416841E+03  0.97828218484E+03  0.41800000000E+01 0. -1.
        -11    1    3    3    0    0  0.20040602509E+02  0.86824630983E+02  0.23686195687E+03  0.25306862490E+03  0.00000000000E+00 0.  1.
         11    1    3    3    0    0  0.26603916258E+02 -0.19606298378E+02  0.82888734238E+02  0.89234060538E+02  0.00000000000E+00 0. -1.
</event>
<event>
 7    1  0.6145388E-006  0.9847960E+02  0.7561462E-02  0.1283526E+00
         -4   -1    0    0    0  501 -0.00000000000E+00  0.00000000000E+00  0.35760269318E+03  0.35760269318E+03  0.00000000000E+00 0.  1.
          4   -1    0    0  501    0  0.00000000000E+00 -0.00000000000E+00 -0.82398699310E+02  0.82398699310E+02  0.00000000000E+00 0. -1.
         23    2    1    2    0    0  0.69038703477E+02  0.26419228872E+00 -0.15739263806E+02  0.11586898039E+03  0.91714141860E+02 0.  0.
          5    1    1    2  502    0 -0.11290890827E+02 -0.43326446126E+02  0.31658620659E+02  0.54994598022E+02  0.41800000000E+01 0. -1.
         -5    1    1    2    0  502 -0.57747812650E+02  0.43062253837E+02  0.25928463702E+03  0.26913781407E+03  0.41800000000E+01 0. -1.
        -11    1    3    3    0    0  0.12059538278E+02  0.16637978583E+02  0.33165777364E+02  0.39015683808E+02  0.00000000000E+00 0.  1.
         11    1    3    3    0    0  0.56979165199E+02 -0.16373786294E+02 -0.48905041171E+02  0.76853296587E+02  0.00000000000E+00 0. -1.
</event>
<event>
 7    1  0.6145388E-006  0.9625823E+02  0.7561462E-02  0.1288367E+00
         -2   -1    0    0    0  501 -0.00000000000E+00  0.00000000000E+00  0.38893324024E+02  0.38893324024E+02  0.00000000000E+00 0. -1.
          2   -1    0    0  501    0  0.00000000000E+00 -0.00000000000E+00 -0.34573444279E+03  0.34573444279E+03  0.00000000000E+00 0.  1.
         23    2    1    2    0    0 -0.22186877125E+02  0.24577177469E+02 -0.17427750834E+03  0.19937993542E+03  0.91013260390E+02 0.  0.
          5    1    1    2  502    0 -0.27183950096E+02  0.27234016931E+02 -0.51446442358E+01  0.39046108453E+02  0.41800000000E+01 0. -1.
         -5    1    1    2    0  502  0.49370827221E+02 -0.51811194400E+02 -0.12741896619E+03  0.14620172294E+03  0.41800000000E+01 0. -1.
        -11    1    3    3    0    0  0.21758182162E+02 -0.12087079111E+02 -0.12652693029E+02  0.27921436448E+02  0.00000000000E+00 0. -1.
         11    1    3    3    0    0 -0.43945059287E+02  0.36664256579E+02 -0.16162481531E+03  0.17145849897E+03  0.00000000000E+00 0.  1.
</event>
<event>
 7    1  0.6145388E-006  0.1010395E+03  0.7561462E-02  0.1278125E+00
          1   -1    0    0  501    0  0.00000000000E+00  0.00000000000E+00  0.87104648865E+03  0.87104648865E+03  0.00000000000E+00 0. -1.
         -1   -1    0    0    0  501 -0.00000000000E+00 -0.00000000000E+00 -0.19022500310E+02  0.19022500310E+02  0.00000000000E+00 0.  1.
         23    2    1    2    0    0  0.48017206250E+01  0.62596028188E+02  0.50076803778E+03  0.51302735973E+03  0.92125593096E+02 0.  0.
          5    1    1    2  502    0  0.30039491742E+02 -0.31371650987E+02  0.31419278977E+03  0.31720834335E+03  0.41800000000E+01 0. -1.
         -5    1    1    2    0  502 -0.34841212367E+02 -0.31224377201E+02  0.37063160785E+02  0.59833285871E+02  0.41800000000E+01 0.  1.
        -11    1    3    3    0    0 -0.42024510791E+02  0.14783765885E+02  0.20362181238E+03  0.20843814842E+03  0.00000000000E+00 0. -1.
         11    1    3    3    0    0  0.46826231416E+02  0.47812262303E+02  0.29714622540E+03  0.30458921131E+03  0.00000000000E+00 0.  1.
</event>
<event>
 7    1  0.6145388E-006  0.2431197E+03  0.7561462E-02  0.1117732E+00
         -2   -1    0    0    0  501 -0.00000000000E+00  0.00000000000E+00  0.25470446831E+03  0.25470446831E+03  0.00000000000E+00 0.  1.
          2   -1    0    0  501    0  0.00000000000E+00 -0.00000000000E+00 -0.28053124630E+03  0.28053124630E+03  0.00000000000E+00 0. -1.
         23    2    1    2    0    0 -0.20668925429E+03  0.11200493396E+03 -0.78812254599E+02  0.26371724780E+03  0.89832411962E+02 0.  0.
          5    1    1    2  502    0  0.65357694597E+02 -0.60729311864E+02  0.78568575751E+02  0.11895449154E+03  0.41800000000E+01 0.  1.
         -5    1    1    2    0  502  0.14133155969E+03 -0.51275622101E+02 -0.25583099141E+02  0.15256397527E+03  0.41800000000E+01 0.  1.
        -11    1    3    3    0    0 -0.10963784871E+03  0.10060640729E+03 -0.21268592563E+02  0.15031453718E+03  0.00000000000E+00 0.  1.
         11    1    3    3    0    0 -0.97051405580E+02  0.11398526678E+02 -0.57543662036E+02  0.11340271062E+03  0.00000000000E+00 0. -1.
</event>
<event>
 7    1  0.6145388E-006  0.1626965E+03  0.7561462E-02  0.1185686E+00
          1   -1    0    0  501    0  0.00000000000E+00  0.00000000000E+00  0.81468278561E+03  0.81468278561E+03  0.00000000000E+00 0. -1.
         -1   -1    0    0    0  501 -0.00000000000E+00 -0.00000000000E+00 -0.43707591893E+02  0.43707591893E+02  0.00000000000E+00 0.  1.
         23    2    1    2    0    0 -0.11348225134E+03 -0.83965850198E+02  0.47552561631E+03  0.50480269723E+03  0.93662511162E+02 0.  0.
          5    1    1    2  502    0  0.11214129568E+02 -0.18792664175E+02  0.13692528410E+03  0.13872608535E+03  0.41800000000E+01 0. -1.
         -5    1    1    2    0  502  0.10226812177E+03  0.10275851437E+03  0.15852429330E+03  0.21486159492E+03  0.41800000000E+01 0.  1.
        -11    1    3    3    0    0 -0.10286707312E+02 -0.47541499902E+02  0.73417265168E+02  0.88068753738E+02  0.00000000000E+00 0.  1.
         11    1    3    3    0    0 -0.10319554402E+03 -0.36424350295E+02  0.40210835114E+03  0.41673394349E+03  0.00000000000E+00 0. -1.
</event>
<event>
 7    1  0.6145388E-006  0.8527803E+02  0.7561462E-02  0.1314707E+00
          2   -1    0    0  501    0  0.00000000000E+00  0.00000000000E+00  0.34158304349E+02  0.34158304349E+02  0.00000000000E+00 0. -1.
         -2   -1    0    0    0  501 -0.00000000000E+00 -0.00000000000E+00 -0.76623398298E+03  0.76623398298E+03  0.00000000000E+00 0.  1.
         23    2    1    2    0    0 -0.67395888991E+02  0.34961818970E+02 -0.10422464929E+03  0.15799738066E+03  0.91300931735E+02 0.  0.
          5    1    1    2  502    0  0.58678782341E+01 -0.28218767928E+01  0.25675366230E+01  0.81522774679E+01  0.41800000000E+01 0. -1.
         -5    1    1    2    0  502  0.61528010757E+02 -0.32139942177E+02 -0.63041856596E+03  0.63424262920E+03  0.41800000000E+01 0.  1.
        -11    1    3    3    0    0 -0.18511543262E+02 -0.14664895153E+02  0.88230919213E+01  0.25210778149E+02  0.00000000000E+00 0.  1.
         11    1    3    3    0    0 -0.48884345728E+02  0.49626714124E+02 -0.11304774121E+03  0.13278660251E+03  0.00000000000E+00 0. -1.
</event>
<event>
 7    1  0.6145388E-006  0.1412109E+03  0.7561462E-02  0.1211709E+00
          2   -1    0    0  501    0  0.00000000000E+00  0.00000000000E+00  0.17885909068E+03  0.17885909068E+03  0.00000000000E+00 0. -1.
         -2   -1    0    0    0  501 -0.00000000000E+00 -0.00000000000E+00 -0.13070980071E+03  0.13070980071E+03  0.00000000000E+00 0.  1.
         23    2    1    2    0    0 -0.94413923429E+02  0.19880124188E+02  0.71597652226E+02  0.14984615064E+03  0.89545724531E+02 0.  0.
          5    1    1    2  502    0  0.29295414778E+02  0.51083795081E+02 -0.22886280610E+02  0.63316898906E+02  0.41800000000E+01 0. -1.
         -5    1    1    2    0  502  0.65118508651E+02 -0.70963919270E+02 -0.56208164066E+00  0.96405841850E+02  0.41800000000E+01 0. -1.
        -11    1    3    3    0    0 -0.74365468777E+02  0.50850238566E+02  0.67814377242E+02  0.11275974224E+03  0.00000000000E+00 0.  1.
         11    1    3    3    0    0 -0.20048454652E+02 -0.30970114377E+02  0.37832749838E+01  0.37086408401E+02  0.00000000000E+00 0. -1.
</event>
<event>
 7    1  0.6145388E-006  0.1590968E+03  0.7561462E-02  0.1189720E+00
         -2   -1    0    0    0  501 -0.00000000000E+00  0.00000000000E+00  0.16264630902E+03  0.16264630902E+03  0.00000000000E+00 0.  1.
          2   -1    0    0  501    0  0.00000000000E+00 -0.00000000000E+00 -0.19027397211E+03  0.19027397211E+03  0.00000000000E+00 0. -1.
         23    2    1    2    0    0  0.56344244939E+02  0.12482177467E+03  0.42799016763E+01  0.16463595097E+03  0.91277211975E+02 0.  0.
          5    1    1    2  502    0 -0.82472713482E+02 -0.50980771393E+02 -0.47910314804E+02  0.10822965483E+03  0.41800000000E+01 0. -1.
         -5    1    1    2    0  502  0.26128468543E+02 -0.73841003272E+02  0.16002750042E+02  0.80054675326E+02  0.41800000000E+01 0. -1.
        -11    1    3    3    0    0  0.39405844997E+02  0.11807032916E+03  0.34656104275E+02  0.12920707725E+03  0.00000000000E+00 0. -1.
         11    1    3    3    0    0  0.16938399942E+02  0.67514455067E+01 -0.30376202599E+02  0.35428873724E+02  0.00000000000E+00 0.  1.
</event>
<event>
 7    1  0.6145388E-006  0.9484042E+02  0.7561462E-02  0.1291536E+00
         -1   -1    0    0    0  501 -0.00000000000E+00  0.00000000000E+00  0.15151931575E+02  0.15151931575E+02  0.00000000000E+00 0.  1.
          1   -1    0    0  501    0  0.00000000000E+00 -0.00000000000E+00 -0.81982016489E+03  0.81982016489E+03  0.00000000000E+00 0. -1.
         23    2    1    2    0    0  0.12679664887E+02 -0.27115286543E+02 -0.37119841102E+03  0.38282137355E+03  0.88701358708E+02 0.  0.
          5    1    1    2  502    0 -0.45357763714E+02 -0.98026962558E+01 -0.62819996884E+02  0.78212812195E+02  0.41800000000E+01 0. -1.
         -5    1    1    2    0  502  0.32678098827E+02  0.36917982799E+02 -0.37064982541E+03  0.37393791072E+03  0.41800000000E+01 0. -1.
        -11    1    3    3    0    0  0.41901902078E+02  0.13095350261E+02 -0.17160474973E+03  0.17713115967E+03  0.00000000000E+00 0.  1.
         11    1    3    3    0    0 -0.29222237191E+02 -0.40210636804E+02 -0.19959366129E+03  0.20569021388E+03  0.00000000000E+00 0. -1.
</event>
<event>
 7    1  0.6145388E-006  0.1034484E+03  0.7561462E-02  0.1273207E+00
         -1   -1    0    0    0  501 -0.00000000000E+00  0.00000000000E+00  0.21490013558E+02  0.21490013558E+02  0.00000000000E+00 0.  1.
          1   -1    0    0  501    0  0.00000000000E+00 -0.00000000000E+00 -0.58698622596E+03  0.58698622596E+03  0.00000000000E+00 0. -1.
         23    2    1    2    0    0  0.57583842608E+01  0.51017151405E+01 -0.31054921525E+03  0.32366501793E+03  0.90879272957E+02 0.  0.
          5    1    1    2  502    0  0.55143279868E+02 -0.11862878830E+02 -0.17551976535E+03  0.18440761817E+03  0.41800000000E+01 0. -1.
         -5    1    1    2    0  502 -0.60901664129E+02  0.67611636897E+01 -0.79427231795E+02  0.10040360341E+03  0.41800000000E+01 0.  1.
        -11    1    3    3    0    0 -0.29498317487E+02 -0.27917632461E+02 -0.10663820454E+03  0.11411069890E+03  0.00000000000E+00 0.  1.
         11    1    3    3    0    0  0.35256701748E+02  0.33019347601E+02 -0.20391101071E+03  0.20955431903E+03  0.00000000000E+00 0. -1.
</event>
<event>
 7    1  0.6145388E-006  0.1989069E+03  0.7561462E-02  0.1150665E+00
         -2   -1    0    0    0  501 -0.00000000000E+00  0.00000000000E+00  0.13167689880E+03  0.13167689880E+03  0.00000000000E+00 0.  1.
          2   -1    0    0  501    0  0.00000000000E+00 -0.00000000000E+00 -0.35399807495E+03  0.35399807495E+03  0.00000000000E+00 0. -1.
         23    2    1    2    0    0  0.17761310670E+03 -0.59021360159E+02 -0.14139290923E+03  0.25175620496E+03  0.91429182031E+02 0.  0.
          5    1    1    2  502    0 -0.35831610434E+02 -0.26713316783E+02  0.83557071942E+01  0.45659564634E+02  0.41800000000E+01 0. -1.
         -5    1    1    2    0  502 -0.14178149627E+03  0.85734676942E+02 -0.89283974113E+02  0.18825920415E+03  0.41800000000E+01 0.  1.
        -11    1    3    3    0    0  0.12078619687E+03 -0.41546402832E+02 -0.39347657945E+02  0.13365495550E+03  0.00000000000E+00 0.  1.
         11    1    3    3    0    0  0.56826909830E+02 -0.17474957327E+02 -0.10204525129E+03  0.11810124946E+03  0.00000000000E+00 0. -1.
</event>
<event>
 7    1  0.6145388E-006  0.3427492E+03  0.7561462E-02  0.1065631E+00
         -2   -1    0    0    0  501 -0.00000000000E+00  0.00000000000E+00  0.93221991008E+02  0.93221991008E+02  0.00000000000E+00 0. -1.
          2   -1    0    0  501    0  0.00000000000E+00 -0.00000000000E+00 -0.13819291184E+04  0.13819291184E+04  0.00000000000E+00 0.  1.
         23    2    1    2    0    0  0.20528921372E+03  0.26944407729E+03 -0.72778453002E+03  0.80802205779E+03  0.92117054265E+02 0.  0.
          5    1    1    2  502    0 -0.32660796146E+02 -0.55252959022E+02 -0.21904944270E+03  0.22829749853E+03  0.41800000000E+01 0. -1.
         -5    1    1    2    0  502 -0.17262841758E+03 -0.21419111826E+03 -0.34187315465E+03  0.43883155307E+03  0.41800000000E+01 0. -1.
        -11    1    3    3    0    0  0.17281424623E+03  0.17401887330E+03 -0.44962980662E+03  0.51216627668E+03  0.00000000000E+00 0.  1.
         11    1    3    3    0    0  0.32474967496E+02  0.95425203987E+02 -0.27815472340E+03  0.29585578112E+03  0.00000000000E+00 0. -1.
</event>
<event>
 7    1  0.6145388E-006  0.1122005E+03  0.7561462E-02  0.1256548E+00
          1   -1    0    0  501    0  0.00000000000E+00  0.00000000000E+00  0.41844429956E+03  0.41844429956E+03  0.00000000000E+00 0.  1.
         -1   -1    0    0    0  501 -0.00000000000E+00 -0.00000000000E+00 -0.46709825739E+02  0.46709825739E+02  0.00000000000E+00 0. -1.
         23    2    1    2    0    0  0.50929827001E+02  0.68481574578E+02  0.20525538957E+03  0.24009883496E+03  0.90741954288E+02 0.  0.
          5    1    1    2  502    0 -0.71439415707E+02 -0.66462947621E+02  0.17653225369E+03  0.20174742258E+03  0.41800000000E+01 0.  1.
         -5    1    1    2    0  502  0.20509588706E+02 -0.20186269561E+01 -0.10053169439E+02  0.23307867759E+02  0.41800000000E+01 0.  1.
        -11    1    3    3    0    0  0.49856570375E+02  0.14787570789E+02  0.37930774656E+02  0.64366866674E+02  0.00000000000E+00 0.  1.
         11    1    3    3    0    0  0.10732566261E+01  0.53694003789E+02  0.16732461491E+03  0.17573196829E+03  0.00000000000E+00 0. -1.
</event>
<event>
 7    1  0.6145388E-006  0.1193615E+03  0.7561462E-02  0.1244154E+00
          2   -1    0    0  501    0  0.00000000000E+00  0.00000000000E+00  0.63588616864E+03  0.63588616864E+03  0.00000000000E+00 0.  1.
         -2   -1    0    0    0  501 -0.00000000000E+00 -0.00000000000E+00 -0.25648989624E+02  0.25648989624E+02  0.00000000000E+00 0. -1.
         23    2    1    2    0    0  0.15541144250E+02 -0.57529884500E+02  0.35166341351E+03  0.36817091633E+03  0.91276790333E+02 0.  0.
          5    1    1    2  502    0 -0.35707068377E+02 -0.29317933882E+02  0.61624282492E+02  0.77133394660E+02  0.41800000000E+01 0. -1.
         -5    1    1    2    0  502  0.20165924128E+02  0.86847818382E+02  0.19694948301E+03  0.21623084727E+03  0.41800000000E+01 0. -1.
        -11    1    3    3    0    0  0.50363064843E+02 -0.38510683184E+02  0.27047079971E+03  0.27780202396E+03  0.00000000000E+00 0.  1.
         11    1    3    3    0    0 -0.34821920594E+02 -0.19019201317E+02  0.81192613804E+02  0.90368892373E+02  0.00000000000E+00 0. -1.
</event>
<event>
 7    1  0.6145388E-006  0.9011662E+02  0.7561462E-02  0.1302570E+00
          1   -1    0    0  501    0  0.00000000000E+00  0.00000000000E+00  0.30495517095E+02  0.30495517095E+02  0.00000000000E+00 0. -1.
         -1   -1    0    0    0  501 -0.00000000000E+00 -0.00000000000E+00 -0.45655049800E+03  0.45655049800E+03  0.00000000000E+00 0.  1.
         23    2    1    2    0    0 -0.39536395756E+02  0.21676667735E+02 -0.15984623726E+03  0.18947720456E+03  0.91201902234E+02 0.  0.
          5    1    1    2  502    0  0.47954109370E+02  0.31558283211E+02 -0.55215514670E+02  0.79760562341E+02  0.41800000000E+01 0. -1.
         -5    1    1    2    0  502 -0.84177136144E+01 -0.53234950946E+02 -0.21099322898E+03  0.21780824819E+03  0.41800000000E+01 0. -1.
        -11    1    3    3    0    0 -0.13806170133E+02  0.36428743046E+02 -0.15450524821E+03  0.15934094069E+03  0.00000000000E+00 0.  1.
         11    1    3    3    0    0 -0.25730225622E+02 -0.14752075311E+02 -0.53409890438E+01  0.30136263878E+02  0.00000000000E+00 0. -1.
</event>
<event>
 7    1  0.6145388E-006  0.2544921E+03  0.7561462E-02  0.1110498E+00
         -1   -1    0    0    0  501 -0.00000000000E+00  0.00000000000E+00  0.24323971755E+03  0.24323971755E+03  0.00000000000E+00 0.  1.
          1   -1    0    0  501    0  0.00000000000E+00 -0.00000000000E+00 -0.29453435301E+03  0.29453435301E+03  0.00000000000E+00 0. -1.
         23    2    1    2    0    0  0.24115348323E+03 -0.33864029280E+02 -0.43594416827E+02  0.26389677055E+03  0.91865430796E+02 0.  0.
          5    1    1    2  502    0 -0.10153668117E+03 -0.20788360272E+02  0.47454978813E+02  0.11406708973E+03  0.41800000000E+01 0.  1.
         -5    1    1    2    0  502 -0.13961680207E+03  0.54652389552E+02 -0.55155197445E+02  0.15981021028E+03  0.41800000000E+01 0.  1.
        -11    1    3    3    0    0  0.71326379479E+02 -0.46216458077E+02  0.95372918548E+01  0.85524109716E+02  0.00000000000E+00 0.  1.
         11    1    3    3    0    0  0.16982710375E+03  0.12352428797E+02 -0.53131708682E+02  0.17837266084E+03  0.00000000000E+00 0. -1.
</event>
<event>
 7    1  0.6145388E-006  0.6712721E+02  0.7561462E-02  0.1370144E+00
         -3   -1    0    0    0  501 -0.00000000000E+00  0.00000000000E+00  0.10331177312E+03  0.10331177312E+03  0.00000000000E+00 0.  1.
          3   -1    0    0  501    0  0.00000000000E+00 -0.00000000000E+00 -0.20466459148E+03  0.20466459148E+03  0.00000000000E+00 0. -1.
         23    2    1    2    0    0 -0.18354056792E+02 -0.29795289468E+02 -0.14079813707E+03  0.17222551773E+03  0.92805618798E+02 0.  0.
          5    1    1    2  502    0 -0.98646573331E+01 -0.45869016095E+01  0.76699947341E+02  0.77580316142E+02  0.41800000000E+01 0.  1.
         -5    1    1    2    0  502  0.28218714125E+02  0.34382191078E+02 -0.37254628629E+02  0.58170530722E+02  0.41800000000E+01 0.  1.
        -11    1    3    3    0    0 -0.28562457782E+02  0.14804614196E+02 -0.10052040099E+02  0.33705105046E+02  0.00000000000E+00 0.  1.
         11    1    3    3    0    0  0.10208400990E+02 -0.44599903664E+02 -0.13074609697E+03  0.13852041269E+03  0.00000000000E+00 0. -1.
</event>
<event>
 7    1  0.6145388E-006  0.1058807E+03  0.7561462E-02  0.1268394E+00
         -1   -1    0    0    0  501 -0.00000000000E+00  0.00000000000E+00  0.49534144430E+03  0.49534144430E+03  0.00000000000E+00 0.  1.
          1   -1    0    0  501    0  0.00000000000E+00 -0.00000000000E+00 -0.28403065010E+02  0.28403065010E+02  0.00000000000E+00 0. -1.
         23    2    1    2    0    0  0.19998146715E+02  0.24983432152E+02  0.12382734834E+03  0.15714166055E+03  0.91302746560E+02 0.  0.
          5    1    1    2  502    0 -0.49187457674E+02 -0.54428883462E+02  0.28961747010E+03  0.29879367586E+03  0.41800000000E+01 0. -1.
         -5    1    1    2    0  502  0.29189310959E+02  0.29445451310E+02  0.53493560852E+02  0.67809172903E+02  0.41800000000E+01 0. -1.
        -11    1    3    3    0    0  0.50244856511E+02 -0.90761492612E+01  0.69640356961E+02  0.86352194001E+02  0.00000000000E+00 0.  1.
         11    1    3    3    0    0 -0.30246709796E+02  0.34059581413E+02  0.54186991383E+02  0.70789466552E+02  0.00000000000E+00 0. -1.
</event>
<event>
 7    1  0.6145388E-006  0.1122197E+03  0.7561462E-02  0.1256514E+00
         -2   -1    0    0    0  501 -0.00000000000E+00  0.00000000000E+00  0.49962510760E+02  0.49962510760E+02  0.00000000000E+00 0.  1.
          2   -1    0    0  501    0  0.00000000000E+00 -0.00000000000E+00 -0.39880280409E+03  0.39880280409E+03  0.00000000000E+00 0. -1.
         23    2    1    2    0    0  0.13531563580E+02  0.65727930738E+02 -0.25292068709E+03  0.27746422384E+03  0.92272734115E+02 0.  0.
          5    1    1    2  502    0 -0.57273213516E+02 -0.14536693338E+02 -0.69464022120E+01  0.59642781151E+02  0.41800000000E+01 0.  1.
         -5    1    1    2    0  502  0.43741649937E+02 -0.51191237400E+02 -0.88973204026E+02  0.11165830986E+03  0.41800000000E+01 0.  1.
        -11    1    3    3    0    0  0.37203028555E+02  0.63970865270E+02 -0.10993590093E+03  0.13252259902E+03  0.00000000000E+00 0.  1.
         11    1    3    3    0    0 -0.23671464975E+02  0.17570654680E+01 -0.14298478616E+03  0.14494162482E+03  0.00000000000E+00 0. -1.
</event>
<event>
 7    1  0.6145388E-006  0.1334256E+03  0.7561462E-02  0.1222459E+00
          1   -1    0    0  501    0  0.00000000000E+00  0.00000000000E+00  0.26256557843E+02  0.26256557843E+02  0.00000000000E+00 0. -1.
         -1   -1    0    0    0  501 -0.00000000000E+00 -0.00000000000E+00 -0.85127091227E+03  0.85127091227E+03  0.00000000000E+00 0.  1.
         23    2    1    2    0    0 -0.92169671460E+02 -0.43504049421E+02 -0.36265265472E+03  0.38781996691E+03  0.92192885355E+02 0.  0.
          5    1    1    2  502    0 -0.26509437363E+02 -0.12621673455E+02 -0.73299269805E+02  0.79071564194E+02  0.41800000000E+01 0. -1.
         -5    1    1    2    0  502  0.11867910882E+03  0.56125722876E+02 -0.38906242990E+03  0.41063593900E+03  0.41800000000E+01 0. -1.
        -11    1    3    3    0    0 -0.69405066835E+02 -0.18082773332E+02 -0.33849539309E+03  0.34601037721E+03  0.00000000000E+00 0.  1.
         11    1    3    3    0    0 -0.22764604625E+02 -0.25421276089E+02 -0.24157261624E+02  0.41809589700E+02  0.00000000000E+00 0. -1.
</event>
<event>
 7    1  0.6145388E-006  0.9756794E+02  0.7561462E-02  0.1285495E+00
         -1   -1    0    0    0  501 -0.00000000000E+00  0.00000000000E+00  0.30419120926E+03  0.30419120926E+03  0.00000000000E+00 0.  1.
          1   -1    0    0  501    0  0.00000000000E+00 -0.00000000000E+00 -0.63127605418E+02  0.63127605418E+02  0.00000000000E+00 0. -1.
         23    2    1    2    0    0 -0.32159745384E+02 -0.19930537603E+02  0.22456553183E+02  0.11262720052E+03  0.10367793383E+03 0.  0.
          5    1    1    2  502    0 -0.39133536741E+02  0.24202367405E+02  0.14440810166E+03  0.15161912976E+03  0.41800000000E+01 0. -1.
         -5    1    1    2    0  502  0.71293282125E+02 -0.42718298016E+01  0.74198949001E+02  0.10307248439E+03  0.41800000000E+01 0. -1.
        -11    1    3    3    0    0 -0.32771471951E+02 -0.43138160868E+02 -0.25099958885E+02  0.59706601251E+02  0.00000000000E+00 0. -1.
         11    1    3    3    0    0  0.61172656671E+00  0.23207623265E+02  0.47556512069E+02  0.52920599270E+02  0.00000000000E+00 0.  1.
</event>
<event>
 7    1  0.6145388E-006  0.1257074E+03  0.7561462E-02  0.1233968E+00
         -2   -1    0    0    0  501 -0.00000000000E+00  0.00000000000E+00  0.11963233284E+03  0.11963233284E+03  0.00000000000E+00 0.  1.
          2   -1    0    0  501    0  0.00000000000E+00 -0.00000000000E+00 -0.22503402875E+03  0.22503402875E+03  0.00000000000E+00 0. -1.
         23    2    1    2    0    0 -0.72910610320E+02 -0.29783927422E+02 -0.14779003241E+03  0.19089058053E+03  0.91620306842E+02 0.  0.
          5    1    1    2  502    0 -0.30223048151E+00  0.57368867831E+02  0.48429926788E+02  0.75194471527E+02  0.41800000000E+01 0.  1.
         -5    1    1    2    0  502  0.73212840801E+02 -0.27584940409E+02 -0.60415902850E+01  0.78581309538E+02  0.41800000000E+01 0.  1.
        -11    1    3    3    0    0  0.15602973131E+02 -0.21609828068E+02 -0.61401588026E+02  0.66937227697E+02  0.00000000000E+00 0. -1.
         11    1    3    3    0    0 -0.88513583451E+02 -0.81740993539E+01 -0.86388444380E+02  0.12395335283E+03  0.00000000000E+00 0.  1.
</event>
<event>
 7    1  0.6145388E-006  0.9355251E+02  0.7561462E-02  0.1294470E+00
          1   -1    0    0  501    0  0.00000000000E+00  0.00000000000E+00  0.30738172971E+02  0.30738172971E+02  0.00000000000E+00 0. -1.
         -1   -1    0    0    0  501 -0.00000000000E+00 -0.00000000000E+00 -0.47752978921E+03  0.47752978921E+03  0.00000000000E+00 0.  1.
         23    2    1    2    0    0 -0.43029661388E+02 -0.15964288692E+02 -0.25496714513E+03  0.27470814472E+03  0.91377838708E+02 0.  0.
          5    1    1    2  502    0  0.72789383770E+02 -0.17575829481E+02 -0.16474139732E+03  0.18100940463E+03  0.41800000000E+01 0. -1.
         -5    1    1    2    0  502 -0.29759722382E+02  0.33540118173E+02 -0.27083073786E+02  0.52550412834E+02  0.41800000000E+01 0. -1.
        -11    1    3    3    0    0  0.10931586345E+02 -0.49467584458E+01  0.17714474839E+01  0.12128809724E+02  0.00000000000E+00 0. -1.
         11    1    3    3    0    0 -0.53961247733E+02 -0.11017530247E+02 -0.25673859261E+03  0.26257933499E+03  0.00000000000E+00 0.  1.
</event>
<event>
 7    1  0.6145388E-006  0.1756388E+03  0.7561462E-02  0.1172092E+00
         -2   -1    0    0    0  501 -0.00000000000E+00  0.00000000000E+00  0.45618926487E+03  0.45618926487E+03  0.00000000000E+00 0.  1.
          2   -1    0    0  501    0  0.00000000000E+00 -0.00000000000E+00 -0.95830395262E+02  0.95830395262E+02  0.00000000000E+00 0. -1.
         23    2    1    2    0    0  0.11465914211E+03 -0.11522071611E+03  0.78394134359E+02  0.20334441845E+03  0.93705815832E+02 0.  0.
          5    1    1    2  502    0 -0.13154830235E+03  0.10119252796E+03  0.28090883989E+03  0.32630067774E+03  0.41800000000E+01 0.  1.
         -5    1    1    2    0  502  0.16889160240E+02  0.14028188151E+02  0.10558953597E+01  0.22374563938E+02  0.41800000000E+01 0.  1.
        -11    1    3    3    0    0  0.80532257575E+02 -0.87714927867E+02  0.99051535817E+02  0.15488886283E+03  0.00000000000E+00 0.  1.
         11    1    3    3    0    0  0.34126884539E+02 -0.27505788247E+02 -0.20657401459E+02  0.48455555620E+02  0.00000000000E+00 0. -1.
</event>
<event>
 7    1  0.6145388E-006  0.8985560E+02  0.7561462E-02  0.1303202E+00
          2   -1    0    0  501    0  0.00000000000E+00  0.00000000000E+00  0.47973368367E+02  0.47973368367E+02  0.00000000000E+00 0. -1.
         -2   -1    0    0    0  501 -0.00000000000E+00 -0.00000000000E+00 -0.25551535995E+03  0.25551535995E+03  0.00000000000E+00 0.  1.
         23    2    1    2    0    0  0.22114802645E+02 -0.19892816276E+01 -0.95989996155E+02  0.13441761278E+03  0.91438468520E+02 0.  0.
          5    1    1    2  502    0 -0.41176543615E+02  0.49211716137E+02 -0.25871304963E+02  0.69311597657E+02  0.41800000000E+01 0. -1.
         -5    1    1    2    0  502  0.19061740970E+02 -0.47222434509E+02 -0.85680690464E+02  0.99759517883E+02  0.41800000000E+01 0. -1.
        -11    1    3    3    0    0 -0.17866304783E+02 -0.13854429542E+02 -0.89376777184E+02  0.92191964749E+02  0.00000000000E+00 0.  1.
         11    1    3    3    0    0  0.39981107428E+02  0.11865147914E+02 -0.66132189712E+01  0.42225648028E+02  0.00000000000E+00 0. -1.
</event>
<event>
 7    1  0.6145388E-006  0.1871856E+03  0.7561462E-02  0.1161025E+00
          3   -1    0    0  501    0  0.00000000000E+00  0.00000000000E+00  0.93780770464E+02  0.93780770464E+02  0.00000000000E+00 0. -1.
         -3   -1    0    0    0  501 -0.00000000000E+00 -0.00000000000E+00 -0.45019320948E+03  0.45019320948E+03  0.00000000000E+00 0.  1.
         23    2    1    2    0    0 -0.16670305072E+03  0.37854620525E+02 -0.12159691532E+03  0.22773263780E+03  0.88619778196E+02 0.  0.
          5    1    1    2  502    0  0.14399298822E+03  0.94153685713E+01 -0.21712840981E+03  0.26073904305E+03  0.41800000000E+01 0.  1.
         -5    1    1    2    0  502  0.22710062501E+02 -0.47269989096E+02 -0.17687113879E+02  0.55502299100E+02  0.41800000000E+01 0.  1.
        -11    1    3    3    0    0 -0.15495508102E+03  0.47638874787E+02 -0.13215361872E+03  0.20915333721E+03  0.00000000000E+00 0.  1.
         11    1    3    3    0    0 -0.11747969701E+02 -0.97842542621E+01  0.10556703402E+02  0.18579300586E+02  0.00000000000E+00 0. -1.
</event>
<event>
 7    1  0.6145388E-006  0.9785224E+02  0.7561462E-02  0.1284878E+00
         -3   -1    0    0    0  501 -0.00000000000E+00  0.00000000000E+00  0.78565005825E+03  0.78565005825E+03  0.00000000000E+00 0.  1.
          3   -1    0    0  501    0  0.00000000000E+00 -0.00000000000E+00 -0.16532734613E+02  0.16532734613E+02  0.00000000000E+00 0. -1.
         23    2    1    2    0    0 -0.11964307113E+02  0.93503180270E+01  0.19626822278E+03  0.21705164225E+03  0.91430996047E+02 0.  0.
          5    1    1    2  502    0 -0.44985301620E+02 -0.30405318689E+02  0.19708893131E+03  0.20447415487E+03  0.41800000000E+01 0. -1.
         -5    1    1    2    0  502  0.56949608733E+02  0.21055000662E+02  0.37576016955E+03  0.38065699574E+03  0.41800000000E+01 0.  1.
        -11    1    3    3    0    0 -0.41434945991E+02 -0.12969360517E+02  0.15794414004E+03  0.16380296223E+03  0.00000000000E+00 0. -1.
         11    1    3    3    0    0  0.29470638878E+02  0.22319678544E+02  0.38324082738E+02  0.53248680020E+02  0.00000000000E+00 0.  1.
</event>
<event>
 7    1  0.6145388E-006  0.9739702E+02  0.7561462E-02  0.1285867E+00
         -1   -1    0    0    0  501 -0.00000000000E+00  0.00000000000E+00  0.59523533760E+02  0.59523533760E+02  0.00000000000E+00 0.  1.
          1   -1    0    0  501    0  0.00000000000E+00 -0.00000000000E+00 -0.28246952297E+03  0.28246952297E+03  0.00000000000E+00 0. -1.
         23    2    1    2    0    0  0.57698961497E+02  0.19010690353E+02 -0.13548704298E+03  0.17773796506E+03  0.97690679712E+02 0.  0.
          5    1    1    2  502    0 -0.54740211921E+02 -0.53514700234E+02 -0.75170763742E+01  0.77034361031E+02  0.41800000000E+01 0. -1.
         -5    1    1    2    0  502 -0.29587495768E+01  0.34504009882E+02 -0.79941869858E+02  0.87220730640E+02  0.41800000000E+01 0. -1.
        -11    1    3    3    0    0  0.65237093814E+02  0.27184418182E+01 -0.32014956755E+02  0.72720188333E+02  0.00000000000E+00 0.  1.
         11    1    3    3    0    0 -0.75381323162E+01  0.16292248535E+02 -0.10347208622E+03  0.10501777672E+03  0.00000000000E+00 0. -1.
</event>
<event>
 7    1  0.6145388E-006  0.9693351E+02  0.7561462E-02  0.1286880E+00
          2   -1    0    0  501    0  0.00000000000E+00  0.00000000000E+00  0.87582652788E+02  0.87582652788E+02  0.00000000000E+00 0. -1.
         -2   -1    0    0    0  501 -0.00000000000E+00 -0.00000000000E+00 -0.14741298402E+03  0.14741298402E+03  0.00000000000E+00 0.  1.
         23    2    1    2    0    0 -0.96972161682E+01  0.32558218392E+02 -0.16919394747E+02  0.98450700298E+02  0.90841625284E+02 0.  0.
          5    1    1    2  502    0 -0.54217974929E+02 -0.34504228803E+02 -0.30557899481E+02  0.71283856738E+02  0.41800000000E+01 0.  1.
         -5    1    1    2    0  502  0.63915191097E+02  0.19460104112E+01 -0.12353037003E+02  0.65261079770E+02  0.41800000000E+01 0.  1.
        -11    1    3    3    0    0  0.20618538857E+02  0.27931092026E+02 -0.45023363892E+02  0.56853965055E+02  0.00000000000E+00 0.  1.
         11    1    3    3    0    0 -0.30315755025E+02  0.46271263658E+01  0.28103969145E+02  0.41596735243E+02  0.00000000000E+00 0. -1.
</event>
<event>
 7    1  0.6145388E-006  0.1286405E+03  0.7561462E-02  0.1229487E+00
          1   -1    0    0  501    0  0.00000000000E+00  0.00000000000E+00  0.78010669565E+03  0.78010669565E+03  0.00000000000E+00 0. -1.
         -1   -1    0    0    0  501 -0.00000000000E+00 -0.00000000000E+00 -0.30007013391E+02  0.30007013391E+02  0.00000000000E+00 0.  1.
         23    2    1    2    0    0 -0.15857079496E+02 -0.10098873109E+03  0.38083616561E+03  0.40705909497E+03  0.10104826067E+03 0.  0.
          5    1    1    2  502    0 -0.14531593712E+02  0.10723601262E+03  0.34982826421E+03  0.36620761388E+03  0.41800000000E+01 0.  1.
         -5    1    1    2    0  502  0.30388673207E+02 -0.62472815347E+01  0.19435252436E+02  0.36847000192E+02  0.41800000000E+01 0.  1.
        -11    1    3    3    0    0 -0.31789098549E+02 -0.26146877031E+02  0.38790407001E+02  0.56558833442E+02  0.00000000000E+00 0.  1.
         11    1    3    3    0    0  0.15932019053E+02 -0.74841854059E+02  0.34204575861E+03  0.35050026153E+03  0.00000000000E+00 0. -1.
</event>
<event>
 7    1  0.6145388E-006  0.2231183E+03  0.7561462E-02  0.1131579E+00
          2   -1    0    0  501    0  0.00000000000E+00  0.00000000000E+00  0.59268594461E+03  0.59268594461E+03  0.00000000000E+00 0. -1.
         -2   -1    0    0    0  501 -0.00000000000E+00 -0.00000000000E+00 -0.10595542300E+03  0.10595542300E+03  0.00000000000E+00 0.  1.
         23    2    1    2    0    0  0.18835587005E+03  0.11700751640E+03  0.18155275529E+03  0.30121271013E+03  0.92730799172E+02 0.  0.
          5    1    1    2  502    0 -0.15444459728E+02 -0.60538421039E+01 -0.11002013925E+02  0.20339544019E+02  0.41800000000E+01 0.  1.
         -5    1    1    2    0  502 -0.17291141032E+03 -0.11095367429E+03  0.31617978024E+03  0.37708911346E+03  0.41800000000E+01 0.  1.
        -11    1    3    3    0    0  0.78719168543E+02  0.32290083045E+02  0.18192489325E+02  0.87007606719E+02  0.00000000000E+00 0. -1.
         11    1    3    3    0    0  0.10963670151E+03  0.84717433350E+02  0.16336026597E+03  0.21420510341E+03  0.00000000000E+00 0.  1.
</event>
<event>
 7    1  0.6145388E-006  0.1480021E+03  0.7561462E-02  0.1202950E+00
         -1   -1    0    0    0  501 -0.00000000000E+00  0.00000000000E+00  0.47176589340E+02  0.47176589340E+02  0.00000000000E+00 0.  1.
          1   -1    0    0  501    0  0.00000000000E+00 -0.00000000000E+00 -0.64042812857E+03  0.64042812857E+03  0.00000000000E+00 0. -1.
         23    2    1    2    0    0 -0.96276898755E+02  0.88996969951E+02 -0.34956886069E+03  0.38392996727E+03  0.89521670634E+02 0.  0.
          5    1    1    2  502    0  0.35033620154E+02 -0.59679059936E+02 -0.22153966769E+03  0.23213410239E+03  0.41800000000E+01 0. -1.
         -5    1    1    2    0  502  0.61243278601E+02 -0.29317910015E+02 -0.22143010860E+02  0.71540648246E+02  0.41800000000E+01 0. -1.
        -11    1    3    3    0    0 -0.14141150584E+02  0.73769742494E+02 -0.15841805611E+03  0.17532320882E+03  0.00000000000E+00 0.  1.
         11    1    3    3    0    0 -0.82135748171E+02  0.15227227457E+02 -0.19115080457E+03  0.20860675845E+03  0.00000000000E+00 0. -1.
</event>
<event>
 7    1  0.6145388E-006  0.1054903E+03  0.7561462E-02  0.1269157E+00
          2   -1    0    0  501    0  0.00000000000E+00  0.00000000000E+00  0.77330298532E+03  0.77330298532E+03  0.00000000000E+00 0. -1.
         -2   -1    0    0    0  501 -0.00000000000E+00 -0.00000000000E+00 -0.16462460994E+02  0.16462460994E+02  0.00000000000E+00 0.  1.
         23    2    1    2    0    0 -0.17977896160E+02 -0.43837669227E+01  0.40818780538E+03  0.41888908847E+03  0.92240781747E+02 0.  0.
          5    1    1    2  502    0  0.67941132106E+02  0.48007619017E+01  0.26221874762E+03  0.27095237358E+03  0.41800000000E+01 0. -1.
         -5    1    1    2    0  502 -0.49963235946E+02 -0.41699497902E+00  0.86433971327E+02  0.99923984260E+02  0.41800000000E+01 0. -1.
        -11    1    3    3    0    0  0.32968872099E+02 -0.20911884101E+02  0.20960497631E+03  0.21320998925E+03  0.00000000000E+00 0.  1.
         11    1    3    3    0    0 -0.50946768258E+02  0.16528117179E+02  0.19858282907E+03  0.20567909922E+03  0.00000000000E+00 0. -1.
</event>
<event>
 7    1  0.6145388E-006  0.1487141E+03  0.7561462E-02  0.1202062E+00
          1   -1    0    0  501    0  0.00000000000E+00  0.00000000000E+00  0.12859023610E+03  0.12859023610E+03  0.00000000000E+00 0. -1.
         -1   -1    0    0    0  501 -0.00000000000E+00 -0.00000000000E+00 -0.38643272066E+03  0.38643272066E+03  0.00000000000E+00 0.  1.
         23    2    1    2    0    0  0.44504574479E+02  0.92160571053E+02  0.65338832336E+02  0.15368130253E+03  0.94204839203E+02 0.  0.
          5    1    1    2  502    0 -0.74711045330E+02 -0.10197826661E+03 -0.22563575519E+03  0.25867020233E+03  0.41800000000E+01 0. -1.
         -5    1    1    2    0  502  0.30206470852E+02  0.98176955555E+01 -0.97545561705E+02  0.10267145190E+03  0.41800000000E+01 0. -1.
        -11    1    3    3    0    0 -0.26765134677E+02  0.48303714961E+02  0.22025580799E+02  0.59453742715E+02  0.00000000000E+00 0. -1.
         11    1    3    3    0    0  0.71269709156E+02  0.43856856092E+02  0.43313251537E+02  0.94227559812E+02  0.00000000000E+00 0.  1.
</event>
<event>
 7    1  0.6145388E-006  0.8212750E+02  0.7561462E-02  0.1323120E+00
          1   -1    0    0  501    0  0.00000000000E+00  0.00000000000E+00  0.57589944535E+02  0.57589944535E+02  0.00000000000E+00 0. -1.
         -1   -1    0    0    0  501 -0.00000000000E+00 -0.00000000000E+00 -0.21428784683E+03  0.21428784683E+03  0.00000000000E+00 0.  1.
         23    2    1    2    0    0 -0.17967833039E+02  0.17965216052E+02 -0.42389293173E+02  0.10054242217E+03  0.87557606569E+02 0.  0.
          5    1    1    2  502    0 -0.12585048147E+02  0.50234184941E+02 -0.37388220904E+02  0.64009438647E+02  0.41800000000E+01 0.  1.
         -5    1    1    2    0  502  0.30552881186E+02 -0.68199400993E+02 -0.76920388220E+02  0.10732593055E+03  0.41800000000E+01 0.  1.
        -11    1    3    3    0    0 -0.20010046903E+02  0.65326750613E+00 -0.67256897197E+02  0.70173491833E+02  0.00000000000E+00 0.  1.
         11    1    3    3    0    0  0.20422138640E+01  0.17311948545E+02  0.24867604024E+02  0.30368930336E+02  0.00000000000E+00 0. -1.
</event>
<event>
 7    1  0.6145388E-006  0.1286659E+03  0.7561462E-02  0.1229449E+00
          1   -1    0    0  501    0  0.00000000000E+00  0.00000000000E+00  0.27425008712E+03  0.27425008712E+03  0.00000000000E+00 0. -1.
         -1   -1    0    0    0  501 -0.00000000000E+00 -0.00000000000E+00 -0.85919923483E+02  0.85919923483E+02  0.00000000000E+00 0.  1.
         23    2    1    2    0    0 -0.33675927962E+02 -0.75921930436E+02  0.99386523268E+02  0.15871231649E+03  0.91726281697E+02 0.  0.
          5    1    1    2  502    0  0.77637795482E+02  0.24136811336E+02  0.10368038484E+03  0.13182301601E+03  0.41800000000E+01 0. -1.
         -5    1    1    2    0  502 -0.43961867520E+02  0.51785119101E+02 -0.14736744475E+02  0.69634678098E+02  0.41800000000E+01 0.  1.
        -11    1    3    3    0    0  0.13575031291E+02  0.47419187174E+01  0.51906959761E+02  0.53861857927E+02  0.00000000000E+00 0.  1.
         11    1    3    3    0    0 -0.47250959254E+02 -0.80663849154E+02  0.47479563507E+02  0.10485045857E+03  0.00000000000E+00 0. -1.
</event>
<event>
 7    1  0.6145388E-006  0.5942969E+03  0.7561462E-02  0.9917309E-01
         -1   -1    0    0    0  501 -0.00000000000E+00  0.00000000000E+00  0.75687321104E+03  0.75687321104E+03  0.00000000000E+00 0.  1.
          1   -1    0    0  501    0  0.00000000000E+00 -0.00000000000E+00 -0.63086251859E+03  0.63086251859E+03  0.00000000000E+00 0. -1.
         23    2    1    2    0    0 -0.55623883381E+03  0.20391778633E+03 -0.27660419713E+03  0.66059759338E+03  0.94314339787E+02 0.  0.
          5    1    1    2  502    0  0.29114118985E+03 -0.11220044670E+03  0.13697088739E+03  0.34077944342E+03  0.41800000000E+01 0. -1.
         -5    1    1    2    0  502  0.26509764396E+03 -0.91717339625E+02  0.26564400219E+03  0.38635869283E+03  0.41800000000E+01 0. -1.
        -11    1    3    3    0    0 -0.70158974264E+02  0.49952425109E+02 -0.14650344884E+02  0.87362228962E+02  0.00000000000E+00 0.  1.
         11    1    3    3    0    0 -0.48607985954E+03  0.15396536122E+03 -0.26195385225E+03  0.57323536442E+03  0.00000000000E+00 0. -1.
</event>
<event>
 7    1  0.6145388E-006  0.2702561E+03  0.7561462E-02  0.1101133E+00
          1   -1    0    0  501    0  0.00000000000E+00  0.00000000000E+00  0.74859581798E+02  0.74859581798E+02  0.00000000000E+00 0. -1.
         -1   -1    0    0    0  501 -0.00000000000E+00 -0.00000000000E+00 -0.10310986239E+04  0.10310986239E+04  0.00000000000E+00 0.  1.
         23    2    1    2    0    0  0.68546512447E+02  0.24241899880E+03 -0.36736142036E+03  0.45335593914E+03  0.84330297248E+02 0.  0.
          5    1    1    2  502    0  0.22907734114E+02 -0.12741397530E+03 -0.21685525297E+03  0.25259207930E+03  0.41800000000E+01 0.  1.
         -5    1    1    2    0  502 -0.91454246561E+02 -0.11500502350E+03 -0.37202236875E+03  0.40001018724E+03  0.41800000000E+01 0.  1.
        -11    1    3    3    0    0 -0.13570029510E+02  0.88542974755E+02 -0.10133773468E+03  0.13525287631E+03  0.00000000000E+00 0.  1.
         11    1    3    3    0    0  0.82116541957E+02  0.15387602405E+03 -0.26602368568E+03  0.31810306283E+03  0.00000000000E+00 0. -1.
</event>
<event>
 7    1  0.6145388E-006  0.1879979E+03  0.7561462E-02  0.1160280E+00
          2   -1    0    0  501    0  0.00000000000E+00  0.00000000000E+00  0.88986634751E+03  0.88986634751E+03  0.00000000000E+00 0. -1.
         -2   -1    0    0    0  501 -0.00000000000E+00 -0.00000000000E+00 -0.39852790842E+02  0.39852790842E+02  0.00000000000E+00 0.  1.
         23    2    1    2    0    0  0.14396886584E+03 -0.57326331709E+02  0.41651551399E+03  0.45266395454E+03  0.86058931559E+02 0.  0.
          5    1    1    2  502    0 -0.16647209080E+03  0.43387430966E+02  0.38312720790E+03  0.41999923335E+03  0.41800000000E+01 0.  1.
         -5    1    1    2    0  502  0.22503224957E+02  0.13938900744E+02  0.50370834780E+02  0.57055950468E+02  0.41800000000E+01 0.  1.
        -11    1    3    3    0    0  0.51701133379E+02  0.21272421628E+02  0.14002411608E+03  0.15077226601E+03  0.00000000000E+00 0.  1.
         11    1    3    3    0    0  0.92267732465E+02 -0.78598753338E+02  0.27649139791E+03  0.30189168852E+03  0.00000000000E+00 0. -1.
</event>
<event>
 7    1  0.6145388E-006  0.1103739E+03  0.7561462E-02  0.1259879E+00
          1   -1    0    0  501    0  0.00000000000E+00  0.00000000000E+00  0.63972425695E+02  0.63972425695E+02  0.00000000000E+00 0. -1.
         -1   -1    0    0    0  501 -0.00000000000E+00 -0.00000000000E+00 -0.23976448597E+03  0.23976448597E+03  0.00000000000E+00 0.  1.
         23    2    1    2    0    0 -0.53895299574E+02  0.19850834087E+02 -0.57478560038E+02  0.12222507184E+03  0.91304021779E+02 0.  0.
          5    1    1    2  502    0  0.36021529050E+02  0.41607182041E+02 -0.10679787022E+02  0.56215997753E+02  0.41800000000E+01 0. -1.
         -5    1    1    2    0  502  0.17873770524E+02 -0.61458016129E+02 -0.10763371322E+03  0.12529584207E+03  0.41800000000E+01 0. -1.
        -11    1    3    3    0    0 -0.76482134787E+02  0.11541508522E+02 -0.23984917422E+02  0.80981477044E+02  0.00000000000E+00 0. -1.
         11    1    3    3    0    0  0.22586835213E+02  0.83093255652E+01 -0.33493642617E+02  0.41243594800E+02  0.00000000000E+00 0.  1.
</event>
<event>
 7    1  0.6145388E-006  0.1136100E+03  0.7561462E-02  0.1254027E+00
          2   -1    0    0  501    0  0.00000000000E+00  0.00000000000E+00  0.24780650134E+03  0.24780650134E+03  0.00000000000E+00 0. -1.
         -2   -1    0    0    0  501 -0.00000000000E+00 -0.00000000000E+00 -0.99160776816E+02  0.99160776816E+02  0.00000000000E+00 0.  1.
         23    2    1    2    0    0  0.67825054050E+02 -0.75171739080E+02  0.12404466121E+03  0.18416686496E+03  0.90990811948E+02 0.  0.
          5    1    1    2  502    0 -0.75262102881E+02  0.82078509189E+02 -0.23137644141E+02  0.11381603040E+03  0.41800000000E+01 0.  1.
         -5    1    1    2    0  502  0.74370488305E+01 -0.69067701096E+01  0.47738707454E+02  0.48984382797E+02  0.41800000000E+01 0.  1.
        -11    1    3    3    0    0  0.95742627919E+01 -0.28798632595E+02  0.10214409971E+03  0.10655723745E+03  0.00000000000E+00 0. -1.
         11    1    3    3    0    0  0.58250791258E+02 -0.46373106485E+02  0.21900561501E+02  0.77609627504E+02  0.00000000000E+00 0.  1.
</event>
<event>
 7    1  0.6145388E-006  0.1034456E+03  0.7561462E-02  0.1273213E+00
         -1   -1    0    0    0  501 -0.00000000000E+00  0.00000000000E+00  0.19378035606E+03  0.19378035606E+03  0.00000000000E+00 0.  1.
          1   -1    0    0  501    0  0.00000000000E+00 -0.00000000000E+00 -0.12401822519E+03  0.12401822519E+03  0.00000000000E+00 0. -1.
         23    2    1    2    0    0  0.30043293944E+02  0.29429814422E+02 -0.72440227638E+02  0.12379367056E+03  0.91151373017E+02 0.  0.
          5    1    1    2  502    0  0.32121383212E+02 -0.39024882880E+02  0.16418498467E+02  0.53308200450E+02  0.41800000000E+01 0. -1.
         -5    1    1    2    0  502 -0.62164677156E+02  0.95950684585E+01  0.12578386004E+03  0.14069671024E+03  0.41800000000E+01 0. -1.
        -11    1    3    3    0    0 -0.29038689904E+02  0.64860777050E+01 -0.32011120176E+01  0.29925939142E+02  0.00000000000E+00 0.  1.
         11    1    3    3    0    0  0.59081983848E+02  0.22943736717E+02 -0.69239115621E+02  0.93867731420E+02  0.00000000000E+00 0. -1.
</event>
<event>
 7    1  0.6145388E-006  0.1140420E+03  0.7561462E-02  0.1253263E+00
          2   -1    0    0  501    0  0.00000000000E+00  0.00000000000E+00  0.21182904559E+02  0.21182904559E+02  0.00000000000E+00 0. -1.
         -2   -1    0    0    0  501 -0.00000000000E+00 -0.00000000000E+00 -0.76898415759E+03  0.76898415759E+03  0.00000000000E+00 0.  1.
         23    2    1    2    0    0  0.51468693920E+02  0.29835245158E+02 -0.24002743706E+03  0.26383873504E+03  0.91970317263E+02 0.  0.
          5    1    1    2  502    0 -0.52871825444E+02 -0.66651811832E+02 -0.21568261773E+03  0.23189298811E+03  0.41800000000E+01 0. -1.
         -5    1    1    2    0  502  0.14031315236E+01  0.36816566674E+02 -0.29209119824E+03  0.29443533900E+03  0.41800000000E+01 0. -1.
        -11    1    3    3    0    0  0.56391207729E+02 -0.16871036939E+02 -0.16644011385E+03  0.17654152966E+03  0.00000000000E+00 0.  1.
         11    1    3    3    0    0 -0.49225138088E+01  0.46706282097E+02 -0.73587323212E+02  0.87297205379E+02  0.00000000000E+00 0. -1.
</event>
<event>
 7    1  0.6145388E-006  0.1400164E+03  0.7561462E-02  0.1213307E+00
          3   -1    0    0  501    0  0.00000000000E+00  0.00000000000E+00  0.71825075709E+02  0.71825075709E+02  0.00000000000E+00 0.  1.
         -3   -1    0    0    0  501 -0.00000000000E+00 -0.00000000000E+00 -0.33134857255E+03  0.33134857255E+03  0.00000000000E+00 0. -1.
         23    2    1    2    0    0  0.91493106944E+02 -0.58088014598E+02 -0.10532812666E+03  0.17696720455E+03  0.92076984967E+02 0.  0.
          5    1    1    2  502    0  0.18727507208E+02 -0.42908106569E+01 -0.73248667059E+02  0.75841744496E+02  0.41800000000E+01 0. -1.
         -5    1    1    2    0  502 -0.11022061415E+03  0.62378825255E+02 -0.80946703119E+02  0.15036469921E+03  0.41800000000E+01 0. -1.
        -11    1    3    3    0    0  0.12873909947E+02 -0.53361540369E+02 -0.14558178195E+02  0.56790246524E+02  0.00000000000E+00 0.  1.
         11    1    3    3    0    0  0.78619196996E+02 -0.47264742296E+01 -0.90769948466E+02  0.12017695802E+03  0.00000000000E+00 0. -1.
</event>
<event>
 7    1  0.6145388E-006  0.2825776E+03  0.7561462E-02  0.1094289E+00
         -1   -1    0    0    0  501 -0.00000000000E+00  0.00000000000E+00  0.12951661990E+03  0.12951661990E+03  0.00000000000E+00 0.  1.
          1   -1    0    0  501    0  0.00000000000E+00 -0.00000000000E+00 -0.73770009818E+03  0.73770009818E+03  0.00000000000E+00 0. -1.
         23    2    1    2    0    0  0.23346136070E+03  0.14364433924E+03 -0.16949008800E+03  0.33501666487E+03  0.91495205755E+02 0.  0.
          5    1    1    2  502    0 -0.15437415289E+03 -0.14019434687E+03 -0.23824095046E+03  0.31664184318E+03  0.41800000000E+01 0. -1.
         -5    1    1    2    0  502 -0.79087207811E+02 -0.34499923678E+01 -0.20045243981E+03  0.21555821004E+03  0.41800000000E+01 0. -1.
        -11    1    3    3    0    0  0.16712496210E+03  0.12406838702E+03 -0.82537822849E+02  0.22391116501E+03  0.00000000000E+00 0. -1.
         11    1    3    3    0    0  0.66336398602E+02  0.19575952212E+02 -0.86952265153E+02  0.11110549986E+03  0.00000000000E+00 0.  1.
</event>
<event>
 7    1  0.6145388E-006  0.1190447E+03  0.7561462E-02  0.1244681E+00
         -1   -1    0    0    0  501 -0.00000000000E+00  0.00000000000E+00  0.16676887778E+02  0.16676887778E+02  0.00000000000E+00 0.  1.
          1   -1    0    0  501    0  0.00000000000E+00 -0.00000000000E+00 -0.91403949911E+03  0.91403949911E+03  0.00000000000E+00 0. -1.
         23    2    1    2    0    0 -0.53891698614E+02  0.12580111922E+02 -0.39049249389E+03  0.40571351182E+03  0.95165600364E+02 0.  0.
          5    1    1    2  502    0 -0.27832276669E+02  0.32795195175E+02 -0.16137200688E+03  0.16705854500E+03  0.41800000000E+01 0.  1.
         -5    1    1    2    0  502  0.81723975283E+02 -0.45375307097E+02 -0.34549811057E+03  0.35794433008E+03  0.41800000000E+01 0.  1.
        -11    1    3    3    0    0 -0.72376454129E+02 -0.89496535797E+01 -0.34056304890E+03  0.34828384644E+03  0.00000000000E+00 0. -1.
         11    1    3    3    0    0  0.18484755515E+02  0.21529765502E+02 -0.49929444981E+02  0.57429665376E+02  0.00000000000E+00 0.  1.
</event>
<event>
 7    1  0.6145388E-006  0.9190164E+02  0.7561462E-02  0.1298311E+00
         -4   -1    0    0    0  501 -0.00000000000E+00  0.00000000000E+00  0.36702420140E+02  0.36702420140E+02  0.00000000000E+00 0. -1.
          4   -1    0    0  501    0  0.00000000000E+00 -0.00000000000E+00 -0.40215472321E+03  0.40215472321E+03  0.00000000000E+00 0.  1.
         23    2    1    2    0    0  0.54111774823E+02  0.17978921906E+02 -0.18939559105E+03  0.21548275651E+03  0.85503231723E+02 0.  0.
          5    1    1    2  502    0  0.19778397691E+02 -0.28864043512E+02 -0.36362343850E+01  0.35426157336E+02  0.41800000000E+01 0.  1.
         -5    1    1    2    0  502 -0.73890172515E+02  0.10885121606E+02 -0.17242047764E+03  0.18794822951E+03  0.41800000000E+01 0.  1.
        -11    1    3    3    0    0  0.27223589021E+02 -0.15100225663E+02 -0.12539349112E+02  0.33561523958E+02  0.00000000000E+00 0. -1.
         11    1    3    3    0    0  0.26888185803E+02  0.33079147568E+02 -0.17685624194E+03  0.18192123255E+03  0.00000000000E+00 0.  1.
</event>
<event>
 7    1  0.6145388E-006  0.1123156E+03  0.7561462E-02  0.1256341E+00
         -1   -1    0    0    0  501 -0.00000000000E+00  0.00000000000E+00  0.24032040887E+03  0.24032040887E+03  0.00000000000E+00 0. -1.
          1   -1    0    0  501    0  0.00000000000E+00 -0.00000000000E+00 -0.13065115673E+03  0.13065115673E+03  0.00000000000E+00 0.  1.
         23    2    1    2    0    0  0.26864166312E+02  0.36746713300E+02 -0.87781820330E+02  0.13283589138E+03  0.88700178618E+02 0.  0.
          5    1    1    2  502    0 -0.71619694728E+02 -0.42732945749E+00  0.13610990092E+03  0.15386013393E+03  0.41800000000E+01 0. -1.
         -5    1    1    2    0  502  0.44755528416E+02 -0.36319383843E+02  0.61341171544E+02  0.84275540300E+02  0.41800000000E+01 0. -1.
        -11    1    3    3    0    0  0.56230109243E+02  0.33748126693E+02 -0.40443762084E+02  0.77048420699E+02  0.00000000000E+00 0.  1.
         11    1    3    3    0    0 -0.29365942931E+02  0.29985866077E+01 -0.47338058246E+02  0.55787470676E+02  0.00000000000E+00 0. -1.
</event>
<event>
 7    1  0.6145388E-006  0.9135952E+02  0.7561462E-02  0.1299592E+00
          2   -1    0    0  501    0  0.00000000000E+00  0.00000000000E+00  0.27306157861E+03  0.27306157861E+03  0.00000000000E+00 0. -1.
         -2   -1    0    0    0  501 -0.00000000000E+00 -0.00000000000E+00 -0.85856355996E+02  0.85856355996E+02  0.00000000000E+00 0.  1.
         23    2    1    2    0    0 -0.24438925502E+02  0.11576466833E+02  0.82165157918E+02  0.12572983745E+03  0.91244743327E+02 0.  0.
          5    1    1    2  502    0 -0.33732625588E+00  0.45738561677E+02  0.14951663911E+03  0.15641236391E+03  0.41800000000E+01 0. -1.
         -5    1    1    2    0  502  0.24776251758E+02 -0.57315028510E+02 -0.44476574414E+02  0.76775733249E+02  0.41800000000E+01 0.  1.
        -11    1    3    3    0    0 -0.90467262624E+01 -0.29228416591E+02 -0.22870038106E+01  0.30681818376E+02  0.00000000000E+00 0. -1.
         11    1    3    3    0    0 -0.15392199240E+02  0.40804883424E+02  0.84452161728E+02  0.95048019071E+02  0.00000000000E+00 0.  1.
</event>
<event>
 7    1  0.6145388E-006  0.9938766E+02  0.7561462E-02  0.1281589E+00
          2   -1    0    0  501    0  0.00000000000E+00  0.00000000000E+00  0.27749575790E+03  0.27749575790E+03  0.00000000000E+00 0. -1.
         -2   -1    0    0    0  501 -0.00000000000E+00 -0.00000000000E+00 -0.49683260829E+02  0.49683260829E+02  0.00000000000E+00 0.  1.
         23    2    1    2    0    0  0.44341929933E+01 -0.42952298109E+02  0.11392037453E+03  0.15258468930E+03  0.91867696691E+02 0.  0.
          5    1    1    2  502    0  0.12364894856E+02 -0.33150731208E+02  0.83599298698E+02  0.90874510987E+02  0.41800000000E+01 0. -1.
         -5    1    1    2    0  502 -0.16799087850E+02  0.76103029316E+02  0.30292823845E+02  0.83719818444E+02  0.41800000000E+01 0. -1.
        -11    1    3    3    0    0  0.73644621954E+01  0.20395800671E+02 -0.58375594926E+00  0.21692504684E+02  0.00000000000E+00 0.  1.
         11    1    3    3    0    0 -0.29302692020E+01 -0.63348098780E+02  0.11450413048E+03  0.13089218462E+03  0.00000000000E+00 0. -1.
</event>
<event>
 7    1  0.6145388E-006  0.9695058E+02  0.7561462E-02  0.1286842E+00
          2   -1    0    0  501    0  0.00000000000E+00  0.00000000000E+00  0.54506552968E+03  0.54506552968E+03  0.00000000000E+00 0. -1.
         -2   -1    0    0    0  501 -0.00000000000E+00 -0.00000000000E+00 -0.26938224251E+02  0.26938224251E+02  0.00000000000E+00 0.  1.
         23    2    1    2    0    0  0.13508516984E+02  0.10541659143E+01  0.34371764889E+03  0.35694212694E+03  0.95300936668E+02 0.  0.
          5    1    1    2  502    0 -0.45188792401E+02 -0.36418660114E+02  0.35405402873E+02  0.68112852794E+02  0.41800000000E+01 0. -1.
         -5    1    1    2    0  502  0.31680275417E+02  0.35364494200E+02  0.13900425366E+03  0.14694877419E+03  0.41800000000E+01 0. -1.
        -11    1    3    3    0    0  0.34225709790E+02  0.34571236275E+02  0.25874050650E+03  0.26327403840E+03  0.00000000000E+00 0. -1.
         11    1    3    3    0    0 -0.20717192806E+02 -0.33517070361E+02  0.84977142391E+02  0.93668088548E+02  0.00000000000E+00 0.  1.
</event>
<event>
 7    1  0.6145388E-006  0.1354303E+03  0.7561462E-02  0.1219613E+00
          1   -1    0    0  501    0  0.00000000000E+00  0.00000000000E+00  0.11186985803E+03  0.11186985803E+03  0.00000000000E+00 0. -1.
         -1   -1    0    0    0  501 -0.00000000000E+00 -0.00000000000E+00 -0.27737427265E+03  0.27737427265E+03  0.00000000000E+00 0.  1.
         23    2    1    2    0    0  0.12131022791E+03 -0.16973911366E+02  0.12343869208E+01  0.14747092660E+03  0.82108863209E+02 0.  0.
          5    1    1    2  502    0 -0.43221378915E+02  0.21856581973E+00 -0.15496703459E+03  0.16093597975E+03  0.41800000000E+01 0.  1.
         -5    1    1    2    0  502 -0.78088848995E+02  0.16755345546E+02 -0.11771766941E+02  0.80837224338E+02  0.41800000000E+01 0.  1.
        -11    1    3    3    0    0  0.11185717455E+03  0.16148308764E+02  0.47481677293E+00  0.11301778986E+03  0.00000000000E+00 0.  1.
         11    1    3    3    0    0  0.94530533619E+01 -0.33122220130E+02  0.75957014783E+00  0.34453136737E+02  0.00000000000E+00 0. -1.
</event>
<event>
 7    1  0.6145388E-006  0.1706889E+03  0.7561462E-02  0.1177131E+00
         -2   -1    0    0    0  501 -0.00000000000E+00  0.00000000000E+00  0.41584096065E+02  0.41584096065E+02  0.00000000000E+00 0.  1.
          2   -1    0    0  501    0  0.00000000000E+00 -0.00000000000E+00 -0.83175275903E+03  0.83175275903E+03  0.00000000000E+00 0. -1.
         23    2    1    2    0    0  0.41550861305E+02  0.14563594377E+03 -0.36605408072E+03  0.40594197787E+03  0.88639704376E+02 0.  0.
          5    1    1    2  502    0 -0.16615541504E+02 -0.14224520602E+03 -0.41697806186E+03  0.44090583045E+03  0.41800000000E+01 0. -1.
         -5    1    1    2    0  502 -0.24935319801E+02 -0.33907377521E+01 -0.71365203931E+01  0.26489046782E+02  0.41800000000E+01 0. -1.
        -11    1    3    3    0    0 -0.25411174026E+02  0.45908889394E+02 -0.14745007856E+03  0.15650840092E+03  0.00000000000E+00 0.  1.
         11    1    3    3    0    0  0.66962035331E+02  0.99727054374E+02 -0.21860400216E+03  0.24943357695E+03  0.00000000000E+00 0. -1.
</event>
<event>
 6    1  0.6145388E-006  0.8597741E+02  0.7561462E-02  0.1312896E+00
          1   -1    0    0  501    0  0.00000000000E+00  0.00000000000E+00  0.22397039639E+02  0.22397039639E+02  0.00000000000E+00 0. -1.
         -1   -1    0    0    0  501 -0.00000000000E+00 -0.00000000000E+00 -0.84819584689E+03  0.84819584689E+03  0.00000000000E+00 0.  1.
          5    1    1    2  502    0  0.24855439204E+01 -0.17858497879E+02 -0.17687908869E+01  0.18593141109E+02  0.41800000000E+01 0.  1.
         -5    1    1    2    0  502 -0.23165762858E+02  0.25357753944E+02 -0.43206746343E+03  0.43345061265E+03  0.41800000000E+01 0.  1.
        -11    1    1    2    0    0  0.69384010714E+02 -0.98822211934E+01 -0.97492644372E+02  0.12006920898E+03  0.00000000000E+00 0. -1.
         11    1    1    2    0    0 -0.48703791777E+02  0.23829651287E+01 -0.29446990856E+03  0.29847992379E+03  0.00000000000E+00 0.  1.
</event>
<event>
 7    1  0.6145388E-006  0.9137533E+02  0.7561462E-02  0.1299555E+00
         -1   -1    0    0    0  501 -0.00000000000E+00  0.00000000000E+00  0.76409588552E+03  0.76409588552E+03  0.00000000000E+00 0.  1.
          1   -1    0    0  501    0  0.00000000000E+00 -0.00000000000E+00 -0.18379097028E+02  0.18379097028E+02  0.00000000000E+00 0. -1.
         23    2    1    2    0    0  0.11735227116E+02 -0.30998265211E+02  0.20733941234E+03  0.22877445566E+03  0.90826822303E+02 0.  0.
          5    1    1    2  502    0  0.41125348431E+02 -0.27834753001E+02  0.18919976943E+03  0.19565299106E+03  0.41800000000E+01 0.  1.
         -5    1    1    2    0  502 -0.52860575547E+02  0.58833018212E+02  0.34917760671E+03  0.35804753582E+03  0.41800000000E+01 0.  1.
        -11    1    3    3    0    0  0.13876005133E+02 -0.41104032504E+02  0.21273964926E+03  0.21711804018E+03  0.00000000000E+00 0.  1.
         11    1    3    3    0    0 -0.21407780163E+01  0.10105767293E+02 -0.54002369126E+01  0.11656415478E+02  0.00000000000E+00 0. -1.
</event>
<event>
 7    1  0.6145388E-006  0.1454403E+03  0.7561462E-02  0.1206191E+00
         -2   -1    0    0    0  501 -0.00000000000E+00  0.00000000000E+00  0.72156967045E+02  0.72156967045E+02  0.00000000000E+00 0. -1.
          2   -1    0    0  501    0  0.00000000000E+00 -0.00000000000E+00 -0.36724942052E+03  0.36724942052E+03  0.00000000000E+00 0.  1.
         23    2    1    2    0    0  0.64627649265E+02  0.10025254060E+03 -0.16679587002E+03  0.22415259045E+03  0.90532958642E+02 0.  0.
          5    1    1    2  502    0 -0.92034345189E+02 -0.48012373779E+02 -0.11434051792E+03  0.15448862472E+03  0.41800000000E+01 0.  1.
         -5    1    1    2    0  502  0.27406695924E+02 -0.52240166824E+02 -0.13956065530E+02  0.60765172396E+02  0.41800000000E+01 0.  1.
        -11    1    3    3    0    0  0.47669284136E+02  0.31737918340E+02 -0.18949061367E+02  0.60321828862E+02  0.00000000000E+00 0. -1.
         11    1    3    3    0    0  0.16958365130E+02  0.68514622263E+02 -0.14784680866E+03  0.16383076159E+03  0.00000000000E+00 0.  1.
</event>
<event>
 7    1  0.6145388E-006  0.8813157E+02  0.7561462E-02  0.1307440E+00
         -1   -1    0    0    0  501 -0.00000000000E+00  0.00000000000E+00  0.21108381327E+03  0.21108381327E+03  0.00000000000E+00 0.  1.
          1   -1    0    0  501    0  0.00000000000E+00 -0.00000000000E+00 -0.62359283826E+02  0.62359283826E+02  0.00000000000E+00 0. -1.
         23    2    1    2    0    0 -0.16739105299E+02  0.24841476243E+02  0.74427848000E+02  0.12489919073E+03  0.95723595313E+02 0.  0.
          5    1    1    2  502    0 -0.25604350768E+02  0.39088800105E+02  0.48634301836E+02  0.67574290872E+02  0.41800000000E+01 0. -1.
         -5    1    1    2    0  502  0.42343456067E+02 -0.63930276347E+02  0.25662379609E+02  0.80969615491E+02  0.41800000000E+01 0. -1.
        -11    1    3    3    0    0 -0.63502253268E+01  0.36435945689E+02  0.93341872507E+02  0.10040223435E+03  0.00000000000E+00 0.  1.
         11    1    3    3    0    0 -0.10388879972E+02 -0.11594469446E+02 -0.18914024507E+02  0.24496956380E+02  0.00000000000E+00 0. -1.
</event>
<event>
 7    1  0.6145388E-006  0.1230467E+03  0.7561462E-02  0.1238154E+00
         -2   -1    0    0    0  501 -0.00000000000E+00  0.00000000000E+00  0.50294752898E+02  0.50294752898E+02  0.00000000000E+00 0.  1.
          2   -1    0    0  501    0  0.00000000000E+00 -0.00000000000E+00 -0.30477265367E+03  0.30477265367E+03  0.00000000000E+00 0. -1.
         23    2    1    2    0    0  0.50597354877E+02  0.22160079697E+02 -0.10677497784E+03  0.15378102708E+03  0.95898628477E+02 0.  0.
          5    1    1    2  502    0 -0.89188612407E+02  0.30497809526E+01 -0.84685664611E+02  0.12309770078E+03  0.41800000000E+01 0. -1.
         -5    1    1    2    0  502  0.38591257530E+02 -0.25209860650E+02 -0.63017258322E+02  0.78188678709E+02  0.41800000000E+01 0. -1.
        -11    1    3    3    0    0  0.48782473473E+02  0.57317083554E+02 -0.68377078095E+02  0.10168777013E+03  0.00000000000E+00 0.  1.
         11    1    3    3    0    0  0.18148814040E+01 -0.35157003856E+02 -0.38397899742E+02  0.52093256946E+02  0.00000000000E+00 0. -1.
</event>
<event>
 7    1  0.6145388E-006  0.9598622E+02  0.7561462E-02  0.1288970E+00
          4   -1    0    0  501    0  0.00000000000E+00  0.00000000000E+00  0.29571018818E+02  0.29571018818E+02  0.00000000000E+00 0. -1.
         -4   -1    0    0    0  501 -0.00000000000E+00 -0.00000000000E+00 -0.44446267005E+03  0.44446267005E+03  0.00000000000E+00 0.  1.
         23    2    1    2    0    0  0.25248232748E+02  0.26891707265E+02 -0.17277277028E+03  0.19902150252E+03  0.91643282020E+02 0.  0.
          5    1    1    2  502    0  0.22441440332E+02  0.16928426072E+02 -0.18905879435E+03  0.19118287050E+03  0.41800000000E+01 0.  1.
         -5    1    1    2    0  502 -0.47689673080E+02 -0.43820133337E+02 -0.53060086603E+02  0.83829315842E+02  0.41800000000E+01 0.  1.
        -11    1    3    3    0    0  0.33514492965E+02 -0.27674932796E+02 -0.81311840302E+02  0.92199449659E+02  0.00000000000E+00 0.  1.
         11    1    3    3    0    0 -0.82662602170E+01  0.54566640061E+02 -0.91460929975E+02  0.10682205286E+03  0.00000000000E+00 0. -1.
</event>
<event>
 7    1  0.6145388E-006  0.8352606E+02  0.7561462E-02  0.1319333E+00
          1   -1    0    0  501    0  0.00000000000E+00  0.00000000000E+00  0.91154336445E+01  0.91154336445E+01  0.00000000000E+00 0. -1.
         -1   -1    0    0    0  501 -0.00000000000E+00 -0.00000000000E+00 -0.18826629588E+04  0.18826629588E+04  0.00000000000E+00 0.  1.
         23    2    1    2    0    0  0.25330276128E+02  0.33508084763E+02 -0.40149876585E+03  0.41383187724E+03  0.91055746675E+02 0.  0.
          5    1    1    2  502    0 -0.39209817758E+02 -0.77073675539E+01 -0.13923685846E+04  0.13929481545E+04  0.41800000000E+01 0.  1.
         -5    1    1    2    0  502  0.13879541630E+02 -0.25800717209E+02 -0.79680174768E+02  0.84998360781E+02  0.41800000000E+01 0.  1.
        -11    1    3    3    0    0  0.47889508838E+02  0.50076989227E+02 -0.32671283261E+03  0.33397961749E+03  0.00000000000E+00 0.  1.
         11    1    3    3    0    0 -0.22559232710E+02 -0.16568904464E+02 -0.74785933247E+02  0.79852259751E+02  0.00000000000E+00 0. -1.
</event>
<event>
 7    1  0.6257874E-006  0.2966305E+03  0.7561462E-02  0.1086937E+00
          1   -1    0    0  501    0  0.00000000000E+00  0.00000000000E+00  0.50775661241E+03  0.50775661241E+03  0.00000000000E+00 0. -1.
         -1   -1    0    0    0  501 -0.00000000000E+00 -0.00000000000E+00 -0.21736869100E+03  0.21736869100E+03  0.00000000000E+00 0.  1.
         23    2    1    2    0    0  0.23482035092E+03 -0.16944131727E+03  0.27257744928E+03  0.40918886957E+03  0.96364453604E+02 0.  0.
          5    1    1    2  502    0 -0.43254690092E+02  0.80784742368E+02 -0.35204187020E+02  0.98254516426E+02  0.41800000000E+01 0.  1.
         -5    1    1    2    0  502 -0.19156566083E+03  0.88656574905E+02  0.53014659152E+02  0.21768191741E+03  0.41800000000E+01 0.  1.
        -11    1    3    3    0    0  0.13781803309E+03 -0.11263776083E+03  0.10272510939E+03  0.20550796459E+03  0.00000000000E+00 0.  1.
         11    1    3    3    0    0  0.97002317832E+02 -0.56803556444E+02  0.16985233989E+03  0.20368090498E+03  0.00000000000E+00 0. -1.
</event>
<event>
 7    1  0.6145388E-006  0.1115345E+03  0.7561462E-02  0.1257754E+00
         -2   -1    0    0    0  501 -0.00000000000E+00  0.00000000000E+00  0.44767886135E+02  0.44767886135E+02  0.00000000000E+00 0.  1.
          2   -1    0    0  501    0  0.00000000000E+00 -0.00000000000E+00 -0.38901494801E+03  0.38901494801E+03  0.00000000000E+00 0. -1.
         23    2    1    2    0    0  0.76868712634E+02  0.44482628410E+01 -0.16142563483E+03  0.19926192995E+03  0.87854966414E+02 0.  0.
          5    1    1    2  502    0 -0.10458664051E+03 -0.26379882460E+02 -0.15709187315E+03  0.19060323339E+03  0.41800000000E+01 0.  1.
         -5    1    1    2    0  502  0.27717927872E+02  0.21931619619E+02 -0.25729553896E+02  0.43917670798E+02  0.41800000000E+01 0.  1.
        -11    1    3    3    0    0  0.19581245152E+02 -0.75809260118E+01  0.60493893941E+01  0.21851560881E+02  0.00000000000E+00 0.  1.
         11    1    3    3    0    0  0.57287467481E+02  0.12029188853E+02 -0.16747502422E+03  0.17741036907E+03  0.00000000000E+00 0. -1.
</event>
<event>
 7    1  0.6145388E-006  0.1550980E+03  0.7561462E-02  0.1194345E+00
         -1   -1    0    0    0  501 -0.00000000000E+00  0.00000000000E+00  0.55881651359E+02  0.55881651359E+02  0.00000000000E+00 0.  1.
          1   -1    0    0  501    0  0.00000000000E+00 -0.00000000000E+00 -0.56479609794E+03  0.56479609794E+03  0.00000000000E+00 0. -1.
         23    2    1    2    0    0  0.10589600730E+03 -0.74221368085E+02 -0.30590739914E+03  0.34941751240E+03  0.10858400102E+03 0.  0.
          5    1    1    2  502    0 -0.94973140664E+02  0.96470336095E+02 -0.20537452547E+03  0.24601339660E+03  0.41800000000E+01 0. -1.
         -5    1    1    2    0  502 -0.10922866640E+02 -0.22248968009E+02  0.23674780292E+01  0.25246840304E+02  0.41800000000E+01 0. -1.
        -11    1    3    3    0    0  0.74881647969E+02 -0.88116074933E+02 -0.14759924459E+03  0.18750264230E+03  0.00000000000E+00 0.  1.
         11    1    3    3    0    0  0.31014359334E+02  0.13894706847E+02 -0.15830815455E+03  0.16191487010E+03  0.00000000000E+00 0. -1.
</event>
<event>
 7    1  0.6145388E-006  0.1171209E+03  0.7561462E-02  0.1247924E+00
          1   -1    0    0  501    0  0.00000000000E+00  0.00000000000E+00  0.23903983281E+03  0.23903983281E+03  0.00000000000E+00 0. -1.
         -1   -1    0    0    0  501 -0.00000000000E+00 -0.00000000000E+00 -0.85897983153E+02  0.85897983153E+02  0.00000000000E+00 0.  1.
         23    2    1    2    0    0 -0.57863134517E+02  0.21703177871E+02  0.14814498997E+03  0.18532493457E+03  0.92624095435E+02 0.  0.
          5    1    1    2  502    0  0.61785146859E+02 -0.63301051509E+02 -0.19945260687E+02  0.90772866642E+02  0.41800000000E+01 0.  1.
         -5    1    1    2    0  502 -0.39220123417E+01  0.41597873638E+02  0.24942120375E+02  0.48840014750E+02  0.41800000000E+01 0.  1.
        -11    1    3    3    0    0 -0.30985177764E+02  0.53645097065E+02  0.53393196184E+02  0.81784540586E+02  0.00000000000E+00 0.  1.
         11    1    3    3    0    0 -0.26877956753E+02 -0.31941919194E+02  0.94751793786E+02  0.10354039399E+03  0.00000000000E+00 0. -1.
</event>
<event>
 7    1  0.6145388E-006  0.1034430E+03  0.7561462E-02  0.1273218E+00
          1   -1    0    0  501    0  0.00000000000E+00  0.00000000000E+00  0.53951311858E+02  0.53951311858E+02  0.00000000000E+00 0. -1.
         -1   -1    0    0    0  501 -0.00000000000E+00 -0.00000000000E+00 -0.26617901768E+03  0.26617901768E+03  0.00000000000E+00 0.  1.
         23    2    1    2    0    0  0.40086867733E+02  0.20115694827E+02 -0.54443876959E+02  0.11385058458E+03  0.89365663027E+02 0.  0.
          5    1    1    2  502    0 -0.38512399250E+02  0.48107843230E+02 -0.95858972605E+02  0.11403501438E+03  0.41800000000E+01 0.  1.
         -5    1    1    2    0  502 -0.15744684827E+01 -0.68223538057E+02 -0.61924856257E+02  0.92244730573E+02  0.41800000000E+01 0.  1.
        -11    1    3    3    0    0  0.57058792035E+02  0.16515182353E+02 -0.69111988035E+02  0.91131355124E+02  0.00000000000E+00 0.  1.
         11    1    3    3    0    0 -0.16971924302E+02  0.36005124745E+01  0.14668111076E+02  0.22719229458E+02  0.00000000000E+00 0. -1.
</event>
<event>
 7    1  0.6145388E-006  0.1984443E+03  0.7561462E-02  0.1151058E+00
          1   -1    0    0  501    0  0.00000000000E+00  0.00000000000E+00  0.37361881359E+03  0.37361881359E+03  0.00000000000E+00 0. -1.
         -1   -1    0    0    0  501 -0.00000000000E+00 -0.00000000000E+00 -0.12050189663E+03  0.12050189663E+03  0.00000000000E+00 0.  1.
         23    2    1    2    0    0  0.16243611926E+03 -0.63275077632E+02  0.18188596636E+03  0.26804658837E+03  0.91527266374E+02 0.  0.
          5    1    1    2  502    0 -0.43896839256E+02 -0.35891301374E+02  0.36659928512E+02  0.67650135029E+02  0.41800000000E+01 0. -1.
         -5    1    1    2    0  502 -0.11853928001E+03  0.99166379006E+02  0.34571022096E+02  0.15842398682E+03  0.41800000000E+01 0. -1.
        -11    1    3    3    0    0  0.78660930179E+02  0.28293436972E+01  0.12337047641E+03  0.14634145541E+03  0.00000000000E+00 0. -1.
         11    1    3    3    0    0  0.83775189086E+02 -0.66104421329E+02  0.58515489949E+02  0.12170513296E+03  0.00000000000E+00 0.  1.
</event>
<event>
 7    1  0.6145388E-006  0.8286987E+02  0.7561462E-02  0.1321099E+00
          1   -1    0    0  501    0  0.00000000000E+00  0.00000000000E+00  0.39399877233E+03  0.39399877233E+03  0.00000000000E+00 0. -1.
         -1   -1    0    0    0  501 -0.00000000000E+00 -0.00000000000E+00 -0.41632890230E+02  0.41632890230E+02  0.00000000000E+00 0.  1.
         23    2    1    2    0    0 -0.31314529509E+02 -0.51260067283E+02  0.21021436026E+03  0.23697994317E+03  0.91439717570E+02 0.  0.
          5    1    1    2  502    0 -0.21970109418E+02  0.41941364954E+02  0.13597918885E+03  0.14404713119E+03  0.41800000000E+01 0. -1.
         -5    1    1    2    0  502  0.53284638927E+02  0.93187023291E+01  0.61723329905E+01  0.54604588207E+02  0.41800000000E+01 0. -1.
        -11    1    3    3    0    0 -0.51367886431E+01 -0.29410250032E+02  0.66598953518E+01  0.30589272802E+02  0.00000000000E+00 0.  1.
         11    1    3    3    0    0 -0.26177740866E+02 -0.21849817251E+02  0.20355446491E+03  0.20639067037E+03  0.00000000000E+00 0. -1.
</event>
<event>
 7    1  0.6145388E-006  0.7308418E+02  0.7561462E-02  0.1349908E+00
         -2   -1    0    0    0  501 -0.00000000000E+00  0.00000000000E+00  0.85255678977E+02  0.85255678977E+02  0.00000000000E+00 0.  1.
          2   -1    0    0  501    0  0.00000000000E+00 -0.00000000000E+00 -0.15766959743E+03  0.15766959743E+03  0.00000000000E+00 0. -1.
         23    2    1    2    0    0 -0.46035934302E+01  0.41629873779E+02 -0.39464595674E+02  0.10695865036E+03  0.90157967546E+02 0.  0.
          5    1    1    2  502    0 -0.10644427400E+02 -0.36758645272E+02 -0.78539910123E+02  0.87467089348E+02  0.41800000000E+01 0. -1.
         -5    1    1    2    0  502  0.15248020830E+02 -0.48712285077E+01  0.45590587340E+02  0.48499536703E+02  0.41800000000E+01 0. -1.
        -11    1    3    3    0    0 -0.41471734114E+02  0.33649637642E+02 -0.14811602404E+01  0.53426554067E+02  0.00000000000E+00 0.  1.
         11    1    3    3    0    0  0.36868140683E+02  0.79802361370E+01 -0.37983435434E+02  0.53532096294E+02  0.00000000000E+00 0. -1.
</event>
<event>
 7    1  0.6145388E-006  0.2684219E+03  0.7561462E-02  0.1102186E+00
         -1   -1    0    0    0  501 -0.00000000000E+00  0.00000000000E+00  0.74087962034E+02  0.74087962034E+02  0.00000000000E+00 0.  1.
          1   -1    0    0  501    0  0.00000000000E+00 -0.00000000000E+00 -0.11346729296E+04  0.11346729296E+04  0.00000000000E+00 0. -1.
         23    2    1    2    0    0 -0.16515764086E+03 -0.19956006337E+03 -0.66840680647E+03  0.72239421934E+03  0.89355939729E+02 0.  0.
          5    1    1    2  502    0  0.17588604360E+02  0.80778854298E+00 -0.10783115466E+03  0.10933911395E+03  0.41800000000E+01 0.  1.
         -5    1    1    2    0  502  0.14756903650E+03  0.19875227483E+03 -0.28434700645E+03  0.37702755836E+03  0.41800000000E+01 0.  1.
        -11    1    3    3    0    0 -0.46077320390E+02 -0.11842197461E+03 -0.36553076384E+03  0.38698788462E+03  0.00000000000E+00 0.  1.
         11    1    3    3    0    0 -0.11908032047E+03 -0.81138088762E+02 -0.30287604263E+03  0.33540633472E+03  0.00000000000E+00 0. -1.
</event>
<event>
 7    1  0.6145388E-006  0.9092930E+02  0.7561462E-02  0.1300617E+00
          2   -1    0    0  501    0  0.00000000000E+00  0.00000000000E+00  0.19642107419E+03  0.19642107419E+03  0.00000000000E+00 0. -1.
         -2   -1    0    0    0  501 -0.00000000000E+00 -0.00000000000E+00 -0.11885801555E+03  0.11885801555E+03  0.00000000000E+00 0.  1.
         23    2    1    2    0    0 -0.23864272151E+02 -0.60137588834E+01  0.13788634698E+03  0.16657041080E+03  0.90152028763E+02 0.  0.
          5    1    1    2  502    0  0.37740069889E+02 -0.47187605229E+02  0.77982250331E+01  0.61067730236E+02  0.41800000000E+01 0. -1.
         -5    1    1    2    0  502 -0.13875797739E+02  0.53201364112E+02 -0.68121513367E+02  0.87640948704E+02  0.41800000000E+01 0.  1.
        -11    1    3    3    0    0  0.20421030681E+02 -0.77234034724E+01  0.10097500358E+00  0.21832994554E+02  0.00000000000E+00 0.  1.
         11    1    3    3    0    0 -0.44285302831E+02  0.17096445890E+01  0.13778537197E+03  0.14473741624E+03  0.00000000000E+00 0. -1.
</event>
<event>
 7    1  0.6145388E-006  0.1078273E+03  0.7561462E-02  0.1264647E+00
         -1   -1    0    0    0  501 -0.00000000000E+00  0.00000000000E+00  0.88885135728E+03  0.88885135728E+03  0.00000000000E+00 0.  1.
          1   -1    0    0  501    0  0.00000000000E+00 -0.00000000000E+00 -0.22284666817E+02  0.22284666817E+02  0.00000000000E+00 0. -1.
         23    2    1    2    0    0 -0.93020244838E+01 -0.34690979506E+02  0.15319571917E+03  0.18236537586E+03  0.92185737626E+02 0.  0.
          5    1    1    2  502    0 -0.38965485445E+02 -0.19813878799E+02  0.52410757058E+03  0.52594402438E+03  0.41800000000E+01 0.  1.
         -5    1    1    2    0  502  0.48267509929E+02  0.54504858305E+02  0.18926340072E+03  0.20282662386E+03  0.41800000000E+01 0. -1.
        -11    1    3    3    0    0  0.12438939176E+02 -0.62382350204E+02  0.94286079945E+02  0.11373719575E+03  0.00000000000E+00 0.  1.
         11    1    3    3    0    0 -0.21740963659E+02  0.27691370699E+02  0.58909639221E+02  0.68628180110E+02  0.00000000000E+00 0. -1.
</event>
<event>
 7    1  0.6145388E-006  0.1079387E+03  0.7561462E-02  0.1264435E+00
          1   -1    0    0  501    0  0.00000000000E+00  0.00000000000E+00  0.28931587548E+03  0.28931587548E+03  0.00000000000E+00 0. -1.
         -1   -1    0    0    0  501 -0.00000000000E+00 -0.00000000000E+00 -0.50995432868E+02  0.50995432868E+02  0.00000000000E+00 0.  1.
         23    2    1    2    0    0  0.54088018713E+01  0.57718655313E+02  0.10724904427E+03  0.15008004170E+03  0.87526927911E+02 0.  0.
          5    1    1    2  502    0 -0.13583090630E+02 -0.93532963627E+02  0.65877471174E+02  0.11528325656E+03  0.41800000000E+01 0.  1.
         -5    1    1    2    0  502  0.81742887587E+01  0.35814308314E+02  0.65193927171E+02  0.74948010092E+02  0.41800000000E+01 0.  1.
        -11    1    3    3    0    0 -0.24544108028E+02  0.45993122469E+02  0.10572304065E+03  0.11787765640E+03  0.00000000000E+00 0. -1.
         11    1    3    3    0    0  0.29952909899E+02  0.11725532845E+02  0.15260036212E+01  0.32202385300E+02  0.00000000000E+00 0.  1.
</event>
<event>
 7    1  0.6145388E-006  0.2021907E+03  0.7561462E-02  0.1147904E+00
         -2   -1    0    0    0  501 -0.00000000000E+00  0.00000000000E+00  0.14407564133E+03  0.14407564133E+03  0.00000000000E+00 0.  1.
          2   -1    0    0  501    0  0.00000000000E+00 -0.00000000000E+00 -0.35478310891E+03  0.35478310891E+03  0.00000000000E+00 0. -1.
         23    2    1    2    0    0  0.16671184776E+03 -0.72617327533E+02 -0.18750666096E+03  0.27693249165E+03  0.92014893272E+02 0.  0.
          5    1    1    2  502    0 -0.90278450007E+02 -0.19578214841E+02 -0.40317623452E+02  0.10087858144E+03  0.41800000000E+01 0.  1.
         -5    1    1    2    0  502 -0.76433397756E+02  0.92195542374E+02  0.17116816833E+02  0.12104767716E+03  0.41800000000E+01 0.  1.
        -11    1    3    3    0    0  0.60599493335E+02  0.47064614799E+01 -0.19762731323E+02  0.63914121455E+02  0.00000000000E+00 0.  1.
         11    1    3    3    0    0  0.10611235443E+03 -0.77323789013E+02 -0.16774392964E+03  0.21301837019E+03  0.00000000000E+00 0. -1.
</event>
<event>
 7    1  0.6145388E-006  0.2000653E+03  0.7561462E-02  0.1149684E+00
         -2   -1    0    0    0  501 -0.00000000000E+00  0.00000000000E+00  0.19523652095E+02  0.19523652095E+02  0.00000000000E+00 0.  1.
          2   -1    0    0  501    0  0.00000000000E+00 -0.00000000000E+00 -0.24781016934E+04  0.24781016934E+04  0.00000000000E+00 0. -1.
         23    2    1    2    0    0 -0.10290933843E+03  0.14684257736E+03 -0.79062766540E+03  0.81540662351E+03  0.87423005547E+02 0.  0.
          5    1    1    2  502    0 -0.12563704945E+02 -0.85082652770E+02 -0.56725966873E+03  0.57375770901E+03  0.41800000000E+01 0. -1.
         -5    1    1    2    0  502  0.11547304337E+03 -0.61759924589E+02 -0.11006907072E+04  0.11084610130E+04  0.41800000000E+01 0. -1.
        -11    1    3    3    0    0 -0.35327311909E+01  0.27404271732E+02 -0.38446570922E+02  0.47345676830E+02  0.00000000000E+00 0.  1.
         11    1    3    3    0    0 -0.99376607235E+02  0.11943830563E+03 -0.75218109448E+03  0.76806094668E+03  0.00000000000E+00 0. -1.
</event>
<event>
 7    1  0.6145388E-006  0.1276139E+03  0.7561462E-02  0.1231040E+00
         -1   -1    0    0    0  501 -0.00000000000E+00  0.00000000000E+00  0.37156499534E+02  0.37156499534E+02  0.00000000000E+00 0.  1.
          1   -1    0    0  501    0  0.00000000000E+00 -0.00000000000E+00 -0.81101827490E+03  0.81101827490E+03  0.00000000000E+00 0. -1.
         23    2    1    2    0    0  0.69621394783E+02 -0.76257615800E+02 -0.57177438446E+03  0.58904256950E+03  0.96865057571E+02 0.  0.
          5    1    1    2  502    0  0.84910173114E+01  0.60719293977E+01  0.14526259706E+02  0.18369820975E+02  0.41800000000E+01 0. -1.
         -5    1    1    2    0  502 -0.78112412095E+02  0.70185686402E+02 -0.21661365061E+03  0.24076238396E+03  0.41800000000E+01 0. -1.
        -11    1    3    3    0    0  0.10722442849E+02 -0.79193157172E+02 -0.27082883748E+03  0.28237348695E+03  0.00000000000E+00 0.  1.
         11    1    3    3    0    0  0.58898951934E+02  0.29355413727E+01 -0.30094554698E+03  0.30666908254E+03  0.00000000000E+00 0. -1.
</event>
<event>
 7    1  0.6145388E-006  0.1613449E+03  0.7561462E-02  0.1187187E+00
          2   -1    0    0  501    0  0.00000000000E+00  0.00000000000E+00  0.73371836820E+03  0.73371836820E+03  0.00000000000E+00 0.  1.
         -2   -1    0    0    0  501 -0.00000000000E+00 -0.00000000000E+00 -0.44021942030E+02  0.44021942030E+02  0.00000000000E+00 0. -1.
         23    2    1    2    0    0 -0.47362015652E+02  0.12825375510E+03  0.41563615203E+03  0.44691285016E+03  0.91024713890E+02 0.  0.
          5    1    1    2  502    0  0.87284841459E+02 -0.59675975657E+02  0.15920788736E+03  0.19116613042E+03  0.41800000000E+01 0.  1.
         -5    1    1    2    0  502 -0.39922825808E+02 -0.68577779440E+02  0.11485238678E+03  0.13966132966E+03  0.41800000000E+01 0.  1.
        -11    1    3    3    0    0 -0.33598495154E+02  0.10644363279E+03  0.40304078374E+03  0.41821164402E+03  0.00000000000E+00 0.  1.
         11    1    3    3    0    0 -0.13763520498E+02  0.21810122305E+02  0.12595368297E+02  0.28701206141E+02  0.00000000000E+00 0. -1.
</event>
<event>
 7    1  0.6145388E-006  0.7783037E+02  0.7561462E-02  0.1335324E+00
         -1   -1    0    0    0  501 -0.00000000000E+00  0.00000000000E+00  0.11192809689E+03  0.11192809689E+03  0.00000000000E+00 0.  1.
          1   -1    0    0  501    0  0.00000000000E+00 -0.00000000000E+00 -0.13728907763E+03  0.13728907763E+03  0.00000000000E+00 0. -1.
         23    2    1    2    0    0  0.42623468749E+02 -0.47152537157E+01 -0.55350638116E+02  0.11362427742E+03  0.89486253542E+02 0.  0.
          5    1    1    2  502    0  0.14252311660E+02  0.94844104851E+01 -0.40871290579E+02  0.44508619654E+02  0.41800000000E+01 0. -1.
         -5    1    1    2    0  502 -0.56875780409E+02 -0.47691567694E+01  0.70860947960E+02  0.91084277454E+02  0.41800000000E+01 0. -1.
        -11    1    3    3    0    0  0.52452907540E+02  0.18483844006E+02 -0.32002192799E+01  0.55706385649E+02  0.00000000000E+00 0.  1.
         11    1    3    3    0    0 -0.98294387913E+01 -0.23199097722E+02 -0.52150418836E+02  0.57917891768E+02  0.00000000000E+00 0. -1.
</event>
<event>
 7    1  0.6145388E-006  0.1376170E+03  0.7561462E-02  0.1216572E+00
          2   -1    0    0  501    0  0.00000000000E+00  0.00000000000E+00  0.11215326643E+04  0.11215326643E+04  0.00000000000E+00 0. -1.
         -2   -1    0    0    0  501 -0.00000000000E+00 -0.00000000000E+00 -0.22950553079E+02  0.22950553079E+02  0.00000000000E+00 0.  1.
         23    2    1    2    0    0 -0.98428008050E+02 -0.36730376313E+02  0.70987826901E+03  0.72284896522E+03  0.86869306399E+02 0.  0.
          5    1    1    2  502    0  0.45243322563E+02 -0.29831910835E+02  0.27025037609E+03  0.27566218333E+03  0.41800000000E+01 0. -1.
         -5    1    1    2    0  502  0.53184685486E+02  0.66562287148E+02  0.11845346608E+03  0.14597206879E+03  0.41800000000E+01 0. -1.
        -11    1    3    3    0    0 -0.80941481176E+02  0.13797143732E+02  0.46598168484E+03  0.47316045392E+03  0.00000000000E+00 0. -1.
         11    1    3    3    0    0 -0.17486526874E+02 -0.50527520045E+02  0.24389658417E+03  0.24968851130E+03  0.00000000000E+00 0.  1.
</event>
<event>
 7    1  0.6145388E-006  0.4214047E+03  0.7561462E-02  0.1036610E+00
         -1   -1    0    0    0  501 -0.00000000000E+00  0.00000000000E+00  0.48676503658E+03  0.48676503658E+03  0.00000000000E+00 0.  1.
          1   -1    0    0  501    0  0.00000000000E+00 -0.00000000000E+00 -0.42236650131E+03  0.42236650131E+03  0.00000000000E+00 0. -1.
         23    2    1    2    0    0 -0.21451367522E+03 -0.77691650782E+02 -0.65951972043E+02  0.25495965851E+03  0.92750500786E+02 0.  0.
          5    1    1    2  502    0  0.30913302632E+03  0.25685312577E+03 -0.19064995795E+02  0.40238998826E+03  0.41800000000E+01 0. -1.
         -5    1    1    2    0  502 -0.94619351104E+02 -0.17916147499E+03  0.14941550311E+03  0.25178189112E+03  0.41800000000E+01 0.  1.
        -11    1    3    3    0    0 -0.11508321602E+03 -0.52647370029E+01  0.37687587451E+00  0.11520419306E+03  0.00000000000E+00 0.  1.
         11    1    3    3    0    0 -0.99430459203E+02 -0.72426913779E+02 -0.66328847918E+02  0.13975546545E+03  0.00000000000E+00 0. -1.
</event>
<event>
 7    1  0.6145388E-006  0.1841437E+03  0.7561462E-02  0.1163852E+00
         -1   -1    0    0    0  501 -0.00000000000E+00  0.00000000000E+00  0.31749894562E+03  0.31749894562E+03  0.00000000000E+00 0.  1.
          1   -1    0    0  501    0  0.00000000000E+00 -0.00000000000E+00 -0.12153226191E+03  0.12153226191E+03  0.00000000000E+00 0. -1.
         23    2    1    2    0    0 -0.33406868498E+02  0.14850802827E+03  0.27825859198E+02  0.18001633296E+03  0.91983413559E+02 0.  0.
          5    1    1    2  502    0 -0.19190839521E+02 -0.14257162135E+03  0.12187796209E+03  0.18859126591E+03  0.41800000000E+01 0. -1.
         -5    1    1    2    0  502  0.52597708019E+02 -0.59364069196E+01  0.46262862426E+02  0.70423608654E+02  0.41800000000E+01 0. -1.
        -11    1    3    3    0    0 -0.57587582805E+02  0.79613646063E+02  0.39825241425E+02  0.10602222497E+03  0.00000000000E+00 0.  1.
         11    1    3    3    0    0  0.24180714307E+02  0.68894382207E+02 -0.11999382227E+02  0.73994107995E+02  0.00000000000E+00 0. -1.
</event>
<event>
 7    1  0.6145388E-006  0.1039143E+03  0.7561462E-02  0.1272274E+00
          2   -1    0    0  501    0  0.00000000000E+00  0.00000000000E+00  0.48152775475E+02  0.48152775475E+02  0.00000000000E+00 0. -1.
         -2   -1    0    0    0  501 -0.00000000000E+00 -0.00000000000E+00 -0.27888918103E+03  0.27888918103E+03  0.00000000000E+00 0.  1.
         23    2    1    2    0    0  0.28301665457E+02 -0.36139792186E+01 -0.55873586100E+02  0.11015805812E+03  0.90547750010E+02 0.  0.
          5    1    1    2  502    0  0.48439198731E+02  0.12315082101E+02 -0.57182811674E+02  0.76061577500E+02  0.41800000000E+01 0.  1.
         -5    1    1    2    0  502 -0.76740864188E+02 -0.87011028826E+01 -0.11768000779E+03  0.14082232089E+03  0.41800000000E+01 0.  1.
        -11    1    3    3    0    0  0.53088624326E+02  0.66437763759E+01 -0.62752333054E+02  0.82464520256E+02  0.00000000000E+00 0. -1.
         11    1    3    3    0    0 -0.24786958869E+02 -0.10257755595E+02  0.68787469543E+01  0.27693537864E+02  0.00000000000E+00 0.  1.
</event>
<event>
 7    1  0.6145388E-006  0.1542787E+03  0.7561462E-02  0.1195312E+00
          2   -1    0    0  501    0  0.00000000000E+00  0.00000000000E+00  0.52620649639E+03  0.52620649639E+03  0.00000000000E+00 0. -1.
         -2   -1    0    0    0  501 -0.00000000000E+00 -0.00000000000E+00 -0.61808923913E+02  0.61808923913E+02  0.00000000000E+00 0.  1.
         23    2    1    2    0    0 -0.13756625669E+03  0.13454201893E+02  0.27775024023E+03  0.32421561054E+03  0.94154530658E+02 0.  0.
          5    1    1    2  502    0  0.44518698068E+02  0.39559279465E+02  0.12891300406E+03  0.14206648473E+03  0.41800000000E+01 0. -1.
         -5    1    1    2    0  502  0.93047558621E+02 -0.53013481358E+02  0.57734328193E+02  0.12173332503E+03  0.41800000000E+01 0. -1.
        -11    1    3    3    0    0 -0.74595264068E+02  0.22848441737E+02  0.23478277848E+03  0.24740545221E+03  0.00000000000E+00 0. -1.
         11    1    3    3    0    0 -0.62970992621E+02 -0.93942398445E+01  0.42967461745E+02  0.76810158330E+02  0.00000000000E+00 0.  1.
</event>
<event>
 7    1  0.6145388E-006  0.2686604E+03  0.7561462E-02  0.1102049E+00
          2   -1    0    0  501    0  0.00000000000E+00  0.00000000000E+00  0.17302115858E+04  0.17302115858E+04  0.00000000000E+00 0. -1.
         -2   -1    0    0    0  501 -0.00000000000E+00 -0.00000000000E+00 -0.46083668179E+02  0.46083668179E+02  0.00000000000E+00 0.  1.
         23    2    1    2    0    0  0.10542368798E+03  0.23647293447E+03  0.90538532496E+03  0.94616217606E+03  0.92014531618E+02 0.  0.
          5    1    1    2  502    0 -0.82799051290E+02 -0.94607612101E+02  0.22222990580E+03  0.25536226541E+03  0.41800000000E+01 0. -1.
         -5    1    1    2    0  502 -0.22624636693E+02 -0.14186532237E+03  0.55651268686E+03  0.57477081251E+03  0.41800000000E+01 0. -1.
        -11    1    3    3    0    0  0.10886058318E+02  0.10669523057E+03  0.47090779949E+03  0.48296639025E+03  0.00000000000E+00 0. -1.
         11    1    3    3    0    0  0.94537629665E+02  0.12977770390E+03  0.43447752547E+03  0.46319578581E+03  0.00000000000E+00 0.  1.
</event>
<event>
 7    1  0.6145388E-006  0.3520631E+03  0.7561462E-02  0.1061771E+00
          2   -1    0    0  501    0  0.00000000000E+00  0.00000000000E+00  0.19657660585E+04  0.19657660585E+04  0.00000000000E+00 0. -1.
         -2   -1    0    0    0  501 -0.00000000000E+00 -0.00000000000E+00 -0.83875098140E+02  0.83875098140E+02  0.00000000000E+00 0.  1.
         23    2    1    2    0    0 -0.12560268547E+03  0.25226007971E+03  0.10832052348E+04  0.11224238176E+04  0.84204887546E+02 0.  0.
          5    1    1    2  502    0  0.13695269369E+03 -0.31900222956E+03  0.78454226517E+03  0.85792919347E+03  0.41800000000E+01 0. -1.
         -5    1    1    2    0  502 -0.11350008224E+02  0.66742149851E+02  0.14143460402E+02  0.69288145635E+02  0.41800000000E+01 0.  1.
        -11    1    3    3    0    0 -0.59215083875E+02  0.18648224705E+03  0.63001036768E+03  0.65969319991E+03  0.00000000000E+00 0. -1.
         11    1    3    3    0    0 -0.66387601593E+02  0.65777832658E+02  0.45319486713E+03  0.46273061764E+03  0.00000000000E+00 0.  1.
</event>
<event>
 7    1  0.6145388E-006  0.1017520E+03  0.7561462E-02  0.1276654E+00
         -4   -1    0    0    0  501 -0.00000000000E+00  0.00000000000E+00  0.24213004586E+02  0.24213004586E+02  0.00000000000E+00 0.  1.
          4   -1    0    0  501    0  0.00000000000E+00 -0.00000000000E+00 -0.55331930437E+03  0.55331930437E+03  0.00000000000E+00 0. -1.
         23    2    1    2    0    0  0.93446126546E+01 -0.14356041025E+02 -0.31705019353E+03  0.33073730819E+03  0.92590086463E+02 0.  0.
          5    1    1    2  502    0 -0.44609783866E+02 -0.29119956633E+02 -0.42773573648E+02  0.68447466669E+02  0.41800000000E+01 0. -1.
         -5    1    1    2    0  502  0.35265171211E+02  0.43475997658E+02 -0.16928253260E+03  0.17834753409E+03  0.41800000000E+01 0. -1.
        -11    1    3    3    0    0  0.32489647017E+02 -0.45016072266E+02 -0.19860494836E+03  0.20621820831E+03  0.00000000000E+00 0.  1.
         11    1    3    3    0    0 -0.23145034362E+02  0.30660031241E+02 -0.11844524517E+03  0.12451909988E+03  0.00000000000E+00 0. -1.
</event>
<event>
 7    1  0.6145388E-006  0.1359681E+03  0.7561462E-02  0.1218859E+00
          2   -1    0    0  501    0  0.00000000000E+00  0.00000000000E+00  0.36770924386E+03  0.36770924386E+03  0.00000000000E+00 0. -1.
         -2   -1    0    0    0  501 -0.00000000000E+00 -0.00000000000E+00 -0.92856898095E+02  0.92856898095E+02  0.00000000000E+00 0.  1.
         23    2    1    2    0    0 -0.13024760102E+02 -0.13040128318E+03  0.21983585215E+03  0.27122942477E+03  0.89796770197E+02 0.  0.
          5    1    1    2  502    0  0.19221688077E+02  0.83734159946E+02  0.94477440610E+02  0.12776674849E+03  0.41800000000E+01 0. -1.
         -5    1    1    2    0  502 -0.61969279745E+01  0.46667123239E+02 -0.39460946998E+02  0.61569968699E+02  0.41800000000E+01 0. -1.
        -11    1    3    3    0    0 -0.19792591712E+02 -0.20301987791E+02  0.11712230632E+03  0.12050540250E+03  0.00000000000E+00 0. -1.
         11    1    3    3    0    0  0.67678316104E+01 -0.11009929539E+03  0.10271354584E+03  0.15072402227E+03  0.00000000000E+00 0.  1.
</event>
<event>
 7    1  0.6145388E-006  0.1282461E+03  0.7561462E-02  0.1230082E+00
         -3   -1    0    0    0  501 -0.00000000000E+00  0.00000000000E+00  0.26737451394E+03  0.26737451394E+03  0.00000000000E+00 0.  1.
          3   -1    0    0  501    0  0.00000000000E+00 -0.00000000000E+00 -0.78991227634E+02  0.78991227634E+02  0.00000000000E+00 0. -1.
         23    2    1    2    0    0  0.39907441521E+02  0.76697414796E+02  0.33950349458E+02  0.12963554123E+03  0.90430359921E+02 0.  0.
          5    1    1    2  502    0  0.47778994140E+01 -0.85546175835E+02  0.14726555148E+03  0.17042767256E+03  0.41800000000E+01 0.  1.
         -5    1    1    2    0  502 -0.44685340935E+02  0.88487610386E+01  0.71673853718E+01  0.46302527787E+02  0.41800000000E+01 0.  1.
        -11    1    3    3    0    0 -0.29360474348E+02  0.24323802153E+02  0.13242763185E+02  0.40361560697E+02  0.00000000000E+00 0. -1.
         11    1    3    3    0    0  0.69267915870E+02  0.52373612643E+02  0.20707586273E+02  0.89273980529E+02  0.00000000000E+00 0.  1.
</event>
<event>
 7    1  0.6145388E-006  0.8525966E+02  0.7561462E-02  0.1314755E+00
          4   -1    0    0  501    0  0.00000000000E+00  0.00000000000E+00  0.17523993091E+03  0.17523993091E+03  0.00000000000E+00 0. -1.
         -4   -1    0    0    0  501 -0.00000000000E+00 -0.00000000000E+00 -0.91687359485E+02  0.91687359485E+02  0.00000000000E+00 0.  1.
         23    2    1    2    0    0 -0.60135667046E+02 -0.25292003653E+01  0.62282067402E+02  0.12649330639E+03  0.92188965369E+02 0.  0.
          5    1    1    2  502    0  0.38640220474E+02  0.36136764494E+02  0.63119904569E+02  0.82465308701E+02  0.41800000000E+01 0. -1.
         -5    1    1    2    0  502  0.21495446572E+02 -0.33607564129E+02 -0.41849400548E+02  0.57968675302E+02  0.41800000000E+01 0. -1.
        -11    1    3    3    0    0 -0.46295336290E+02  0.20371430976E+02  0.79822890742E+02  0.94498398127E+02  0.00000000000E+00 0. -1.
         11    1    3    3    0    0 -0.13840330756E+02 -0.22900631341E+02 -0.17540823340E+02  0.31994908262E+02  0.00000000000E+00 0.  1.
</event>
<event>
 7    1  0.6145388E-006  0.2057197E+03  0.7561462E-02  0.1145001E+00
         -2   -1    0    0    0  501 -0.00000000000E+00  0.00000000000E+00  0.60461916667E+02  0.60461916667E+02  0.00000000000E+00 0.  1.
          2   -1    0    0  501    0  0.00000000000E+00 -0.00000000000E+00 -0.88183507299E+03  0.88183507299E+03  0.00000000000E+00 0. -1.
         23    2    1    2    0    0 -0.18419017997E+03 -0.82096738486E+02 -0.49151418788E+03  0.53931744854E+03  0.92796640819E+02 0.  0.
          5    1    1    2  502    0  0.14943444446E+03  0.50713095764E+02 -0.15248433678E+03  0.21947987752E+03  0.41800000000E+01 0. -1.
         -5    1    1    2    0  502  0.34755735504E+02  0.31383642722E+02 -0.17737463166E+03  0.18349966359E+03  0.41800000000E+01 0.  1.
        -11    1    3    3    0    0 -0.10321645782E+03 -0.69946359745E+02 -0.19295658384E+03  0.22973544275E+03  0.00000000000E+00 0.  1.
         11    1    3    3    0    0 -0.80973722143E+02 -0.12150378741E+02 -0.29855760404E+03  0.30958200579E+03  0.00000000000E+00 0. -1.
</event>
<event>
 7    1  0.6145388E-006  0.1109090E+03  0.7561462E-02  0.1258896E+00
         -1   -1    0    0    0  501 -0.00000000000E+00  0.00000000000E+00  0.19740583138E+03  0.19740583138E+03  0.00000000000E+00 0.  1.
          1   -1    0    0  501    0  0.00000000000E+00 -0.00000000000E+00 -0.89195572267E+02  0.89195572267E+02  0.00000000000E+00 0. -1.
         23    2    1    2    0    0 -0.35531748371E+02 -0.66083131410E+02  0.61774824885E+02  0.13350339540E+03  0.91528914522E+02 0.  0.
          5    1    1    2  502    0  0.71180151371E+02  0.78631003147E+02  0.44288311070E+02  0.11501467516E+03  0.41800000000E+01 0. -1.
         -5    1    1    2    0  502 -0.35648403000E+02 -0.12547871737E+02  0.21471231614E+01  0.38083333093E+02  0.41800000000E+01 0. -1.
        -11    1    3    3    0    0 -0.10759430445E+02 -0.41028619587E+02  0.82400597046E+02  0.92676703449E+02  0.00000000000E+00 0.  1.
         11    1    3    3    0    0 -0.24772317927E+02 -0.25054511822E+02 -0.20625772161E+02  0.40826691947E+02  0.00000000000E+00 0. -1.
</event>
<event>
 7    1  0.6145388E-006  0.8280808E+02  0.7561462E-02  0.1321266E+00
          1   -1    0    0  501    0  0.00000000000E+00  0.00000000000E+00  0.20280049085E+03  0.20280049085E+03  0.00000000000E+00 0. -1.
         -1   -1    0    0    0  501 -0.00000000000E+00 -0.00000000000E+00 -0.64126513115E+02  0.64126513115E+02  0.00000000000E+00 0.  1.
         23    2    1    2    0    0  0.29065813575E+02  0.98502745055E+01  0.73161671095E+02  0.12242701975E+03  0.93241061884E+02 0.  0.
          5    1    1    2  502    0 -0.45076631967E+01  0.29001266046E+02 -0.27646077523E+02  0.40536039053E+02  0.41800000000E+01 0.  1.
         -5    1    1    2    0  502 -0.24558150378E+02 -0.38851540551E+02  0.93158384158E+02  0.10396394516E+03  0.41800000000E+01 0.  1.
        -11    1    3    3    0    0  0.22843247712E+02  0.46943754892E+02  0.65979305377E+02  0.84135597861E+02  0.00000000000E+00 0.  1.
         11    1    3    3    0    0  0.62225658631E+01 -0.37093480387E+02  0.71823657184E+01  0.38291421891E+02  0.00000000000E+00 0. -1.
</event>
<event>
 7    1  0.6145388E-006  0.1174910E+03  0.7561462E-02  0.1247294E+00
          2   -1    0    0  501    0  0.00000000000E+00  0.00000000000E+00  0.13215657465E+02  0.13215657465E+02  0.00000000000E+00 0. -1.
         -2   -1    0    0    0  501 -0.00000000000E+00 -0.00000000000E+00 -0.16758661305E+04  0.16758661305E+04  0.00000000000E+00 0.  1.
         23    2    1    2    0    0 -0.68364473043E+02  0.75252782574E+02 -0.47467231104E+03  0.49021717544E+03  0.68281723512E+02 0.  0.
          5    1    1    2  502    0 -0.83643056775E+01 -0.13884297376E+02 -0.17334246641E+02  0.24097382217E+02  0.41800000000E+01 0.  1.
         -5    1    1    2    0  502  0.76728778721E+02 -0.61368485199E+02 -0.11706439154E+04  0.11747672303E+04  0.41800000000E+01 0.  1.
        -11    1    3    3    0    0 -0.24590050314E+02 -0.79863845729E+01 -0.14943531000E+03  0.15165541463E+03  0.00000000000E+00 0.  1.
         11    1    3    3    0    0 -0.43774422729E+02  0.83239167147E+02 -0.32523700104E+03  0.33856176080E+03  0.00000000000E+00 0. -1.
</event>
<event>
 7    1  0.6145388E-006  0.1292508E+03  0.7561462E-02  0.1228572E+00
          1   -1    0    0  501    0  0.00000000000E+00  0.00000000000E+00  0.22298828197E+03  0.22298828197E+03  0.00000000000E+00 0. -1.
         -1   -1    0    0    0  501 -0.00000000000E+00 -0.00000000000E+00 -0.11114546111E+03  0.11114546111E+03  0.00000000000E+00 0.  1.
         23    2    1    2    0    0 -0.57452538293E+01  0.79219981635E+02  0.12329788657E+03  0.17207962829E+03  0.90001201156E+02 0.  0.
          5    1    1    2  502    0  0.15241106508E+02  0.27788907723E+02  0.32790146450E+02  0.45794986889E+02  0.41800000000E+01 0. -1.
         -5    1    1    2    0  502 -0.94958526784E+01 -0.10700888936E+03 -0.44245212159E+02  0.11625912789E+03  0.41800000000E+01 0.  1.
        -11    1    3    3    0    0 -0.47270000135E+02  0.40531349024E+02  0.53301401671E+02  0.81965130309E+02  0.00000000000E+00 0.  1.
         11    1    3    3    0    0  0.41524746306E+02  0.38688632612E+02  0.69996484894E+02  0.90114497982E+02  0.00000000000E+00 0. -1.
</event>
<event>
 7    1  0.6145388E-006  0.5921148E+02  0.7561462E-02  0.1401171E+00
          2   -1    0    0  501    0  0.00000000000E+00  0.00000000000E+00  0.14042625477E+03  0.14042625477E+03  0.00000000000E+00 0. -1.
         -2   -1    0    0    0  501 -0.00000000000E+00 -0.00000000000E+00 -0.96472818868E+02  0.96472818868E+02  0.00000000000E+00 0.  1.
         23    2    1    2    0    0 -0.34527605728E+02 -0.34958959633E+02  0.48900611218E+02  0.10239937537E+03  0.75366291416E+02 0.  0.
          5    1    1    2  502    0  0.21636452575E+01 -0.60104789829E+01  0.54636601006E+02  0.55167361618E+02  0.41800000000E+01 0.  1.
         -5    1    1    2    0  502  0.32363960471E+02  0.40969438616E+02 -0.59583776323E+02  0.79332336653E+02  0.41800000000E+01 0.  1.
        -11    1    3    3    0    0 -0.31643285158E+02 -0.98550963172E+01  0.64631649304E+02  0.72633811071E+02  0.00000000000E+00 0. -1.
         11    1    3    3    0    0 -0.28843205704E+01 -0.25103863315E+02 -0.15731038086E+02  0.29765564294E+02  0.00000000000E+00 0.  1.
</event>
<event>
 7    1  0.6145388E-006  0.9413656E+02  0.7561462E-02  0.1293133E+00
         -1   -1    0    0    0  501 -0.00000000000E+00  0.00000000000E+00  0.27647580219E+03  0.27647580219E+03  0.00000000000E+00 0.  1.
          1   -1    0    0  501    0  0.00000000000E+00 -0.00000000000E+00 -0.54136000610E+02  0.54136000610E+02  0.00000000000E+00 0. -1.
         23    2    1    2    0    0  0.42337010008E+02  0.38303604559E+02  0.87800728953E+02  0.13823453813E+03  0.90223228659E+02 0.  0.
          5    1    1    2  502    0  0.20964325688E+02  0.22154063479E+02  0.87837249652E+02  0.93076099546E+02  0.41800000000E+01 0. -1.
         -5    1    1    2    0  502 -0.63301335697E+02 -0.60457668039E+02  0.46701822979E+02  0.99301165125E+02  0.41800000000E+01 0. -1.
        -11    1    3    3    0    0  0.33294521972E+02  0.30218801267E+01  0.95347686552E+02  0.10103879593E+03  0.00000000000E+00 0.  1.
         11    1    3    3    0    0  0.90424880366E+01  0.35281724432E+02 -0.75469575992E+01  0.37195742200E+02  0.00000000000E+00 0. -1.
</event>
<event>
 7    1  0.6145388E-006  0.1029887E+03  0.7561462E-02  0.1274134E+00
         -2   -1    0    0    0  501 -0.00000000000E+00  0.00000000000E+00  0.42704992278E+03  0.42704992278E+03  0.00000000000E+00 0.  1.
          2   -1    0    0  501    0  0.00000000000E+00 -0.00000000000E+00 -0.47547254466E+02  0.47547254466E+02  0.00000000000E+00 0. -1.
         23    2    1    2    0    0 -0.71289510756E+02 -0.76951865875E+01  0.72251896523E+02  0.13519782732E+03  0.88975871563E+02 0.  0.
          5    1    1    2  502    0  0.85078183765E+02  0.43337613333E+02  0.26767458973E+03  0.28422456697E+03  0.41800000000E+01 0.  1.
         -5    1    1    2    0  502 -0.13788673009E+02 -0.35642426745E+02  0.39576182059E+02  0.55174782954E+02  0.41800000000E+01 0.  1.
        -11    1    3    3    0    0 -0.58237148888E+02 -0.86408462442E+01 -0.28699741669E+01  0.58944605234E+02  0.00000000000E+00 0. -1.
         11    1    3    3    0    0 -0.13052361868E+02  0.94565965670E+00  0.75121870690E+02  0.76253222086E+02  0.00000000000E+00 0.  1.
</event>
<event>
 7    1  0.6145388E-006  0.1468531E+03  0.7561462E-02  0.1204394E+00
         -1   -1    0    0    0  501 -0.00000000000E+00  0.00000000000E+00  0.11880855643E+03  0.11880855643E+03  0.00000000000E+00 0.  1.
          1   -1    0    0  501    0  0.00000000000E+00 -0.00000000000E+00 -0.22682133461E+03  0.22682133461E+03  0.00000000000E+00 0. -1.
         23    2    1    2    0    0  0.96714997813E+02 -0.52538538745E+02 -0.10641885972E+03  0.17900177016E+03  0.92750046689E+02 0.  0.
          5    1    1    2  502    0  0.51358171640E+01  0.63561775585E+02 -0.44189113145E+01  0.64058372682E+02  0.41800000000E+01 0. -1.
         -5    1    1    2    0  502 -0.10185081498E+03 -0.11023236839E+02  0.28249928523E+01  0.10256974820E+03  0.41800000000E+01 0. -1.
        -11    1    3    3    0    0  0.72462038319E+02 -0.34825339813E+01 -0.17554977684E+02  0.74639482057E+02  0.00000000000E+00 0.  1.
         11    1    3    3    0    0  0.24252959494E+02 -0.49056004764E+02 -0.88863882035E+02  0.10436228810E+03  0.00000000000E+00 0. -1.
</event>
<event>
 7    1  0.6145388E-006  0.9358483E+02  0.7561462E-02  0.1294396E+00
          2   -1    0    0  501    0  0.00000000000E+00  0.00000000000E+00  0.46964759787E+02  0.46964759787E+02  0.00000000000E+00 0. -1.
         -2   -1    0    0    0  501 -0.00000000000E+00 -0.00000000000E+00 -0.66013744214E+03  0.66013744214E+03  0.00000000000E+00 0.  1.
         23    2    1    2    0    0  0.15264158097E+02  0.34020091656E+02 -0.19105803722E+02  0.98365678210E+02  0.88996706429E+02 0.  0.
          5    1    1    2  502    0  0.30115472221E+02  0.33441485251E+02 -0.30844235671E+03  0.31173616155E+03  0.41800000000E+01 0. -1.
         -5    1    1    2    0  502 -0.45379630317E+02 -0.67461576906E+02 -0.28562452192E+03  0.29700036217E+03  0.41800000000E+01 0.  1.
        -11    1    3    3    0    0  0.24604089774E+02  0.41734647757E+02  0.23660875839E+02  0.53916408472E+02  0.00000000000E+00 0. -1.
         11    1    3    3    0    0 -0.93399316773E+01 -0.77145561013E+01 -0.42766679561E+02  0.44449269738E+02  0.00000000000E+00 0.  1.
</event>
<event>
 7    1  0.6145388E-006  0.1081668E+03  0.7561462E-02  0.1264003E+00
         -1   -1    0    0    0  501 -0.00000000000E+00  0.00000000000E+00  0.23739303995E+03  0.23739303995E+03  0.00000000000E+00 0.  1.
          1   -1    0    0  501    0  0.00000000000E+00 -0.00000000000E+00 -0.76371548273E+02  0.76371548273E+02  0.00000000000E+00 0. -1.
         23    2    1    2    0    0 -0.74557391023E+02  0.18557983172E+02  0.57723984551E+02  0.13426136576E+03  0.93759546974E+02 0.  0.
          5    1    1    2  502    0  0.61639666048E+01 -0.26066306530E+02  0.10708975911E+03  0.11046780403E+03  0.41800000000E+01 0.  1.
         -5    1    1    2    0  502  0.68393424418E+02  0.75083233585E+01 -0.37922519803E+01  0.69035418434E+02  0.41800000000E+01 0.  1.
        -11    1    3    3    0    0 -0.45256121427E+02 -0.36356005844E+02  0.36148685680E+02  0.68385694147E+02  0.00000000000E+00 0. -1.
         11    1    3    3    0    0 -0.29301269596E+02  0.54913989016E+02  0.21575298871E+02  0.65875671617E+02  0.00000000000E+00 0.  1.
</event>
<event>
 7    1  0.6145388E-006  0.1305070E+03  0.7561462E-02  0.1226705E+00
         -2   -1    0    0    0  501 -0.00000000000E+00  0.00000000000E+00  0.54720442152E+02  0.54720442152E+02  0.00000000000E+00 0.  1.
          2   -1    0    0  501    0  0.00000000000E+00 -0.00000000000E+00 -0.55071916572E+03  0.55071916572E+03  0.00000000000E+00 0. -1.
         23    2    1    2    0    0 -0.80225510580E+02 -0.76138308041E+02 -0.35522057912E+03  0.38321023882E+03  0.91843632357E+02 0.  0.
          5    1    1    2  502    0  0.19077787395E+02 -0.55258626619E+01 -0.11519240819E+03  0.11696692026E+03  0.41800000000E+01 0. -1.
         -5    1    1    2    0  502  0.61147723186E+02  0.81664170703E+02 -0.25585736260E+02  0.10526244880E+03  0.41800000000E+01 0.  1.
        -11    1    3    3    0    0 -0.73450981790E+02 -0.94124274974E+02 -0.26045979603E+03  0.28652003632E+03  0.00000000000E+00 0. -1.
         11    1    3    3    0    0 -0.67745287907E+01  0.17985966933E+02 -0.94760783091E+02  0.96690202497E+02  0.00000000000E+00 0.  1.
</event>
<event>
 6    1  0.6145388E-006  0.7181668E+02  0.7561462E-02  0.1354022E+00
          1   -1    0    0  501    0  0.00000000000E+00  0.00000000000E+00  0.11456966062E+03  0.11456966062E+03  0.00000000000E+00 0. -1.
         -1   -1    0    0    0  501 -0.00000000000E+00 -0.00000000000E+00 -0.21751304160E+03  0.21751304160E+03  0.00000000000E+00 0.  1.
          5    1    1    2  502    0 -0.48004107764E+02 -0.20917996184E+02  0.40560371586E+02  0.66366957665E+02  0.41800000000E+01 0. -1.
         -5    1    1    2    0  502  0.35517868094E+02  0.46358169862E+02 -0.19552557272E+03  0.20410370123E+03  0.41800000000E+01 0.  1.
        -11    1    1    2    0    0  0.11800375888E+02 -0.62545122093E+01  0.26506388453E+02  0.29680910075E+02  0.00000000000E+00 0.  1.
         11    1    1    2    0    0  0.68586378183E+00 -0.19185661469E+02  0.25515431707E+02  0.31931133245E+02  0.00000000000E+00 0. -1.
</event>
<event>
 7    1  0.6145388E-006  0.9285004E+02  0.7561462E-02  0.1296093E+00
         -1   -1    0    0    0  501 -0.00000000000E+00  0.00000000000E+00  0.29543176904E+02  0.29543176904E+02  0.00000000000E+00 0.  1.
          1   -1    0    0  501    0  0.00000000000E+00 -0.00000000000E+00 -0.59909777634E+03  0.59909777634E+03  0.00000000000E+00 0. -1.
         23    2    1    2    0    0  0.21055755189E+02  0.63077810151E+02 -0.34081240117E+03  0.35958245948E+03  0.93403947509E+02 0.  0.
          5    1    1    2  502    0 -0.22884562976E+02 -0.25112657515E+02 -0.22826465134E+03  0.23081718360E+03  0.41800000000E+01 0. -1.
         -5    1    1    2    0  502  0.18288077875E+01 -0.37965152636E+02 -0.47754692029E+00  0.38241310172E+02  0.41800000000E+01 0. -1.
        -11    1    3    3    0    0 -0.70568311298E+01 -0.22275232281E+02 -0.49763316713E+02  0.54976108711E+02  0.00000000000E+00 0.  1.
         11    1    3    3    0    0  0.28112586318E+02  0.85353042432E+02 -0.29104908446E+03  0.30460635077E+03  0.00000000000E+00 0. -1.
</event>
<event>
 7    1  0.6145388E-006  0.3514748E+03  0.7561462E-02  0.1062011E+00
          1   -1    0    0  501    0  0.00000000000E+00  0.00000000000E+00  0.19460499723E+03  0.19460499723E+03  0.00000000000E+00 0. -1.
         -1   -1    0    0    0  501 -0.00000000000E+00 -0.00000000000E+00 -0.77070369738E+03  0.77070369738E+03  0.00000000000E+00 0.  1.
         23    2    1    2    0    0  0.17442667222E+03 -0.29763465100E+03 -0.11271785481E+03  0.37422676667E+03  0.91265046104E+02 0.  0.
          5    1    1    2  502    0 -0.16096136064E+03  0.22564117138E+03 -0.28200871871E+03  0.39543506125E+03  0.41800000000E+01 0. -1.
         -5    1    1    2    0  502 -0.13465311583E+02  0.71993479624E+02 -0.18137212663E+03  0.19564686668E+03  0.41800000000E+01 0. -1.
        -11    1    3    3    0    0  0.16336475501E+03 -0.29951230334E+03 -0.96585846202E+02  0.35457649206E+03  0.00000000000E+00 0.  1.
         11    1    3    3    0    0  0.11061917210E+02  0.18776523389E+01 -0.16132008608E+02  0.19650274614E+02  0.00000000000E+00 0. -1.
</event>
<event>
 7    1  0.6145388E-006  0.1090111E+03  0.7561462E-02  0.1262412E+00
         -2   -1    0    0    0  501 -0.00000000000E+00  0.00000000000E+00  0.14135509175E+03  0.14135509175E+03  0.00000000000E+00 0.  1.
          2   -1    0    0  501    0  0.00000000000E+00 -0.00000000000E+00 -0.12239055014E+03  0.12239055014E+03  0.00000000000E+00 0. -1.
         23    2    1    2    0    0  0.45506042327E+02  0.54923395590E+02 -0.54207436129E+01  0.11770005371E+03  0.93469454421E+02 0.  0.
          5    1    1    2  502    0  0.34736026635E+02 -0.49045206025E+02  0.25629574808E+02  0.65470384796E+02  0.41800000000E+01 0. -1.
         -5    1    1    2    0  502 -0.80242068962E+02 -0.58781895649E+01 -0.12442895824E+01  0.80575203385E+02  0.41800000000E+01 0. -1.
        -11    1    3    3    0    0  0.33388852035E+02  0.17137539492E+02 -0.47052363270E+02  0.60186672855E+02  0.00000000000E+00 0. -1.
         11    1    3    3    0    0  0.12117190292E+02  0.37785856098E+02  0.41631619657E+02  0.57513380851E+02  0.00000000000E+00 0.  1.
</event>
<event>
 7    1  0.6145388E-006  0.1095394E+03  0.7561462E-02  0.1261425E+00
         -2   -1    0    0    0  501 -0.00000000000E+00  0.00000000000E+00  0.53595980647E+02  0.53595980647E+02  0.00000000000E+00 0.  1.
          2   -1    0    0  501    0  0.00000000000E+00 -0.00000000000E+00 -0.29114876146E+03  0.29114876146E+03  0.00000000000E+00 0. -1.
         23    2    1    2    0    0  0.38842681311E+02 -0.31416133051E+02 -0.14026420992E+03  0.17858777787E+03  0.98609424065E+02 0.  0.
          5    1    1    2  502    0  0.42131321132E+02  0.14696256043E+02 -0.10129771526E+02  0.45946847913E+02  0.41800000000E+01 0. -1.
         -5    1    1    2    0  502 -0.80974002442E+02  0.16719877008E+02 -0.87158799369E+02  0.12021011632E+03  0.41800000000E+01 0. -1.
        -11    1    3    3    0    0  0.37743346725E+02 -0.55635781125E+02 -0.13888799423E+03  0.15430416490E+03  0.00000000000E+00 0. -1.
         11    1    3    3    0    0  0.10993345853E+01  0.24219648074E+02 -0.13762156834E+01  0.24283612972E+02  0.00000000000E+00 0.  1.
</event>
<event>
 7    1  0.6145388E-006  0.1505462E+03  0.7561462E-02  0.1199803E+00
         -3   -1    0    0    0  501 -0.00000000000E+00  0.00000000000E+00  0.82689471746E+03  0.82689471746E+03  0.00000000000E+00 0.  1.
          3   -1    0    0  501    0  0.00000000000E+00 -0.00000000000E+00 -0.32507797231E+02  0.32507797231E+02  0.00000000000E+00 0. -1.
         23    2    1    2    0    0  0.75468195424E+02  0.75889760108E+02  0.21535741275E+03  0.25742529252E+03  0.91838237087E+02 0.  0.
          5    1    1    2  502    0  0.32564086294E+02 -0.37310597832E+02  0.18637228908E+03  0.19288494748E+03  0.41800000000E+01 0.  1.
         -5    1    1    2    0  502 -0.10803228172E+03 -0.38579162276E+02  0.39265721841E+03  0.40909227470E+03  0.41800000000E+01 0.  1.
        -11    1    3    3    0    0  0.19036919578E+02  0.77844222508E+02  0.15672192252E+03  0.17602240847E+03  0.00000000000E+00 0.  1.
         11    1    3    3    0    0  0.56431275845E+02 -0.19544623997E+01  0.58635490230E+02  0.81402884048E+02  0.00000000000E+00 0. -1.
</event>
<event>
 7    1  0.6145388E-006  0.8994608E+02  0.7561462E-02  0.1302982E+00
          2   -1    0    0  501    0  0.00000000000E+00  0.00000000000E+00  0.72526320091E+03  0.72526320091E+03  0.00000000000E+00 0.  1.
         -2   -1    0    0    0  501 -0.00000000000E+00 -0.00000000000E+00 -0.18615355339E+02  0.18615355339E+02  0.00000000000E+00 0. -1.
         23    2    1    2    0    0 -0.18948991435E+02 -0.26646492641E+02  0.26519630117E+03  0.28388345170E+03  0.95873020980E+02 0.  0.
          5    1    1    2  502    0  0.36011857157E+02  0.58769830562E+02  0.13768936393E+03  0.15403434740E+03  0.41800000000E+01 0. -1.
         -5    1    1    2    0  502 -0.17062865722E+02 -0.32123337921E+02  0.30376218047E+03  0.30596075714E+03  0.41800000000E+01 0. -1.
        -11    1    3    3    0    0 -0.42327353457E+02 -0.28096018231E+02  0.25185362219E+03  0.25692652277E+03  0.00000000000E+00 0.  1.
         11    1    3    3    0    0  0.23378362022E+02  0.14495255903E+01  0.13342678973E+02  0.26956928932E+02  0.00000000000E+00 0. -1.
</event>
<event>
 7    1  0.6145388E-006  0.1101300E+03  0.7561462E-02  0.1260329E+00
          1   -1    0    0  501    0  0.00000000000E+00  0.00000000000E+00  0.38179112647E+03  0.38179112647E+03  0.00000000000E+00 0. -1.
         -1   -1    0    0    0  501 -0.00000000000E+00 -0.00000000000E+00 -0.39037712049E+02  0.39037712049E+02  0.00000000000E+00 0.  1.
         23    2    1    2    0    0  0.37127974336E+02  0.36168710263E+02  0.19230953691E+03  0.21842303536E+03  0.89660483550E+02 0.  0.
          5    1    1    2  502    0  0.23368056317E+02  0.34459784072E+02  0.54663068904E+02  0.68840876493E+02  0.41800000000E+01 0.  1.
         -5    1    1    2    0  502 -0.60496030653E+02 -0.70628494335E+02  0.95780808606E+02  0.13356492666E+03  0.41800000000E+01 0.  1.
        -11    1    3    3    0    0 -0.16292568232E+02 -0.59011561629E+01  0.34137927111E+01  0.17661410032E+02  0.00000000000E+00 0.  1.
         11    1    3    3    0    0  0.53420542568E+02  0.42069866426E+02  0.18889574420E+03  0.20076162533E+03  0.00000000000E+00 0. -1.
</event>
<event>
 7    1  0.6145388E-006  0.1212849E+03  0.7561462E-02  0.1240992E+00
         -2   -1    0    0    0  501 -0.00000000000E+00  0.00000000000E+00  0.29718959442E+02  0.29718959442E+02  0.00000000000E+00 0. -1.
          2   -1    0    0  501    0  0.00000000000E+00 -0.00000000000E+00 -0.53453033302E+03  0.53453033302E+03  0.00000000000E+00 0.  1.
         23    2    1    2    0    0  0.55206372317E+02  0.29407199799E+01 -0.29727254574E+03  0.31570186562E+03  0.90776153946E+02 0.  0.
          5    1    1    2  502    0 -0.74161879525E+02 -0.47400353504E+02 -0.12853857641E+03  0.15584099561E+03  0.41800000000E+01 0. -1.
         -5    1    1    2    0  502  0.18955507207E+02  0.44459633525E+02 -0.79000251421E+02  0.92706431229E+02  0.41800000000E+01 0. -1.
        -11    1    3    3    0    0 -0.24497796322E+02 -0.73503073670E+01 -0.83128451425E+02  0.86974182832E+02  0.00000000000E+00 0. -1.
         11    1    3    3    0    0  0.79704168639E+02  0.10291027347E+02 -0.21414409432E+03  0.22872768279E+03  0.00000000000E+00 0.  1.
</event>
<event>
 7    1  0.6145388E-006  0.1117854E+03  0.7561462E-02  0.1257299E+00
          1   -1    0    0  501    0  0.00000000000E+00  0.00000000000E+00  0.19029611596E+03  0.19029611596E+03  0.00000000000E+00 0. -1.
         -1   -1    0    0    0  501 -0.00000000000E+00 -0.00000000000E+00 -0.17674497076E+03  0.17674497076E+03  0.00000000000E+00 0.  1.
         23    2    1    2    0    0 -0.50929290125E+02  0.49188384618E+01  0.15000080161E+03  0.18295057147E+03  0.91393016983E+02 0.  0.
          5    1    1    2  502    0 -0.13122371284E+02 -0.43145059627E+02 -0.73807096608E+02  0.86594761436E+02  0.41800000000E+01 0. -1.
         -5    1    1    2    0  502  0.64051661409E+02  0.38226221165E+02 -0.62642559800E+02  0.97495753816E+02  0.41800000000E+01 0.  1.
        -11    1    3    3    0    0 -0.83365873053E+01  0.44592487970E+02  0.52385667917E+02  0.69298245825E+02  0.00000000000E+00 0.  1.
         11    1    3    3    0    0 -0.42592702820E+02 -0.39673649508E+02  0.97615133689E+02  0.11365232564E+03  0.00000000000E+00 0. -1.
</event>
<event>
 7    1  0.6145388E-006  0.9850697E+02  0.7561462E-02  0.1283467E+00
          1   -1    0    0  501    0  0.00000000000E+00  0.00000000000E+00  0.45955351456E+03  0.45955351456E+03  0.00000000000E+00 0. -1.
         -1   -1    0    0    0  501 -0.00000000000E+00 -0.00000000000E+00 -0.28739853724E+02  0.28739853724E+02  0.00000000000E+00 0.  1.
         23    2    1    2    0    0 -0.22849008588E+02 -0.72815226693E+01  0.23644090218E+03  0.25590507622E+03  0.94910537077E+02 0.  0.
          5    1    1    2  502    0  0.70704409143E+02 -0.72235922066E+01  0.77716858473E+02  0.10539770513E+03  0.41800000000E+01 0. -1.
         -5    1    1    2    0  502 -0.47855400555E+02  0.14505114876E+02  0.11665590018E+03  0.12699058692E+03  0.41800000000E+01 0. -1.
        -11    1    3    3    0    0 -0.14096580614E+02 -0.39663974560E+02  0.20711401691E+03  0.21134843378E+03  0.00000000000E+00 0.  1.
         11    1    3    3    0    0 -0.87524279742E+01  0.32382451891E+02  0.29326885271E+02  0.44556642441E+02  0.00000000000E+00 0. -1.
</event>
<event>
 7    1  0.6145388E-006  0.1108517E+03  0.7561462E-02  0.1259001E+00
          1   -1    0    0  501    0  0.00000000000E+00  0.00000000000E+00  0.57869804681E+03  0.57869804681E+03  0.00000000000E+00 0. -1.
         -1   -1    0    0    0  501 -0.00000000000E+00 -0.00000000000E+00 -0.22256588978E+02  0.22256588978E+02  0.00000000000E+00 0.  1.
         23    2    1    2    0    0  0.81688146266E+01  0.26597393475E+02  0.28400758819E+03  0.29988649723E+03  0.92181615296E+02 0.  0.
          5    1    1    2  502    0 -0.19293378342E+02  0.47575056643E+02  0.13414606109E+03  0.14369501929E+03  0.41800000000E+01 0. -1.
         -5    1    1    2    0  502  0.11124563716E+02 -0.74172450118E+02  0.13828780854E+03  0.15737311926E+03  0.41800000000E+01 0. -1.
        -11    1    3    3    0    0 -0.32388751187E+02  0.40810285391E+02  0.13167952194E+03  0.14161217142E+03  0.00000000000E+00 0.  1.
         11    1    3    3    0    0  0.40557565814E+02 -0.14212891916E+02  0.15232806626E+03  0.15827432581E+03  0.00000000000E+00 0. -1.
</event>
<event>
 7    1  0.6145388E-006  0.1181250E+03  0.7561462E-02  0.1246223E+00
         -3   -1    0    0    0  501 -0.00000000000E+00  0.00000000000E+00  0.53294037165E+02  0.53294037165E+02  0.00000000000E+00 0.  1.
          3   -1    0    0  501    0  0.00000000000E+00 -0.00000000000E+00 -0.29361435391E+03  0.29361435391E+03  0.00000000000E+00 0. -1.
         23    2    1    2    0    0 -0.58135932239E+02 -0.38172731850E+01 -0.12844060504E+03  0.16926099694E+03  0.93583854742E+02 0.  0.
          5    1    1    2  502    0  0.95920451359E+01 -0.54135912718E+02 -0.20144524564E+02  0.58702458599E+02  0.41800000000E+01 0.  1.
         -5    1    1    2    0  502  0.48543887103E+02  0.57953185903E+02 -0.91735187136E+02  0.11894493554E+03  0.41800000000E+01 0.  1.
        -11    1    3    3    0    0 -0.30522111216E+02 -0.45865922977E+02 -0.91662670364E+02  0.10694544077E+03  0.00000000000E+00 0. -1.
         11    1    3    3    0    0 -0.27613821023E+02  0.42048649792E+02 -0.36777934679E+02  0.62315556164E+02  0.00000000000E+00 0.  1.
</event>
<event>
 7    1  0.6145388E-006  0.9678134E+02  0.7561462E-02  0.1287214E+00
         -1   -1    0    0    0  501 -0.00000000000E+00  0.00000000000E+00  0.23598973084E+03  0.23598973084E+03  0.00000000000E+00 0.  1.
          1   -1    0    0  501    0  0.00000000000E+00 -0.00000000000E+00 -0.55021588754E+02  0.55021588754E+02  0.00000000000E+00 0. -1.
         23    2    1    2    0    0 -0.18304676265E+02 -0.23192589731E+01  0.37220781902E+02  0.99583445588E+02  0.90504341854E+02 0.  0.
          5    1    1    2  502    0  0.12430255747E+02 -0.48321157261E+02  0.12872009842E+03  0.13811510285E+03  0.41800000000E+01 0.  1.
         -5    1    1    2    0  502  0.58744205179E+01  0.50640416234E+02  0.15027261763E+02  0.53312771161E+02  0.41800000000E+01 0.  1.
        -11    1    3    3    0    0  0.36959815376E+02  0.10572327533E+01  0.13804546902E+02  0.39467850320E+02  0.00000000000E+00 0.  1.
         11    1    3    3    0    0 -0.55264491642E+02 -0.33764917264E+01  0.23416235001E+02  0.60115595268E+02  0.00000000000E+00 0. -1.
</event>
<event>
 7    1  0.6145388E-006  0.9473363E+02  0.7561462E-02  0.1291777E+00
          2   -1    0    0  501    0  0.00000000000E+00  0.00000000000E+00  0.36830629060E+03  0.36830629060E+03  0.00000000000E+00 0. -1.
         -2   -1    0    0    0  501 -0.00000000000E+00 -0.00000000000E+00 -0.38437582566E+02  0.38437582566E+02  0.00000000000E+00 0.  1.
         23    2    1    2    0    0  0.40320161287E+02 -0.15831677446E+02  0.19579801951E+03  0.21832665152E+03  0.86332525174E+02 0.  0.
          5    1    1    2  502    0 -0.72244423279E+02 -0.81304608668E+01  0.33544500683E+02  0.80175226940E+02  0.41800000000E+01 0.  1.
         -5    1    1    2    0  502  0.31924261992E+02  0.23962138313E+02  0.10052618784E+03  0.10824199470E+03  0.41800000000E+01 0.  1.
        -11    1    3    3    0    0 -0.11994665994E+02  0.12243223707E+02  0.40700784353E+01  0.17616301471E+02  0.00000000000E+00 0.  1.
         11    1    3    3    0    0  0.52314827281E+02 -0.28074901152E+02  0.19172794107E+03  0.20071035005E+03  0.00000000000E+00 0. -1.
</event>
<event>
 7    1  0.6145388E-006  0.1403548E+03  0.7561462E-02  0.1212852E+00
         -2   -1    0    0    0  501 -0.00000000000E+00  0.00000000000E+00  0.10778621944E+03  0.10778621944E+03  0.00000000000E+00 0.  1.
          2   -1    0    0  501    0  0.00000000000E+00 -0.00000000000E+00 -0.20839835374E+03  0.20839835374E+03  0.00000000000E+00 0. -1.
         23    2    1    2    0    0 -0.10134753257E+03  0.13929939948E+02 -0.57838121810E+02  0.14902909737E+03  0.91646374421E+02 0.  0.
          5    1    1    2  502    0 -0.20200995519E+02 -0.28851374198E+02  0.46393874757E+01  0.35769796326E+02  0.41800000000E+01 0. -1.
         -5    1    1    2    0  502  0.12154852808E+03  0.14921434249E+02 -0.47413399965E+02  0.13138567949E+03  0.41800000000E+01 0. -1.
        -11    1    3    3    0    0 -0.48342312368E+02 -0.27335243988E+02 -0.60082444469E+02  0.81817448398E+02  0.00000000000E+00 0. -1.
         11    1    3    3    0    0 -0.53005220197E+02  0.41265183937E+02  0.22443226581E+01  0.67211648973E+02  0.00000000000E+00 0.  1.
</event>
<event>
 7    1  0.6145388E-006  0.1102180E+03  0.7561462E-02  0.1260167E+00
          1   -1    0    0  501    0  0.00000000000E+00  0.00000000000E+00  0.46539876533E+03  0.46539876533E+03  0.00000000000E+00 0. -1.
         -1   -1    0    0    0  501 -0.00000000000E+00 -0.00000000000E+00 -0.57830326690E+02  0.57830326690E+02  0.00000000000E+00 0.  1.
         23    2    1    2    0    0 -0.75709889467E+02  0.45841306277E+02  0.32835518911E+03  0.35073165555E+03  0.85802979356E+02 0.  0.
          5    1    1    2  502    0  0.14269328172E+02  0.95613479573E+01 -0.30362594009E+02  0.35133924008E+02  0.41800000000E+01 0. -1.
         -5    1    1    2    0  502  0.61440561295E+02 -0.55402654235E+02  0.10957584355E+03  0.13736351247E+03  0.41800000000E+01 0. -1.
        -11    1    3    3    0    0  0.13925003048E+02  0.23867646600E+02  0.11496846247E+03  0.11824262187E+03  0.00000000000E+00 0.  1.
         11    1    3    3    0    0 -0.89634892516E+02  0.21973659677E+02  0.21338672663E+03  0.23248903368E+03  0.00000000000E+00 0. -1.
</event>
<event>
 7    1  0.6145388E-006  0.1568807E+03  0.7561462E-02  0.1192264E+00
          2   -1    0    0  501    0  0.00000000000E+00  0.00000000000E+00  0.71991109564E+03  0.71991109564E+03  0.00000000000E+00 0.  1.
         -2   -1    0    0    0  501 -0.00000000000E+00 -0.00000000000E+00 -0.47817452913E+02  0.47817452913E+02  0.00000000000E+00 0. -1.
         23    2    1    2    0    0  0.11898152427E+03  0.91638167930E+02  0.32572559885E+03  0.37001986315E+03  0.90903115663E+02 0.  0.
          5    1    1    2  502    0 -0.33320592543E+02 -0.46884914725E+02  0.26380444210E+02  0.63418115337E+02  0.41800000000E+01 0. -1.
         -5    1    1    2    0  502 -0.85660931729E+02 -0.44753253205E+02  0.31998759967E+03  0.33429057007E+03  0.41800000000E+01 0. -1.
        -11    1    3    3    0    0  0.86721946023E+02  0.33700639654E+02  0.10865761304E+03  0.14304861378E+03  0.00000000000E+00 0.  1.
         11    1    3    3    0    0  0.32259578250E+02  0.57937528276E+02  0.21706798581E+03  0.22697124936E+03  0.00000000000E+00 0. -1.
</event>
<event>
 7    1  0.6145388E-006  0.1479018E+03  0.7561462E-02  0.1203075E+00
         -2   -1    0    0    0  501 -0.00000000000E+00  0.00000000000E+00  0.60596194239E+02  0.60596194239E+02  0.00000000000E+00 0.  1.
          2   -1    0    0  501    0  0.00000000000E+00 -0.00000000000E+00 -0.49484831274E+03  0.49484831274E+03  0.00000000000E+00 0. -1.
         23    2    1    2    0    0  0.64132656291E+02  0.11289420283E+03 -0.26386361506E+03  0.30737611032E+03  0.89431354739E+02 0.  0.
          5    1    1    2  502    0 -0.55684984351E+02 -0.12896165612E+03 -0.17897616233E+03  0.22755629043E+03  0.41800000000E+01 0. -1.
         -5    1    1    2    0  502 -0.84476719396E+01  0.16067453296E+02  0.85876588867E+01  0.20512106225E+02  0.41800000000E+01 0. -1.
        -11    1    3    3    0    0  0.59882724490E+02  0.64309779659E+02 -0.23455981475E+03  0.25047953040E+03  0.00000000000E+00 0. -1.
         11    1    3    3    0    0  0.42499318013E+01  0.48584423169E+02 -0.29303800312E+02  0.56896579930E+02  0.00000000000E+00 0.  1.
</event>
<event>
 7    1  0.6145388E-006  0.1331207E+03  0.7561462E-02  0.1222897E+00
          1   -1    0    0  501    0  0.00000000000E+00  0.00000000000E+00  0.39272068593E+02  0.39272068593E+02  0.00000000000E+00 0. -1.
         -1   -1    0    0    0  501 -0.00000000000E+00 -0.00000000000E+00 -0.58251474910E+03  0.58251474910E+03  0.00000000000E+00 0.  1.
         23    2    1    2    0    0  0.31164184976E+02 -0.94256794878E+02 -0.18041946294E+03  0.22537227967E+03  0.91574734686E+02 0.  0.
          5    1    1    2  502    0  0.23322514374E+02  0.67545943883E+02 -0.30210737414E+03  0.31047178958E+03  0.41800000000E+01 0. -1.
         -5    1    1    2    0  502 -0.54486699349E+02  0.26710850995E+02 -0.60715843428E+02  0.85942748444E+02  0.41800000000E+01 0. -1.
        -11    1    3    3    0    0 -0.29181201367E+02 -0.53732424127E+02 -0.67473648134E+02  0.91057174942E+02  0.00000000000E+00 0. -1.
         11    1    3    3    0    0  0.60345386343E+02 -0.40524370751E+02 -0.11294581480E+03  0.13431510473E+03  0.00000000000E+00 0.  1.
</event>
<event>
 7    1  0.6145388E-006  0.1254181E+03  0.7561462E-02  0.1234417E+00
         -2   -1    0    0    0  501 -0.00000000000E+00  0.00000000000E+00  0.50698239490E+02  0.50698239490E+02  0.00000000000E+00 0.  1.
          2   -1    0    0  501    0  0.00000000000E+00 -0.00000000000E+00 -0.43115245772E+03  0.43115245772E+03  0.00000000000E+00 0. -1.
         23    2    1    2    0    0  0.79507576560E+02 -0.53580107967E+02 -0.12416584319E+03  0.18097783282E+03  0.90241546183E+02 0.  0.
          5    1    1    2  502    0 -0.97862508576E+02  0.25032324392E+02 -0.10497116183E+03  0.14573985408E+03  0.41800000000E+01 0. -1.
         -5    1    1    2    0  502  0.18354932016E+02  0.28547783575E+02 -0.15131721320E+03  0.15513301031E+03  0.41800000000E+01 0. -1.
        -11    1    3    3    0    0  0.81864491263E+02 -0.64592774349E+02 -0.13128091347E+03  0.16765649307E+03  0.00000000000E+00 0. -1.
         11    1    3    3    0    0 -0.23569147039E+01  0.11012666382E+02  0.71150702752E+01  0.13321339752E+02  0.00000000000E+00 0.  1.
</event>
<event>
 7    1  0.6145388E-006  0.9778197E+02  0.7561462E-02  0.1285031E+00
         -1   -1    0    0    0  501 -0.00000000000E+00  0.00000000000E+00  0.20232836357E+03  0.20232836357E+03  0.00000000000E+00 0.  1.
          1   -1    0    0  501    0  0.00000000000E+00 -0.00000000000E+00 -0.75553088740E+02  0.75553088740E+02  0.00000000000E+00 0. -1.
         23    2    1    2    0    0 -0.44337595821E+01  0.51267396343E+02  0.20351771429E+02  0.10577192794E+03  0.90141566373E+02 0.  0.
          5    1    1    2  502    0  0.59609087558E+01  0.39508866867E+02  0.14150479323E+02  0.42593326466E+02  0.41800000000E+01 0. -1.
         -5    1    1    2    0  502 -0.15271491737E+01 -0.90776263211E+02  0.92273024077E+02  0.12951619790E+03  0.41800000000E+01 0. -1.
        -11    1    3    3    0    0 -0.19968938952E+02  0.41765874923E+02  0.51774859895E+02  0.69453458863E+02  0.00000000000E+00 0.  1.
         11    1    3    3    0    0  0.15535179370E+02  0.95015214204E+01 -0.31423088466E+02  0.36318469077E+02  0.00000000000E+00 0. -1.
</event>
<event>
 7    1  0.6145388E-006  0.1080233E+03  0.7561462E-02  0.1264275E+00
         -4   -1    0    0    0  501 -0.00000000000E+00  0.00000000000E+00  0.49150383667E+02  0.49150383667E+02  0.00000000000E+00 0.  1.
          4   -1    0    0  501    0  0.00000000000E+00 -0.00000000000E+00 -0.27228785119E+03  0.27228785119E+03  0.00000000000E+00 0. -1.
         23    2    1    2    0    0 -0.27506733265E+02 -0.20467019461E+02 -0.12827791902E+03  0.16074735204E+03  0.90603352149E+02 0.  0.
          5    1    1    2  502    0  0.26807127483E+02  0.67534236806E+02 -0.85908086415E+02  0.11259292578E+03  0.41800000000E+01 0. -1.
         -5    1    1    2    0  502  0.69960578186E+00 -0.47067217345E+02 -0.89514620882E+01  0.48097957029E+02  0.41800000000E+01 0. -1.
        -11    1    3    3    0    0 -0.11046005075E+02 -0.55877750859E+02 -0.86421673818E+02  0.10350383072E+03  0.00000000000E+00 0. -1.
         11    1    3    3    0    0 -0.16460728190E+02  0.35410731398E+02 -0.41856245199E+02  0.57243521317E+02  0.00000000000E+00 0.  1.
</event>
<event>
 7    1  0.6145388E-006  0.8964954E+02  0.7561462E-02  0.1303703E+00
         -1   -1    0    0    0  501 -0.00000000000E+00  0.00000000000E+00  0.35346203240E+02  0.35346203240E+02  0.00000000000E+00 0.  1.
          1   -1    0    0  501    0  0.00000000000E+00 -0.00000000000E+00 -0.42987089626E+03  0.42987089626E+03  0.00000000000E+00 0. -1.
         23    2    1    2    0    0 -0.16499355213E+02  0.22960605610E+00 -0.28099919326E+03  0.29548952352E+03  0.89895664270E+02 0.  0.
          5    1    1    2  502    0  0.39586859273E+02  0.30286042547E+02 -0.17421380674E+00  0.50018662025E+02  0.41800000000E+01 0.  1.
         -5    1    1    2    0  502 -0.23087504060E+02 -0.30515648604E+02 -0.11335128595E+03  0.11970891395E+03  0.41800000000E+01 0.  1.
        -11    1    3    3    0    0  0.12395916034E+02 -0.39648684134E+02 -0.14571179013E+03  0.15151766455E+03  0.00000000000E+00 0. -1.
         11    1    3    3    0    0 -0.28895271247E+02  0.39878290190E+02 -0.13528740313E+03  0.14397185897E+03  0.00000000000E+00 0.  1.
</event>
<event>
 7    1  0.6145388E-006  0.1115977E+03  0.7561462E-02  0.1257639E+00
          4   -1    0    0  501    0  0.00000000000E+00  0.00000000000E+00  0.49281157604E+02  0.49281157604E+02  0.00000000000E+00 0. -1.
         -4   -1    0    0    0  501 -0.00000000000E+00 -0.00000000000E+00 -0.48624009576E+03  0.48624009576E+03  0.00000000000E+00 0.  1.
         23    2    1    2    0    0 -0.75628176921E+02 -0.68103038829E+02 -0.12202413758E+03  0.18170138876E+03  0.88135460987E+02 0.  0.
          5    1    1    2  502    0  0.14246766723E+02 -0.12676567736E+02  0.32807179358E+01  0.19796495695E+02  0.41800000000E+01 0.  1.
         -5    1    1    2    0  502  0.61381410197E+02  0.80779606565E+02 -0.31821551852E+03  0.33402336892E+03  0.41800000000E+01 0.  1.
        -11    1    3    3    0    0 -0.58058084360E+02 -0.56915196295E+02 -0.13468789045E+03  0.15732421480E+03  0.00000000000E+00 0.  1.
         11    1    3    3    0    0 -0.17570092561E+02 -0.11187842535E+02  0.12663752876E+02  0.24377173956E+02  0.00000000000E+00 0. -1.
</event>
<event>
 7    1  0.6145388E-006  0.8682578E+02  0.7561462E-02  0.1310726E+00
         -4   -1    0    0    0  501 -0.00000000000E+00  0.00000000000E+00  0.39062095271E+03  0.39062095271E+03  0.00000000000E+00 0. -1.
          4   -1    0    0  501    0  0.00000000000E+00 -0.00000000000E+00 -0.34693526833E+02  0.34693526833E+02  0.00000000000E+00 0.  1.
         23    2    1    2    0    0 -0.12970066822E+01  0.39434146298E+02  0.14279835453E+03  0.17505769444E+03  0.93258201816E+02 0.  0.
          5    1    1    2  502    0  0.17028134792E+02 -0.50860912152E+02  0.22203979483E+03  0.22846429184E+03  0.41800000000E+01 0.  1.
         -5    1    1    2    0  502 -0.15731128110E+02  0.11426765854E+02 -0.89107234815E+01  0.21792493260E+02  0.41800000000E+01 0.  1.
        -11    1    3    3    0    0  0.44312598516E+02  0.92354903643E+01  0.50935637839E+02  0.68142056556E+02  0.00000000000E+00 0.  1.
         11    1    3    3    0    0 -0.45609605199E+02  0.30198655934E+02  0.91862716691E+02  0.10691563789E+03  0.00000000000E+00 0. -1.
</event>
<event>
 7    1  0.6145388E-006  0.9439691E+02  0.7561462E-02  0.1292540E+00
         -1   -1    0    0    0  501 -0.00000000000E+00  0.00000000000E+00  0.30439300883E+03  0.30439300883E+03  0.00000000000E+00 0.  1.
          1   -1    0    0  501    0  0.00000000000E+00 -0.00000000000E+00 -0.40958960250E+02  0.40958960250E+02  0.00000000000E+00 0. -1.
         23    2    1    2    0    0 -0.17014809020E+02 -0.69272178146E+01  0.71031837831E+02  0.11519073748E+03  0.88802555946E+02 0.  0.
          5    1    1    2  502    0 -0.54339937637E+02  0.34763043167E+01  0.77866521096E+02  0.95108259482E+02  0.41800000000E+01 0.  1.
         -5    1    1    2    0  502  0.71354746657E+02  0.34509134979E+01  0.11453568966E+03  0.13505297213E+03  0.41800000000E+01 0.  1.
        -11    1    3    3    0    0  0.22503230517E+02 -0.90414923775E-02  0.71615145650E+02  0.75067466668E+02  0.00000000000E+00 0.  1.
         11    1    3    3    0    0 -0.39518039537E+02 -0.69181763222E+01 -0.58330781917E+00  0.40123270810E+02  0.00000000000E+00 0. -1.
</event>
<event>
 7    1  0.6145388E-006  0.9927068E+02  0.7561462E-02  0.1281837E+00
          1   -1    0    0  501    0  0.00000000000E+00  0.00000000000E+00  0.73200874006E+03  0.73200874006E+03  0.00000000000E+00 0. -1.
         -1   -1    0    0    0  501 -0.00000000000E+00 -0.00000000000E+00 -0.24425557203E+02  0.24425557203E+02  0.00000000000E+00 0.  1.
         23    2    1    2    0    0 -0.34340661011E+02  0.48604403391E+02  0.46105350379E+03  0.47364994709E+03  0.90731857665E+02 0.  0.
          5    1    1    2  502    0  0.58564318198E+02 -0.42123753099E+02  0.58303227529E+02  0.92848956276E+02  0.41800000000E+01 0.  1.
         -5    1    1    2    0  502 -0.24223657187E+02 -0.64806502925E+01  0.18822645154E+03  0.18993539390E+03  0.41800000000E+01 0.  1.
        -11    1    3    3    0    0 -0.96817438374E+01  0.68496009677E+02  0.38653226904E+03  0.39267369980E+03  0.00000000000E+00 0. -1.
         11    1    3    3    0    0 -0.24658917174E+02 -0.19891606285E+02  0.74521234747E+02  0.80976247289E+02  0.00000000000E+00 0.  1.
</event>
<event>
 7    1  0.6145388E-006  0.1119264E+03  0.7561462E-02  0.1257043E+00
          2   -1    0    0  501    0  0.00000000000E+00  0.00000000000E+00  0.29100905952E+03  0.29100905952E+03  0.00000000000E+00 0. -1.
         -2   -1    0    0    0  501 -0.00000000000E+00 -0.00000000000E+00 -0.47642425707E+02  0.47642425707E+02  0.00000000000E+00 0.  1.
         23    2    1    2    0    0  0.20351839527E+02 -0.38989271048E+02  0.13168240609E+03  0.16528660945E+03  0.89694183534E+02 0.  0.
          5    1    1    2  502    0 -0.42138113980E+02  0.73293756110E+02  0.46887835971E+02  0.96765370338E+02  0.41800000000E+01 0.  1.
         -5    1    1    2    0  502  0.21786274453E+02 -0.34304485063E+02  0.64796391752E+02  0.76599505442E+02  0.41800000000E+01 0.  1.
        -11    1    3    3    0    0 -0.32402756760E+02 -0.31282589414E+02  0.46051175952E+02  0.64414671098E+02  0.00000000000E+00 0. -1.
         11    1    3    3    0    0  0.52754596287E+02 -0.77066816333E+01  0.85631230140E+02  0.10087193835E+03  0.00000000000E+00 0.  1.
</event>
<event>
 7    1  0.6145388E-006  0.1095789E+03  0.7561462E-02  0.1261352E+00
          1   -1    0    0  501    0  0.00000000000E+00  0.00000000000E+00  0.16024714692E+02  0.16024714692E+02  0.00000000000E+00 0. -1.
         -1   -1    0    0    0  501 -0.00000000000E+00 -0.00000000000E+00 -0.77033967543E+03  0.77033967543E+03  0.00000000000E+00 0.  1.
         23    2    1    2    0    0 -0.12794605067E+02 -0.15021579213E+02 -0.30192597829E+03  0.31660693634E+03  0.93227174228E+02 0.  0.
          5    1    1    2  502    0  0.68279452188E+02  0.19389868982E+01 -0.21741432298E+03  0.22793047953E+03  0.41800000000E+01 0. -1.
         -5    1    1    2    0  502 -0.55484847120E+02  0.13082592315E+02 -0.23497465948E+03  0.24182697426E+03  0.41800000000E+01 0. -1.
        -11    1    3    3    0    0  0.33580824070E+02  0.16573936816E+02 -0.15136134406E+03  0.15592505765E+03  0.00000000000E+00 0. -1.
         11    1    3    3    0    0 -0.46375429137E+02 -0.31595516029E+02 -0.15056463422E+03  0.16068187869E+03  0.00000000000E+00 0.  1.
</event>
<event>
 7    1  0.6145388E-006  0.7823154E+02  0.7561462E-02  0.1334146E+00
          2   -1    0    0  501    0  0.00000000000E+00  0.00000000000E+00  0.12714378394E+03  0.12714378394E+03  0.00000000000E+00 0. -1.
         -2   -1    0    0    0  501 -0.00000000000E+00 -0.00000000000E+00 -0.91607868986E+02  0.91607868986E+02  0.00000000000E+00 0.  1.
         23    2    1    2    0    0 -0.14520520984E+02  0.14787006143E+02  0.13560181958E+02  0.90066574180E+02  0.86594504269E+02 0.  0.
          5    1    1    2  502    0  0.56734072538E+02 -0.62316036378E+01  0.50937286087E+02  0.76613754539E+02  0.41800000000E+01 0.  1.
         -5    1    1    2    0  502 -0.42213551554E+02 -0.85554025050E+01 -0.28961553092E+02  0.52071324204E+02  0.41800000000E+01 0.  1.
        -11    1    3    3    0    0 -0.34192445313E+02  0.76792213808E+01 -0.27127735736E+02  0.44317127656E+02  0.00000000000E+00 0.  1.
         11    1    3    3    0    0  0.19671924330E+02  0.71077847619E+01  0.40687917693E+02  0.45749446524E+02  0.00000000000E+00 0. -1.
</event>
<event>
 7    1  0.6145388E-006  0.1201131E+03  0.7561462E-02  0.1242911E+00
         -2   -1    0    0    0  501 -0.00000000000E+00  0.00000000000E+00  0.14708658478E+03  0.14708658478E+03  0.00000000000E+00 0.  1.
          2   -1    0    0  501    0  0.00000000000E+00 -0.00000000000E+00 -0.13676411706E+03  0.13676411706E+03  0.00000000000E+00 0. -1.
         23    2    1    2    0    0  0.36775600116E+02 -0.57815098059E+02 -0.69016653206E+02  0.12064203975E+03  0.71387484951E+02 0.  0.
          5    1    1    2  502    0  0.42273708835E+02 -0.32937204284E+01  0.22569528116E+02  0.48215879670E+02  0.41800000000E+01 0. -1.
         -5    1    1    2    0  502 -0.79049308951E+02  0.61108818487E+02  0.56769592809E+02  0.11499278243E+03  0.41800000000E+01 0. -1.
        -11    1    3    3    0    0  0.28433903872E+02 -0.74073124630E+02 -0.47750643028E+02  0.92603664028E+02  0.00000000000E+00 0.  1.
         11    1    3    3    0    0  0.83416962436E+01  0.16258026571E+02 -0.21266010178E+02  0.28038375721E+02  0.00000000000E+00 0. -1.
</event>
<event>
 7    1  0.6145388E-006  0.2695764E+03  0.7561462E-02  0.1101522E+00
          1   -1    0    0  501    0  0.00000000000E+00  0.00000000000E+00  0.13626191881E+03  0.13626191881E+03  0.00000000000E+00 0. -1.
         -1   -1    0    0    0  501 -0.00000000000E+00 -0.00000000000E+00 -0.81564026473E+03  0.81564026473E+03  0.00000000000E+00 0.  1.
         23    2    1    2    0    0  0.17887636382E+03  0.17237307061E+03 -0.58032927925E+02  0.27114796163E+03  0.91892150742E+02 0.  0.
          5    1    1    2  502    0 -0.17811789803E+03 -0.10374419400E+03 -0.50715034370E+03  0.54745573967E+03  0.41800000000E+01 0.  1.
         -5    1    1    2    0  502 -0.75846579316E+00 -0.68628876602E+02 -0.11419507429E+03  0.13329848224E+03  0.41800000000E+01 0.  1.
        -11    1    3    3    0    0  0.29217831911E+02  0.87330667775E+02 -0.29267145603E+02  0.96627599822E+02  0.00000000000E+00 0.  1.
         11    1    3    3    0    0  0.14965853191E+03  0.85042402831E+02 -0.28765782322E+02  0.17452036181E+03  0.00000000000E+00 0. -1.
</event>
<event>
 7    1  0.6145388E-006  0.2386966E+03  0.7561462E-02  0.1120664E+00
         -1   -1    0    0    0  501 -0.00000000000E+00  0.00000000000E+00  0.70388546880E+02  0.70388546880E+02  0.00000000000E+00 0.  1.
          1   -1    0    0  501    0  0.00000000000E+00 -0.00000000000E+00 -0.96443654046E+03  0.96443654046E+03  0.00000000000E+00 0. -1.
         23    2    1    2    0    0  0.81849802264E+01 -0.23477655056E+03 -0.48627990585E+03  0.54788650862E+03  0.92327985509E+02 0.  0.
          5    1    1    2  502    0  0.23942157597E+02  0.14257179445E+03 -0.33563637049E+03  0.36547118776E+03  0.41800000000E+01 0.  1.
         -5    1    1    2    0  502 -0.32127137824E+02  0.92204756111E+02 -0.72131717248E+02  0.12146739096E+03  0.41800000000E+01 0.  1.
        -11    1    3    3    0    0  0.15587540213E+01 -0.14669894246E+03 -0.39268322658E+03  0.41919342299E+03  0.00000000000E+00 0.  1.
         11    1    3    3    0    0  0.66262262051E+01 -0.88077608102E+02 -0.93596679261E+02  0.12869308564E+03  0.00000000000E+00 0. -1.
</event>
<event>
 7    1  0.6145388E-006  0.9730792E+02  0.7561462E-02  0.1286061E+00
         -2   -1    0    0    0  501 -0.00000000000E+00  0.00000000000E+00  0.30377062236E+02  0.30377062236E+02  0.00000000000E+00 0. -1.
          2   -1    0    0  501    0  0.00000000000E+00 -0.00000000000E+00 -0.49108315655E+03  0.49108315655E+03  0.00000000000E+00 0.  1.
         23    2    1    2    0    0  0.18662098785E+02  0.39470727021E+02 -0.26822054789E+03  0.28778439519E+03  0.94717387971E+02 0.  0.
          5    1    1    2  502    0  0.29719891687E+02 -0.39978248178E+02 -0.18931069117E+02  0.53454560771E+02  0.41800000000E+01 0.  1.
         -5    1    1    2    0  502 -0.48381990473E+02  0.50752115712E+00 -0.17355447731E+03  0.18022126283E+03  0.41800000000E+01 0.  1.
        -11    1    3    3    0    0  0.46096098417E+02 -0.22246104103E+01 -0.18565911291E+03  0.19130892657E+03  0.00000000000E+00 0. -1.
         11    1    3    3    0    0 -0.27433999631E+02  0.41695337431E+02 -0.82561434978E+02  0.96475468617E+02  0.00000000000E+00 0.  1.
</event>
<event>
 7    1  0.6145388E-006  0.3787155E+03  0.7561462E-02  0.1051410E+00
          1   -1    0    0  501    0  0.00000000000E+00  0.00000000000E+00  0.16020983703E+04  0.16020983703E+04  0.00000000000E+00 0. -1.
         -1   -1    0    0    0  501 -0.00000000000E+00 -0.00000000000E+00 -0.10734545514E+03  0.10734545514E+03  0.00000000000E+00 0.  1.
         23    2    1    2    0    0 -0.24496444533E+03 -0.27091913482E+03  0.10758145573E+04  0.11397409412E+04  0.90706638634E+02 0.  0.
          5    1    1    2  502    0  0.20416010258E+03  0.13687350848E+03  0.26195152952E+03  0.35923777784E+03  0.41800000000E+01 0. -1.
         -5    1    1    2    0  502  0.40804342754E+02  0.13404562634E+03  0.15698682827E+03  0.21046510632E+03  0.41800000000E+01 0. -1.
        -11    1    3    3    0    0 -0.88274897815E+02 -0.52826178623E+02  0.38669735234E+03  0.40014735416E+03  0.00000000000E+00 0.  1.
         11    1    3    3    0    0 -0.15668954752E+03 -0.21809295620E+03  0.68911720499E+03  0.73959358708E+03  0.00000000000E+00 0. -1.
</event>
<event>
 7    1  0.6145388E-006  0.1258301E+03  0.7561462E-02  0.1233778E+00
          2   -1    0    0  501    0  0.00000000000E+00  0.00000000000E+00  0.32060189685E+02  0.32060189685E+02  0.00000000000E+00 0. -1.
         -2   -1    0    0    0  501 -0.00000000000E+00 -0.00000000000E+00 -0.69695985854E+03  0.69695985854E+03  0.00000000000E+00 0.  1.
         23    2    1    2    0    0  0.51435432385E+02  0.10200892312E+02 -0.97906237508E+02  0.13518811796E+03  0.77074859616E+02 0.  0.
          5    1    1    2  502    0  0.16654572801E+02 -0.68196856658E+02 -0.13043265322E+03  0.14818345211E+03  0.41800000000E+01 0. -1.
         -5    1    1    2    0  502 -0.68090005187E+02  0.57995964345E+02 -0.43656077813E+03  0.44564847816E+03  0.41800000000E+01 0.  1.
        -11    1    3    3    0    0  0.70957075592E+02  0.31065299975E+01 -0.65021848875E+02  0.96293291231E+02  0.00000000000E+00 0. -1.
         11    1    3    3    0    0 -0.19521643206E+02  0.70943623150E+01 -0.32884388634E+02  0.38894826725E+02  0.00000000000E+00 0.  1.
</event>
<event>
 7    1  0.6145388E-006  0.5302712E+02  0.7561462E-02  0.1429666E+00
          2   -1    0    0  501    0  0.00000000000E+00  0.00000000000E+00  0.18985590095E+03  0.18985590095E+03  0.00000000000E+00 0.  1.
         -2   -1    0    0    0  501 -0.00000000000E+00 -0.00000000000E+00 -0.68055970848E+02  0.68055970848E+02  0.00000000000E+00 0. -1.
         23    2    1    2    0    0 -0.96114345591E+01  0.11846367077E+02  0.88128659763E+02  0.12747480975E+03  0.90831989757E+02 0.  0.
          5    1    1    2  502    0 -0.58250754731E+01  0.15364776364E+02  0.75869398611E+02  0.77740889515E+02  0.41800000000E+01 0. -1.
         -5    1    1    2    0  502  0.15436510032E+02 -0.27211143441E+02 -0.42198128273E+02  0.52696172528E+02  0.41800000000E+01 0. -1.
        -11    1    3    3    0    0  0.73014464627E+01 -0.20102241437E+02 -0.94749729971E+01  0.23392014546E+02  0.00000000000E+00 0. -1.
         11    1    3    3    0    0 -0.16912881022E+02  0.31948608514E+02  0.97603632760E+02  0.10408279521E+03  0.00000000000E+00 0.  1.
</event>
<event>
 7    1  0.6145388E-006  0.9840197E+02  0.7561462E-02  0.1283693E+00
         -1   -1    0    0    0  501 -0.00000000000E+00  0.00000000000E+00  0.30785499338E+02  0.30785499338E+02  0.00000000000E+00 0.  1.
          1   -1    0    0  501    0  0.00000000000E+00 -0.00000000000E+00 -0.64115628781E+03  0.64115628781E+03  0.00000000000E+00 0. -1.
         23    2    1    2    0    0 -0.16355741205E+02 -0.42515190517E+02 -0.45995805556E+03  0.47108067902E+03  0.90997481160E+02 0.  0.
          5    1    1    2  502    0  0.47747870929E+02  0.86922855809E+01 -0.14647099577E+03  0.15435880282E+03  0.41800000000E+01 0. -1.
         -5    1    1    2    0  502 -0.31392129724E+02  0.33822904936E+02 -0.39417371410E+01  0.46502305304E+02  0.41800000000E+01 0. -1.
        -11    1    3    3    0    0  0.36100811474E+02 -0.32031763613E+02 -0.22065539836E+03  0.22587188247E+03  0.00000000000E+00 0.  1.
         11    1    3    3    0    0 -0.52456552679E+02 -0.10483426904E+02 -0.23930265720E+03  0.24520879654E+03  0.00000000000E+00 0. -1.
</event>
<event>
 7    1  0.6145388E-006  0.1021554E+03  0.7561462E-02  0.1275828E+00
          1   -1    0    0  501    0  0.00000000000E+00  0.00000000000E+00  0.10074501820E+03  0.10074501820E+03  0.00000000000E+00 0. -1.
         -1   -1    0    0    0  501 -0.00000000000E+00 -0.00000000000E+00 -0.14666693017E+03  0.14666693017E+03  0.00000000000E+00 0.  1.
         23    2    1    2    0    0  0.22547665770E+02 -0.38016052113E+01  0.30508811148E+02  0.99048237912E+02  0.91416171665E+02 0.  0.
          5    1    1    2  502    0  0.78555707658E+01  0.54332955057E+02 -0.69758354537E+02  0.88867769327E+02  0.41800000000E+01 0. -1.
         -5    1    1    2    0  502 -0.30403236536E+02 -0.50531349846E+02 -0.66723685735E+01  0.59495941134E+02  0.41800000000E+01 0. -1.
        -11    1    3    3    0    0 -0.33739699682E+02 -0.37511313990E+00  0.25771655800E+02  0.42458053266E+02  0.00000000000E+00 0. -1.
         11    1    3    3    0    0  0.56287365452E+02 -0.34264920714E+01  0.47371553473E+01  0.56590184645E+02  0.00000000000E+00 0.  1.
</event>
<event>
 7    1  0.6145388E-006  0.1010539E+03  0.7561462E-02  0.1278095E+00
          2   -1    0    0  501    0  0.00000000000E+00  0.00000000000E+00  0.35727366899E+03  0.35727366899E+03  0.00000000000E+00 0.  1.
         -2   -1    0    0    0  501 -0.00000000000E+00 -0.00000000000E+00 -0.90046227747E+02  0.90046227747E+02  0.00000000000E+00 0. -1.
         23    2    1    2    0    0 -0.74671619766E+02 -0.22025805198E+02  0.27284618508E+03  0.29987758758E+03  0.97059465942E+02 0.  0.
          5    1    1    2  502    0  0.75800545141E+02  0.18590493125E+02 -0.56385909165E+02  0.96375163972E+02  0.41800000000E+01 0. -1.
         -5    1    1    2    0  502 -0.11289253747E+01  0.34353120734E+01  0.50767165331E+02  0.51067145184E+02  0.41800000000E+01 0. -1.
        -11    1    3    3    0    0 -0.48310513401E+02  0.32248095897E+02  0.18007532631E+03  0.18921143871E+03  0.00000000000E+00 0. -1.
         11    1    3    3    0    0 -0.26361106365E+02 -0.54273901096E+02  0.92770858770E+02  0.11066614887E+03  0.00000000000E+00 0.  1.
</event>
<event>
 7    1  0.6145388E-006  0.6227611E+02  0.7561462E-02  0.1388521E+00
          2   -1    0    0  501    0  0.00000000000E+00  0.00000000000E+00  0.28747056516E+03  0.28747056516E+03  0.00000000000E+00 0. -1.
         -2   -1    0    0    0  501 -0.00000000000E+00 -0.00000000000E+00 -0.62283041172E+02  0.62283041172E+02  0.00000000000E+00 0.  1.
         23    2    1    2    0    0  0.39216802653E+01 -0.38935450278E+02  0.19037085976E+03  0.21433502531E+03  0.90371953415E+02 0.  0.
          5    1    1    2  502    0 -0.82733154155E+01  0.29445157594E+02  0.81630731013E+02  0.87272640039E+02  0.41800000000E+01 0.  1.
         -5    1    1    2    0  502  0.43516351502E+01  0.94902926841E+01 -0.46814066788E+02  0.48145940981E+02  0.41800000000E+01 0.  1.
        -11    1    3    3    0    0  0.31910498192E+02 -0.43632497545E+02  0.59358079431E+02  0.80283599388E+02  0.00000000000E+00 0.  1.
         11    1    3    3    0    0 -0.27988817927E+02  0.46970472673E+01  0.13101278033E+03  0.13405142592E+03  0.00000000000E+00 0. -1.
</event>
<event>
 6    1  0.6145388E-006  0.6795891E+02  0.7561462E-02  0.1367175E+00
          1   -1    0    0  501    0  0.00000000000E+00  0.00000000000E+00  0.73635354549E+01  0.73635354549E+01  0.00000000000E+00 0. -1.
         -1   -1    0    0    0  501 -0.00000000000E+00 -0.00000000000E+00 -0.10538390063E+04  0.10538390063E+04  0.00000000000E+00 0.  1.
          5    1    1    2  502    0 -0.13570739849E+02 -0.40230504738E+02 -0.14219447862E+03  0.14845672986E+03  0.41800000000E+01 0. -1.
         -5    1    1    2    0  502 -0.81760036792E+01  0.61705926539E+02 -0.82190037985E+03  0.82426462692E+03  0.41800000000E+01 0.  1.
        -11    1    1    2    0    0  0.10887257273E+02 -0.77324749969E+01 -0.23262760882E+02  0.26823116604E+02  0.00000000000E+00 0. -1.
         11    1    1    2    0    0  0.10859486255E+02 -0.13742946804E+02 -0.59117851450E+02  0.61658068317E+02  0.00000000000E+00 0.  1.
</event>
<event>
 7    1  0.6145388E-006  0.1093797E+03  0.7561462E-02  0.1261723E+00
          2   -1    0    0  501    0  0.00000000000E+00  0.00000000000E+00  0.18992519350E+03  0.18992519350E+03  0.00000000000E+00 0.  1.
         -2   -1    0    0    0  501 -0.00000000000E+00 -0.00000000000E+00 -0.13340569271E+03  0.13340569271E+03  0.00000000000E+00 0. -1.
         23    2    1    2    0    0  0.68982151889E+02  0.16284296176E+02  0.11744215176E+03  0.16717833043E+03  0.95562647378E+02 0.  0.
          5    1    1    2  502    0  0.20653414450E+02 -0.43643676404E+02 -0.10272497045E+02  0.49541201177E+02  0.41800000000E+01 0.  1.
         -5    1    1    2    0  502 -0.89635566339E+02  0.27359380228E+02 -0.50650153920E+02  0.10661135461E+03  0.41800000000E+01 0.  1.
        -11    1    3    3    0    0  0.16446772764E+02  0.17391501186E+02 -0.12506969658E+02  0.27007127539E+02  0.00000000000E+00 0. -1.
         11    1    3    3    0    0  0.52535379126E+02 -0.11072050107E+01  0.12994912141E+03  0.14017120289E+03  0.00000000000E+00 0.  1.
</event>
<event>
 7    1  0.6145388E-006  0.1470342E+03  0.7561462E-02  0.1204165E+00
         -2   -1    0    0    0  501 -0.00000000000E+00  0.00000000000E+00  0.33266182608E+02  0.33266182608E+02  0.00000000000E+00 0.  1.
          2   -1    0    0  501    0  0.00000000000E+00 -0.00000000000E+00 -0.92437324664E+03  0.92437324664E+03  0.00000000000E+00 0. -1.
         23    2    1    2    0    0 -0.10945570612E+03 -0.48668162316E+02 -0.60392746536E+03  0.62227468630E+03  0.90267713880E+02 0.  0.
          5    1    1    2  502    0  0.12926358559E+03  0.23295866304E+02 -0.17665971876E+03  0.22017697558E+03  0.41800000000E+01 0. -1.
         -5    1    1    2    0  502 -0.19807879463E+02  0.25372296012E+02 -0.11051987992E+03  0.11518776737E+03  0.41800000000E+01 0. -1.
        -11    1    3    3    0    0 -0.11425497981E+02 -0.27679954528E+02 -0.42640747271E+02  0.52105232123E+02  0.00000000000E+00 0.  1.
         11    1    3    3    0    0 -0.98030208144E+02 -0.20988207788E+02 -0.56128671808E+03  0.57016945417E+03  0.00000000000E+00 0. -1.
</event>
<event>
 7    1  0.6145388E-006  0.9813677E+02  0.7561462E-02  0.1284264E+00
          1   -1    0    0  501    0  0.00000000000E+00  0.00000000000E+00  0.48493661841E+02  0.48493661841E+02  0.00000000000E+00 0. -1.
         -1   -1    0    0    0  501 -0.00000000000E+00 -0.00000000000E+00 -0.30907319542E+03  0.30907319542E+03  0.00000000000E+00 0.  1.
         23    2    1    2    0    0  0.51060507456E+02  0.39025215556E+02 -0.68742075968E+02  0.11970384099E+03  0.73982387560E+02 0.  0.
          5    1    1    2  502    0  0.24324254141E+02  0.20010045676E+02 -0.11779400127E+02  0.33886545041E+02  0.41800000000E+01 0. -1.
         -5    1    1    2    0  502 -0.75384761597E+02 -0.59035261231E+02 -0.18005805749E+03  0.20397647123E+03  0.41800000000E+01 0. -1.
        -11    1    3    3    0    0  0.40779073806E+02  0.41395796548E+02 -0.83397771159E+02  0.10164513302E+03  0.00000000000E+00 0.  1.
         11    1    3    3    0    0  0.10281433650E+02 -0.23705809924E+01  0.14655695191E+02  0.18058707973E+02  0.00000000000E+00 0. -1.
</event>
<event>
 7    1  0.6145388E-006  0.1573589E+03  0.7561462E-02  0.1191711E+00
         -2   -1    0    0    0  501 -0.00000000000E+00  0.00000000000E+00  0.80925774093E+02  0.80925774093E+02  0.00000000000E+00 0.  1.
          2   -1    0    0  501    0  0.00000000000E+00 -0.00000000000E+00 -0.41015748625E+03  0.41015748625E+03  0.00000000000E+00 0. -1.
         23    2    1    2    0    0 -0.14222587846E+03 -0.28118270322E+02 -0.12177169001E+03  0.20873737701E+03  0.87886918498E+02 0.  0.
          5    1    1    2  502    0  0.74894707323E+02 -0.13603732424E+02 -0.20029414627E+02  0.78822132496E+02  0.41800000000E+01 0.  1.
         -5    1    1    2    0  502  0.67331171135E+02  0.41722002746E+02 -0.18743060752E+03  0.20352375084E+03  0.41800000000E+01 0.  1.
        -11    1    3    3    0    0 -0.89421734194E+02 -0.49483547102E+02 -0.11078365397E+03  0.15072453671E+03  0.00000000000E+00 0. -1.
         11    1    3    3    0    0 -0.52804144264E+02  0.21365276779E+02 -0.10988036042E+02  0.58012840298E+02  0.00000000000E+00 0.  1.
</event>
<event>
 7    1  0.6145388E-006  0.1379398E+03  0.7561462E-02  0.1216128E+00
          2   -1    0    0  501    0  0.00000000000E+00  0.00000000000E+00  0.36225774137E+03  0.36225774137E+03  0.00000000000E+00 0.  1.
         -2   -1    0    0    0  501 -0.00000000000E+00 -0.00000000000E+00 -0.67481694320E+02  0.67481694320E+02  0.00000000000E+00 0. -1.
         23    2    1    2    0    0 -0.95180832319E+02  0.40373707426E+01  0.21800593650E+03  0.25476275243E+03  0.91114106885E+02 0.  0.
          5    1    1    2  502    0  0.80889907987E+02 -0.51499307685E+02  0.80251228656E+02  0.12511230158E+03  0.41800000000E+01 0.  1.
         -5    1    1    2    0  502  0.14290924332E+02  0.47461936943E+02 -0.34811181074E+01  0.49864381676E+02  0.41800000000E+01 0.  1.
        -11    1    3    3    0    0 -0.67114558482E+02 -0.39853988442E+02  0.11037829283E+03  0.13518902279E+03  0.00000000000E+00 0. -1.
         11    1    3    3    0    0 -0.28066273837E+02  0.43891359185E+02  0.10762764367E+03  0.11957372964E+03  0.00000000000E+00 0.  1.
</event>
<event>
 7    1  0.6145388E-006  0.1070730E+03  0.7561462E-02  0.1266088E+00
          1   -1    0    0  501    0  0.00000000000E+00  0.00000000000E+00  0.15607437924E+03  0.15607437924E+03  0.00000000000E+00 0. -1.
         -1   -1    0    0    0  501 -0.00000000000E+00 -0.00000000000E+00 -0.10411998057E+03  0.10411998057E+03  0.00000000000E+00 0.  1.
         23    2    1    2    0    0 -0.28172283195E+02 -0.39680682743E+02  0.71085292399E+02  0.12461454189E+03  0.90041274601E+02 0.  0.
          5    1    1    2  502    0  0.12850526001E+02 -0.43609654708E+02 -0.22129505945E+02  0.50735839755E+02  0.41800000000E+01 0.  1.
         -5    1    1    2    0  502  0.15321757193E+02  0.83290337450E+02  0.29986122210E+01  0.84843978168E+02  0.41800000000E+01 0.  1.
        -11    1    3    3    0    0 -0.13423913056E+02 -0.58369058447E+02  0.79347951526E+02  0.99414515223E+02  0.00000000000E+00 0. -1.
         11    1    3    3    0    0 -0.14748370139E+02  0.18688375704E+02 -0.82626591264E+01  0.25200026668E+02  0.00000000000E+00 0.  1.
</event>
<event>
 7    1  0.6145388E-006  0.1072058E+03  0.7561462E-02  0.1265833E+00
          1   -1    0    0  501    0  0.00000000000E+00  0.00000000000E+00  0.31158406177E+03  0.31158406177E+03  0.00000000000E+00 0. -1.
         -1   -1    0    0    0  501 -0.00000000000E+00 -0.00000000000E+00 -0.40916348908E+02  0.40916348908E+02  0.00000000000E+00 0.  1.
         23    2    1    2    0    0 -0.26355711884E+02 -0.50807628346E+01  0.15042501026E+03  0.17692479849E+03  0.89186674505E+02 0.  0.
          5    1    1    2  502    0  0.71480969228E+02  0.23941772970E+02  0.91744399065E+02  0.11881601161E+03  0.41800000000E+01 0. -1.
         -5    1    1    2    0  502 -0.45125257344E+02 -0.18861010135E+02  0.28498303543E+02  0.56759600585E+02  0.41800000000E+01 0. -1.
        -11    1    3    3    0    0 -0.21790848268E+02 -0.44813793123E+02  0.59620523370E+02  0.77702792287E+02  0.00000000000E+00 0.  1.
         11    1    3    3    0    0 -0.45648636155E+01  0.39733030288E+02  0.90804486888E+02  0.99222006201E+02  0.00000000000E+00 0. -1.
</event>
<event>
 7    1  0.6145388E-006  0.1267783E+03  0.7561462E-02  0.1232316E+00
         -3   -1    0    0    0  501 -0.00000000000E+00  0.00000000000E+00  0.37235341807E+02  0.37235341807E+02  0.00000000000E+00 0. -1.
          3   -1    0    0  501    0  0.00000000000E+00 -0.00000000000E+00 -0.53522583669E+03  0.53522583669E+03  0.00000000000E+00 0.  1.
         23    2    1    2    0    0  0.81113800920E+02 -0.34295340284E+02 -0.22756889450E+03  0.26176597825E+03  0.94753398673E+02 0.  0.
          5    1    1    2  502    0  0.20016614434E+02 -0.21867295573E+00 -0.14250935571E+03  0.14396909924E+03  0.41800000000E+01 0.  1.
         -5    1    1    2    0  502 -0.10113041535E+03  0.34514013240E+02 -0.12791224467E+03  0.16672610101E+03  0.41800000000E+01 0.  1.
        -11    1    3    3    0    0 -0.65020317364E+01 -0.37923356287E+02 -0.98285236315E+02  0.10554830669E+03  0.00000000000E+00 0.  1.
         11    1    3    3    0    0  0.87615832656E+02  0.36280160031E+01 -0.12928365819E+03  0.15621767156E+03  0.00000000000E+00 0. -1.
</event>
<event>
 7    1  0.6145388E-006  0.1091309E+03  0.7561462E-02  0.1262188E+00
         -1   -1    0    0    0  501 -0.00000000000E+00  0.00000000000E+00  0.51592705992E+03  0.51592705992E+03  0.00000000000E+00 0.  1.
          1   -1    0    0  501    0  0.00000000000E+00 -0.00000000000E+00 -0.26856379071E+02  0.26856379071E+02  0.00000000000E+00 0. -1.
         23    2    1    2    0    0  0.23553725235E+02  0.33181332976E+02  0.16421507596E+03  0.19230613883E+03  0.91429103844E+02 0.  0.
          5    1    1    2  502    0 -0.26397384803E+02  0.38207602844E+02  0.59239845165E+02  0.75388822080E+02  0.41800000000E+01 0.  1.
         -5    1    1    2    0  502  0.28436595679E+01 -0.71388935820E+02  0.26561575973E+03  0.27508847808E+03  0.41800000000E+01 0.  1.
        -11    1    3    3    0    0  0.57582862646E+02  0.32306191604E+02  0.10715722829E+03  0.12586559364E+03  0.00000000000E+00 0.  1.
         11    1    3    3    0    0 -0.34029137411E+02  0.87514137196E+00  0.57057847667E+02  0.66440545195E+02  0.00000000000E+00 0. -1.
</event>
<event>
 7    1  0.6145388E-006  0.1010575E+03  0.7561462E-02  0.1278088E+00
          1   -1    0    0  501    0  0.00000000000E+00  0.00000000000E+00  0.30753453141E+03  0.30753453141E+03  0.00000000000E+00 0. -1.
         -1   -1    0    0    0  501 -0.00000000000E+00 -0.00000000000E+00 -0.10459988466E+03  0.10459988466E+03  0.00000000000E+00 0.  1.
         23    2    1    2    0    0 -0.67082438527E+02  0.23895498916E+02  0.24371486084E+03  0.26986769561E+03  0.91436269113E+02 0.  0.
          5    1    1    2  502    0  0.54437881056E+02 -0.38457086226E+02  0.26728760500E+02  0.71932811795E+02  0.41800000000E+01 0. -1.
         -5    1    1    2    0  502  0.12644557471E+02  0.14561587310E+02 -0.67508974592E+02  0.70333908672E+02  0.41800000000E+01 0.  1.
        -11    1    3    3    0    0 -0.20656074330E+02 -0.34978470407E+02  0.95027203250E+02  0.10334571184E+03  0.00000000000E+00 0.  1.
         11    1    3    3    0    0 -0.46426364197E+02  0.58873969322E+02  0.14868765759E+03  0.16652198376E+03  0.00000000000E+00 0. -1.
</event>
<event>
 7    1  0.6145388E-006  0.2135102E+03  0.7561462E-02  0.1138816E+00
          1   -1    0    0  501    0  0.00000000000E+00  0.00000000000E+00  0.29815724200E+03  0.29815724200E+03  0.00000000000E+00 0. -1.
         -1   -1    0    0    0  501 -0.00000000000E+00 -0.00000000000E+00 -0.15672548208E+03  0.15672548208E+03  0.00000000000E+00 0.  1.
         23    2    1    2    0    0 -0.17977143668E+03  0.45035060588E+02  0.89644576413E+02  0.22537056581E+03  0.91705047420E+02 0.  0.
          5    1    1    2  502    0  0.14629720236E+03  0.19763820199E+02  0.51654183965E+02  0.15645800436E+03  0.41800000000E+01 0.  1.
         -5    1    1    2    0  502  0.33474234327E+02 -0.64798880788E+02  0.13299954559E+00  0.73054153913E+02  0.41800000000E+01 0.  1.
        -11    1    3    3    0    0 -0.99754006046E+02  0.70678358491E+02  0.45442108216E+02  0.13042728733E+03  0.00000000000E+00 0.  1.
         11    1    3    3    0    0 -0.80017430636E+02 -0.25643297903E+02  0.44202468197E+02  0.94943278475E+02  0.00000000000E+00 0. -1.
</event>
<event>
 7    1  0.6145388E-006  0.1042415E+03  0.7561462E-02  0.1271621E+00
         -2   -1    0    0    0  501 -0.00000000000E+00  0.00000000000E+00  0.25016713475E+02  0.25016713475E+02  0.00000000000E+00 0.  1.
          2   -1    0    0  501    0  0.00000000000E+00 -0.00000000000E+00 -0.49212821812E+03  0.49212821812E+03  0.00000000000E+00 0. -1.
         23    2    1    2    0    0  0.91608917465E+01  0.62518438216E+01 -0.25360960774E+03  0.26944855706E+03  0.90342040480E+02 0.  0.
          5    1    1    2  502    0  0.54414155054E+02  0.14619090177E+02 -0.75788623632E+02  0.94530449803E+02  0.41800000000E+01 0.  1.
         -5    1    1    2    0  502 -0.63575046801E+02 -0.20870933998E+02 -0.13771327328E+03  0.15316592473E+03  0.41800000000E+01 0.  1.
        -11    1    3    3    0    0  0.44013708853E+02  0.18850653005E+02 -0.18894124221E+03  0.19491369037E+03  0.00000000000E+00 0.  1.
         11    1    3    3    0    0 -0.34852817106E+02 -0.12598809183E+02 -0.64668365528E+02  0.74534866695E+02  0.00000000000E+00 0. -1.
</event>
<event>
 7    1  0.6145388E-006  0.1213252E+03  0.7561462E-02  0.1240927E+00
         -1   -1    0    0    0  501 -0.00000000000E+00  0.00000000000E+00  0.23908473286E+02  0.23908473286E+02  0.00000000000E+00 0.  1.
          1   -1    0    0  501    0  0.00000000000E+00 -0.00000000000E+00 -0.68127175149E+03  0.68127175149E+03  0.00000000000E+00 0. -1.
         23    2    1    2    0    0  0.25419417366E+02  0.50540607101E+02 -0.37880672134E+03  0.39462800767E+03  0.95059100364E+02 0.  0.
          5    1    1    2  502    0  0.24798756148E+02  0.28814001636E+02 -0.12289848519E+03  0.12871182952E+03  0.41800000000E+01 0.  1.
         -5    1    1    2    0  502 -0.50218173514E+02 -0.79354608738E+02 -0.15565807168E+03  0.18184038759E+03  0.41800000000E+01 0.  1.
        -11    1    3    3    0    0  0.59946536480E+02  0.46034227596E+02 -0.27054815355E+03  0.28090753058E+03  0.00000000000E+00 0.  1.
         11    1    3    3    0    0 -0.34527119115E+02  0.45063795058E+01 -0.10825856779E+03  0.11372047709E+03  0.00000000000E+00 0. -1.
</event>
<event>
 7    1  0.6145388E-006  0.8286043E+02  0.7561462E-02  0.1321124E+00
         -2   -1    0    0    0  501 -0.00000000000E+00  0.00000000000E+00  0.14160330295E+02  0.14160330295E+02  0.00000000000E+00 0.  1.
          2   -1    0    0  501    0  0.00000000000E+00 -0.00000000000E+00 -0.97693769416E+03  0.97693769416E+03  0.00000000000E+00 0. -1.
         23    2    1    2    0    0  0.11620659896E+02  0.31593913872E+02 -0.53378356710E+03  0.54297226170E+03  0.93598960192E+02 0.  0.
          5    1    1    2  502    0 -0.26878225665E+02  0.45973330503E+01 -0.39514934027E+03  0.39611115612E+03  0.41800000000E+01 0. -1.
         -5    1    1    2    0  502  0.15257565769E+02 -0.36191246922E+02 -0.33844456492E+02  0.52014606624E+02  0.41800000000E+01 0. -1.
        -11    1    3    3    0    0  0.40525404744E+02 -0.15492323843E+02 -0.20052355251E+03  0.20516338767E+03  0.00000000000E+00 0.  1.
         11    1    3    3    0    0 -0.28904744848E+02  0.47086237716E+02 -0.33326001458E+03  0.33780887403E+03  0.00000000000E+00 0. -1.
</event>
<event>
 7    1  0.6145388E-006  0.1071638E+03  0.7561462E-02  0.1265914E+00
          1   -1    0    0  501    0  0.00000000000E+00  0.00000000000E+00  0.61091646000E+03  0.61091646000E+03  0.00000000000E+00 0. -1.
         -1   -1    0    0    0  501 -0.00000000000E+00 -0.00000000000E+00 -0.30263563641E+02  0.30263563641E+02  0.00000000000E+00 0.  1.
         23    2    1    2    0    0 -0.69857767561E+01  0.35580520767E+02  0.40211052506E+03  0.40959837412E+03  0.69015789359E+02 0.  0.
          5    1    1    2  502    0  0.49999264681E+02 -0.66531675471E+02  0.63218372609E+02  0.10459648821E+03  0.41800000000E+01 0. -1.
         -5    1    1    2    0  502 -0.43013487925E+02  0.30951154704E+02  0.11532399868E+03  0.12698516131E+03  0.41800000000E+01 0.  1.
        -11    1    3    3    0    0  0.25008383841E+02 -0.56645957193E+01  0.12199810767E+03  0.12466372841E+03  0.00000000000E+00 0. -1.
         11    1    3    3    0    0 -0.31994160597E+02  0.41245116486E+02  0.28011241740E+03  0.28493464571E+03  0.00000000000E+00 0.  1.
</event>
<event>
 7    1  0.6145388E-006  0.1027255E+03  0.7561462E-02  0.1274667E+00
         -1   -1    0    0    0  501 -0.00000000000E+00  0.00000000000E+00  0.25839062138E+03  0.25839062138E+03  0.00000000000E+00 0. -1.
          1   -1    0    0  501    0  0.00000000000E+00 -0.00000000000E+00 -0.60987454598E+02  0.60987454598E+02  0.00000000000E+00 0.  1.
         23    2    1    2    0    0  0.31079300055E+02 -0.40904246966E+02  0.48904017416E+02  0.11853350943E+03  0.94971098897E+02 0.  0.
          5    1    1    2  502    0 -0.55325636569E+02  0.21538400087E+00  0.12640674118E+02  0.56905461023E+02  0.41800000000E+01 0. -1.
         -5    1    1    2    0  502  0.24246336514E+02  0.40688862965E+02  0.13585847525E+03  0.14393910553E+03  0.41800000000E+01 0. -1.
        -11    1    3    3    0    0 -0.18084961091E+02 -0.49326641017E+02  0.62601148123E+01  0.52909095335E+02  0.00000000000E+00 0.  1.
         11    1    3    3    0    0  0.49164261146E+02  0.84223940508E+01  0.42643902604E+02  0.65624414091E+02  0.00000000000E+00 0. -1.
</event>
<event>
 7    1  0.6145388E-006  0.9744212E+02  0.7561462E-02  0.1285769E+00
          2   -1    0    0  501    0  0.00000000000E+00  0.00000000000E+00  0.52951781738E+03  0.52951781738E+03  0.00000000000E+00 0. -1.
         -2   -1    0    0    0  501 -0.00000000000E+00 -0.00000000000E+00 -0.20364734303E+02  0.20364734303E+02  0.00000000000E+00 0.  1.
         23    2    1    2    0    0 -0.33012290526E+02  0.29294941228E+02  0.22981223833E+03  0.24064547954E+03  0.56112182556E+02 0.  0.
          5    1    1    2  502    0 -0.29661454660E+02  0.26111972051E+02  0.14976598806E+03  0.15494825122E+03  0.41800000000E+01 0. -1.
         -5    1    1    2    0  502  0.62673745187E+02 -0.55406913279E+02  0.12957485669E+03  0.15428882092E+03  0.41800000000E+01 0. -1.
        -11    1    3    3    0    0 -0.48851619428E+02  0.25474290250E+02  0.17812957197E+03  0.18645526165E+03  0.00000000000E+00 0.  1.
         11    1    3    3    0    0  0.15839328902E+02  0.38206509781E+01  0.51682666355E+02  0.54190217895E+02  0.00000000000E+00 0. -1.
</event>
<event>
 7    1  0.6145388E-006  0.1083320E+03  0.7561462E-02  0.1263690E+00
         -2   -1    0    0    0  501 -0.00000000000E+00  0.00000000000E+00  0.22295983840E+02  0.22295983840E+02  0.00000000000E+00 0.  1.
          2   -1    0    0  501    0  0.00000000000E+00 -0.00000000000E+00 -0.64278688002E+03  0.64278688002E+03  0.00000000000E+00 0. -1.
         23    2    1    2    0    0 -0.75169709361E+01 -0.51025765856E+02 -0.26870178114E+03  0.28816993201E+03  0.90449593101E+02 0.  0.
          5    1    1    2  502    0 -0.58639962520E+02  0.20249931183E+02 -0.15698595253E+03  0.16885131510E+03  0.41800000000E+01 0.  1.
         -5    1    1    2    0  502  0.66156933456E+02  0.30775834673E+02 -0.19480316251E+03  0.20806161675E+03  0.41800000000E+01 0.  1.
        -11    1    3    3    0    0  0.22299021131E+02 -0.46060195465E+02 -0.24348847101E+03  0.24880800523E+03  0.00000000000E+00 0. -1.
         11    1    3    3    0    0 -0.29815992067E+02 -0.49655703914E+01 -0.25213310132E+02  0.39361926783E+02  0.00000000000E+00 0.  1.
</event>
<event>
 7    1  0.6145388E-006  0.7701510E+02  0.7561462E-02  0.1337742E+00
          2   -1    0    0  501    0  0.00000000000E+00  0.00000000000E+00  0.18177978978E+03  0.18177978978E+03  0.00000000000E+00 0. -1.
         -2   -1    0    0    0  501 -0.00000000000E+00 -0.00000000000E+00 -0.83888113751E+02  0.83888113751E+02  0.00000000000E+00 0.  1.
         23    2    1    2    0    0  0.51028562851E+02 -0.70438865634E+01  0.77284034834E+02  0.12881762775E+03  0.89261574115E+02 0.  0.
          5    1    1    2  502    0  0.87929586727E+01  0.83806599121E+01  0.62423060676E+02  0.63731173588E+02  0.41800000000E+01 0. -1.
         -5    1    1    2    0  502 -0.59821521523E+02 -0.13367733487E+01 -0.41815419478E+02  0.73119102199E+02  0.41800000000E+01 0. -1.
        -11    1    3    3    0    0  0.44895321008E+02 -0.32238574906E+02  0.92895802783E+01  0.56046515165E+02  0.00000000000E+00 0.  1.
         11    1    3    3    0    0  0.61332418428E+01  0.25194688342E+02  0.67994454555E+02  0.72771112582E+02  0.00000000000E+00 0. -1.
</event>
<event>
 7    1  0.6145388E-006  0.6603613E+02  0.7561462E-02  0.1374116E+00
         -1   -1    0    0    0  501 -0.00000000000E+00  0.00000000000E+00  0.79284096545E+02  0.79284096545E+02  0.00000000000E+00 0.  1.
          1   -1    0    0  501    0  0.00000000000E+00 -0.00000000000E+00 -0.19409879290E+03  0.19409879290E+03  0.00000000000E+00 0. -1.
         23    2    1    2    0    0  0.46534604642E+02  0.80745623486E+01 -0.87093574967E+02  0.13683143883E+03  0.94376288683E+02 0.  0.
          5    1    1    2  502    0 -0.37938567678E+02  0.74146290702E+01 -0.75773807852E+02  0.85167211989E+02  0.41800000000E+01 0. -1.
         -5    1    1    2    0  502 -0.85960369647E+01 -0.15489191419E+02  0.48052686465E+02  0.51384238623E+02  0.41800000000E+01 0. -1.
        -11    1    3    3    0    0  0.35442796727E+02 -0.22826998686E+02  0.16698284792E+01  0.42190662901E+02  0.00000000000E+00 0.  1.
         11    1    3    3    0    0  0.11091807915E+02  0.30901561035E+02 -0.88763403446E+02  0.94640775929E+02  0.00000000000E+00 0. -1.
</event>
<event>
 7    1  0.6145388E-006  0.1036289E+03  0.7561462E-02  0.1272845E+00
         -2   -1    0    0    0  501 -0.00000000000E+00  0.00000000000E+00  0.41546512326E+03  0.41546512326E+03  0.00000000000E+00 0.  1.
          2   -1    0    0  501    0  0.00000000000E+00 -0.00000000000E+00 -0.30715040699E+02  0.30715040699E+02  0.00000000000E+00 0. -1.
         23    2    1    2    0    0  0.14608549509E+02 -0.92027043244E+01  0.12085528445E+03  0.15363153560E+03  0.93266014522E+02 0.  0.
          5    1    1    2  502    0  0.67734787779E+00 -0.57409808932E+02  0.12942365448E+03  0.14164850758E+03  0.41800000000E+01 0. -1.
         -5    1    1    2    0  502 -0.15285897387E+02  0.66612513257E+02  0.13447114363E+03  0.15090012077E+03  0.41800000000E+01 0. -1.
        -11    1    3    3    0    0  0.46821801168E+02  0.26478661585E+01  0.27962678129E+02  0.54600399522E+02  0.00000000000E+00 0. -1.
         11    1    3    3    0    0 -0.32213251659E+02 -0.11850570483E+02  0.92892606323E+02  0.99031136077E+02  0.00000000000E+00 0.  1.
</event>
<event>
 7    1  0.6145388E-006  0.1286342E+03  0.7561462E-02  0.1229497E+00
         -1   -1    0    0    0  501 -0.00000000000E+00  0.00000000000E+00  0.15004490379E+03  0.15004490379E+03  0.00000000000E+00 0.  1.
          1   -1    0    0  501    0  0.00000000000E+00 -0.00000000000E+00 -0.19558420527E+03  0.19558420527E+03  0.00000000000E+00 0. -1.
         23    2    1    2    0    0  0.86080437294E+02 -0.22600304746E+02 -0.11989559826E+03  0.17505035816E+03  0.91362234818E+02 0.  0.
          5    1    1    2  502    0  0.21414973861E+02 -0.60940236311E+01  0.52412823432E+02  0.57099165402E+02  0.41800000000E+01 0.  1.
         -5    1    1    2    0  502 -0.10749541116E+03  0.28694328377E+02  0.21943473346E+02  0.11347958549E+03  0.41800000000E+01 0.  1.
        -11    1    3    3    0    0  0.23845136211E+02 -0.49909346704E+02 -0.31858150599E+02  0.63831615747E+02  0.00000000000E+00 0.  1.
         11    1    3    3    0    0  0.62235301083E+02  0.27309041958E+02 -0.88037447660E+02  0.11121874241E+03  0.00000000000E+00 0. -1.
</event>
<event>
 7    1  0.6145388E-006  0.1176356E+03  0.7561462E-02  0.1247049E+00
          2   -1    0    0  501    0  0.00000000000E+00  0.00000000000E+00  0.37256304347E+03  0.37256304347E+03  0.00000000000E+00 0. -1.
         -2   -1    0    0    0  501 -0.00000000000E+00 -0.00000000000E+00 -0.39742404444E+02  0.39742404444E+02  0.00000000000E+00 0.  1.
         23    2    1    2    0    0 -0.51418967598E+02  0.27756044585E+02  0.15876562189E+03  0.19012971156E+03  0.86766792517E+02 0.  0.
          5    1    1    2  502    0 -0.23299500862E+02  0.30863125344E+02  0.28062482330E+02  0.47962220142E+02  0.41800000000E+01 0. -1.
         -5    1    1    2    0  502  0.74718468460E+02 -0.58619169929E+02  0.14599253480E+03  0.17421351621E+03  0.41800000000E+01 0. -1.
        -11    1    3    3    0    0 -0.20294811403E+02  0.55827308640E+02  0.68905037917E+02  0.90975117533E+02  0.00000000000E+00 0.  1.
         11    1    3    3    0    0 -0.31124156195E+02 -0.28071264054E+02  0.89860583976E+02  0.99154594029E+02  0.00000000000E+00 0. -1.
</event>
<event>
 7    1  0.6145388E-006  0.1076600E+03  0.7561462E-02  0.1264966E+00
         -1   -1    0    0    0  501 -0.00000000000E+00  0.00000000000E+00  0.50053694281E+03  0.50053694281E+03  0.00000000000E+00 0.  1.
          1   -1    0    0  501    0  0.00000000000E+00 -0.00000000000E+00 -0.25794984845E+02  0.25794984845E+02  0.00000000000E+00 0. -1.
         23    2    1    2    0    0 -0.21660892979E+02 -0.15409509334E+02  0.14490380331E+03  0.17257080706E+03  0.89871708399E+02 0.  0.
          5    1    1    2  502    0  0.31977562638E+02  0.64062527661E+02  0.13785490594E+03  0.15539633024E+03  0.41800000000E+01 0. -1.
         -5    1    1    2    0  502 -0.10316669658E+02 -0.48653018327E+02  0.19198324871E+03  0.19836479035E+03  0.41800000000E+01 0. -1.
        -11    1    3    3    0    0 -0.57664827473E+01  0.37757776538E+02  0.56839780047E+02  0.68481111324E+02  0.00000000000E+00 0.  1.
         11    1    3    3    0    0 -0.15894410232E+02 -0.53167285872E+02  0.88064023267E+02  0.10408969573E+03  0.00000000000E+00 0. -1.
</event>
<event>
 7    1  0.6145388E-006  0.1064470E+03  0.7561462E-02  0.1267295E+00
         -1   -1    0    0    0  501 -0.00000000000E+00  0.00000000000E+00  0.40127983884E+02  0.40127983884E+02  0.00000000000E+00 0.  1.
          1   -1    0    0  501    0  0.00000000000E+00 -0.00000000000E+00 -0.32795712854E+03  0.32795712854E+03  0.00000000000E+00 0. -1.
         23    2    1    2    0    0  0.22771225800E+02 -0.11880460442E+02 -0.16908799353E+03  0.19370924734E+03  0.90955202621E+02 0.  0.
          5    1    1    2  502    0 -0.23935982360E+02 -0.54530562440E+02 -0.43142285209E+02  0.73656246609E+02  0.41800000000E+01 0. -1.
         -5    1    1    2    0  502  0.11647565600E+01  0.66411022881E+02 -0.75598865918E+02  0.10071961848E+03  0.41800000000E+01 0. -1.
        -11    1    3    3    0    0 -0.29358208415E+02  0.86649661333E+01 -0.26429457692E+02  0.40441343614E+02  0.00000000000E+00 0.  1.
         11    1    3    3    0    0  0.52129434215E+02 -0.20545426575E+02 -0.14265853584E+03  0.15326790372E+03  0.00000000000E+00 0. -1.
</event>
<event>
 7    1  0.6145388E-006  0.1181521E+03  0.7561462E-02  0.1246177E+00
         -2   -1    0    0    0  501 -0.00000000000E+00  0.00000000000E+00  0.13376026536E+03  0.13376026536E+03  0.00000000000E+00 0.  1.
          2   -1    0    0  501    0  0.00000000000E+00 -0.00000000000E+00 -0.14678342247E+03  0.14678342247E+03  0.00000000000E+00 0. -1.
         23    2    1    2    0    0  0.24200680780E+02 -0.42016580218E+02 -0.78474041256E+02  0.13127069169E+03  0.93395681814E+02 0.  0.
          5    1    1    2  502    0 -0.69768635486E+02 -0.84104621397E+00  0.23111934149E+02  0.73620674789E+02  0.41800000000E+01 0.  1.
         -5    1    1    2    0  502  0.45567954706E+02  0.42857626432E+02  0.42338950000E+02  0.75652321356E+02  0.41800000000E+01 0.  1.
        -11    1    3    3    0    0 -0.19031252834E+02  0.20325807579E+02 -0.31488051399E+02  0.42033610588E+02  0.00000000000E+00 0. -1.
         11    1    3    3    0    0  0.43231933613E+02 -0.62342387797E+02 -0.46985989857E+02  0.89237081099E+02  0.00000000000E+00 0.  1.
</event>
<event>
 7    1  0.6145388E-006  0.7716237E+02  0.7561462E-02  0.1337303E+00
          2   -1    0    0  501    0  0.00000000000E+00  0.00000000000E+00  0.34564858272E+03  0.34564858272E+03  0.00000000000E+00 0.  1.
         -2   -1    0    0    0  501 -0.00000000000E+00 -0.00000000000E+00 -0.40687277683E+02  0.40687277683E+02  0.00000000000E+00 0. -1.
         23    2    1    2    0    0 -0.58449575559E+01  0.50736712184E+02  0.13143345258E+03  0.16640908167E+03  0.88367711937E+02 0.  0.
          5    1    1    2  502    0  0.35577794880E+02 -0.55739180901E+02  0.29170136405E+02  0.72394785958E+02  0.41800000000E+01 0. -1.
         -5    1    1    2    0  502 -0.29732837324E+02  0.50024687169E+01  0.14435771605E+03  0.14753199278E+03  0.41800000000E+01 0. -1.
        -11    1    3    3    0    0  0.10493753154E+02  0.25368869841E+02 -0.39209357995E+01  0.27732150112E+02  0.00000000000E+00 0. -1.
         11    1    3    3    0    0 -0.16338710710E+02  0.25367842343E+02  0.13535438838E+03  0.13867693156E+03  0.00000000000E+00 0.  1.
</event>
<event>
 7    1  0.6145388E-006  0.1237159E+03  0.7561462E-02  0.1237090E+00
          1   -1    0    0  501    0  0.00000000000E+00  0.00000000000E+00  0.72871352967E+02  0.72871352967E+02  0.00000000000E+00 0. -1.
         -1   -1    0    0    0  501 -0.00000000000E+00 -0.00000000000E+00 -0.32101062317E+03  0.32101062317E+03  0.00000000000E+00 0.  1.
         23    2    1    2    0    0 -0.10459969105E+03 -0.22703173197E+02 -0.97489681305E+02  0.17072620105E+03  0.90480209570E+02 0.  0.
          5    1    1    2  502    0 -0.64621125883E+01  0.17814783107E+02 -0.98316313471E+02  0.10021324908E+03  0.41800000000E+01 0. -1.
         -5    1    1    2    0  502  0.11106180364E+03  0.48883900893E+01 -0.52333275424E+02  0.12294252601E+03  0.41800000000E+01 0. -1.
        -11    1    3    3    0    0 -0.73980840551E+01  0.11551079093E+02 -0.59222598303E+02  0.60790420509E+02  0.00000000000E+00 0.  1.
         11    1    3    3    0    0 -0.97201606992E+02 -0.34254252290E+02 -0.38267083002E+02  0.10993578054E+03  0.00000000000E+00 0. -1.
</event>
<event>
 7    1  0.6145388E-006  0.1212458E+03  0.7561462E-02  0.1241056E+00
         -1   -1    0    0    0  501 -0.00000000000E+00  0.00000000000E+00  0.47418108721E+02  0.47418108721E+02  0.00000000000E+00 0.  1.
          1   -1    0    0  501    0  0.00000000000E+00 -0.00000000000E+00 -0.69111037487E+03  0.69111037487E+03  0.00000000000E+00 0. -1.
         23    2    1    2    0    0 -0.27487246029E+02 -0.68965027317E+02 -0.54295152616E+03  0.55648927039E+03  0.96810250598E+02 0.  0.
          5    1    1    2  502    0 -0.27049571250E+02 -0.18235943559E+02  0.63526909878E+01  0.33497134581E+02  0.41800000000E+01 0. -1.
         -5    1    1    2    0  502  0.54536817279E+02  0.87200970877E+02 -0.10709343098E+03  0.14854207862E+03  0.41800000000E+01 0.  1.
        -11    1    3    3    0    0  0.22645560329E+02 -0.16104581430E+01 -0.35502810263E+02  0.42141007518E+02  0.00000000000E+00 0.  1.
         11    1    3    3    0    0 -0.50132806357E+02 -0.67354569174E+02 -0.50744871589E+03  0.51434826288E+03  0.00000000000E+00 0. -1.
</event>
<event>
 7    1  0.6145388E-006  0.1172164E+03  0.7561462E-02  0.1247761E+00
         -2   -1    0    0    0  501 -0.00000000000E+00  0.00000000000E+00  0.40279463484E+03  0.40279463484E+03  0.00000000000E+00 0.  1.
          2   -1    0    0  501    0  0.00000000000E+00 -0.00000000000E+00 -0.36722014127E+02  0.36722014127E+02  0.00000000000E+00 0. -1.
         23    2    1    2    0    0  0.24640087322E+02  0.48968257083E+02  0.15957264173E+03  0.19193947782E+03  0.91500333617E+02 0.  0.
          5    1    1    2  502    0  0.65053749254E+01  0.37612330445E+02  0.30903882791E+02  0.49290259443E+02  0.41800000000E+01 0.  1.
         -5    1    1    2    0  502 -0.31145462247E+02 -0.86580587527E+02  0.17559609619E+03  0.19828691170E+03  0.41800000000E+01 0.  1.
        -11    1    3    3    0    0  0.58080458750E+02  0.33882816598E+02  0.81357016137E+02  0.10554785182E+03  0.00000000000E+00 0. -1.
         11    1    3    3    0    0 -0.33440371428E+02  0.15085440484E+02  0.78215625594E+02  0.86391626000E+02  0.00000000000E+00 0.  1.
</event>
<event>
 7    1  0.6145388E-006  0.1263290E+03  0.7561462E-02  0.1233007E+00
         -2   -1    0    0    0  501 -0.00000000000E+00  0.00000000000E+00  0.78543674282E+02  0.78543674282E+02  0.00000000000E+00 0.  1.
          2   -1    0    0  501    0  0.00000000000E+00 -0.00000000000E+00 -0.31195880255E+03  0.31195880255E+03  0.00000000000E+00 0. -1.
         23    2    1    2    0    0 -0.23590819210E+02  0.94869239441E+02 -0.19782232170E+03  0.23854736434E+03  0.90633739442E+02 0.  0.
          5    1    1    2  502    0 -0.29653058891E+01  0.10259855295E+02 -0.41722695207E+02  0.43270236480E+02  0.41800000000E+01 0. -1.
         -5    1    1    2    0  502  0.26556125099E+02 -0.10512909474E+03  0.61298886396E+01  0.10868487602E+03  0.41800000000E+01 0.  1.
        -11    1    3    3    0    0  0.11434284755E+02  0.96920179959E+02 -0.13483107285E+03  0.16644423198E+03  0.00000000000E+00 0.  1.
         11    1    3    3    0    0 -0.35025103965E+02 -0.20509405179E+01 -0.62991248850E+02  0.72103132362E+02  0.00000000000E+00 0. -1.
</event>
<event>
 7    1  0.6145388E-006  0.1034439E+03  0.7561462E-02  0.1273216E+00
          1   -1    0    0  501    0  0.00000000000E+00  0.00000000000E+00  0.17066968300E+02  0.17066968300E+02  0.00000000000E+00 0. -1.
         -1   -1    0    0    0  501 -0.00000000000E+00 -0.00000000000E+00 -0.11435692714E+04  0.11435692714E+04  0.00000000000E+00 0.  1.
         23    2    1    2    0    0  0.15822008852E+02  0.81582821963E+02 -0.40861269279E+03  0.42720685114E+03  0.92926143493E+02 0.  0.
          5    1    1    2  502    0  0.29005437177E+01 -0.14699096252E+02 -0.38718429328E+01  0.16029352831E+02  0.41800000000E+01 0. -1.
         -5    1    1    2    0  502 -0.18722552570E+02 -0.66883725711E+02 -0.71401776736E+03  0.71740003572E+03  0.41800000000E+01 0. -1.
        -11    1    3    3    0    0  0.52264246862E+02  0.36330880377E+02 -0.16733415325E+03  0.17903129115E+03  0.00000000000E+00 0.  1.
         11    1    3    3    0    0 -0.36442238010E+02  0.45251941587E+02 -0.24127853955E+03  0.24817555999E+03  0.00000000000E+00 0. -1.
</event>
<event>
 7    1  0.6145388E-006  0.1015599E+03  0.7561462E-02  0.1277049E+00
          1   -1    0    0  501    0  0.00000000000E+00  0.00000000000E+00  0.49698369635E+03  0.49698369635E+03  0.00000000000E+00 0. -1.
         -1   -1    0    0    0  501 -0.00000000000E+00 -0.00000000000E+00 -0.27969580707E+02  0.27969580707E+02  0.00000000000E+00 0.  1.
         23    2    1    2    0    0 -0.30190394660E+01 -0.31936470574E+02  0.28149650830E+03  0.29723902492E+03  0.89898281416E+02 0.  0.
          5    1    1    2  502    0  0.48215099010E+02 -0.84479075307E+01  0.26943523378E+02  0.56031141040E+02  0.41800000000E+01 0. -1.
         -5    1    1    2    0  502 -0.45196059544E+02  0.40384378105E+02  0.16057408397E+03  0.17168311110E+03  0.41800000000E+01 0. -1.
        -11    1    3    3    0    0  0.38589016474E+02 -0.34207464254E+02  0.18664560742E+03  0.19363844033E+03  0.00000000000E+00 0. -1.
         11    1    3    3    0    0 -0.41608055940E+02  0.22709936795E+01  0.94850900873E+02  0.10360058459E+03  0.00000000000E+00 0.  1.
</event>
<event>
 7    1  0.6145388E-006  0.2534938E+03  0.7561462E-02  0.1111117E+00
         -1   -1    0    0    0  501 -0.00000000000E+00  0.00000000000E+00  0.19856933839E+03  0.19856933839E+03  0.00000000000E+00 0.  1.
          1   -1    0    0  501    0  0.00000000000E+00 -0.00000000000E+00 -0.40832135990E+03  0.40832135990E+03  0.00000000000E+00 0. -1.
         23    2    1    2    0    0 -0.13310852836E+03  0.20477803090E+03 -0.20668778081E+03  0.33246667011E+03  0.90345590569E+02 0.  0.
          5    1    1    2  502    0  0.33327602094E+02 -0.12798822565E+03  0.44739932723E+02  0.13968124050E+03  0.41800000000E+01 0. -1.
         -5    1    1    2    0  502  0.99780926267E+02 -0.76789805244E+02 -0.47804173414E+02  0.13474278768E+03  0.41800000000E+01 0. -1.
        -11    1    3    3    0    0 -0.84279021665E+02  0.16660099563E+03 -0.10731861059E+03  0.21535117696E+03  0.00000000000E+00 0.  1.
         11    1    3    3    0    0 -0.48829506696E+02  0.38177035271E+02 -0.99369170221E+02  0.11711549315E+03  0.00000000000E+00 0. -1.
</event>
<event>
 7    1  0.6145388E-006  0.1595271E+03  0.7561462E-02  0.1189232E+00
          2   -1    0    0  501    0  0.00000000000E+00  0.00000000000E+00  0.70349617160E+02  0.70349617160E+02  0.00000000000E+00 0. -1.
         -2   -1    0    0    0  501 -0.00000000000E+00 -0.00000000000E+00 -0.36560214578E+03  0.36560214578E+03  0.00000000000E+00 0.  1.
         23    2    1    2    0    0 -0.37174780623E+02  0.11272293098E+03 -0.12583964574E+03  0.19421282541E+03  0.88286927866E+02 0.  0.
          5    1    1    2  502    0  0.67842961479E+02 -0.15919567738E+02 -0.81954265947E+02  0.10765720675E+03  0.41800000000E+01 0.  1.
         -5    1    1    2    0  502 -0.30668180856E+02 -0.96803363239E+02 -0.87458616939E+02  0.13408173078E+03  0.41800000000E+01 0.  1.
        -11    1    3    3    0    0 -0.64699989349E+02  0.60501456721E+02 -0.81686818839E+02  0.12049585578E+03  0.00000000000E+00 0.  1.
         11    1    3    3    0    0  0.27525208726E+02  0.52221474257E+02 -0.44152826898E+02  0.73716969634E+02  0.00000000000E+00 0. -1.
</event>
<event>
 7    1  0.6145388E-006  0.1448299E+03  0.7561462E-02  0.1206974E+00
          2   -1    0    0  501    0  0.00000000000E+00  0.00000000000E+00  0.25708561091E+03  0.25708561091E+03  0.00000000000E+00 0. -1.
         -2   -1    0    0    0  501 -0.00000000000E+00 -0.00000000000E+00 -0.87932144045E+02  0.87932144045E+02  0.00000000000E+00 0.  1.
         23    2    1    2    0    0  0.70441354904E+02  0.46141654110E+02  0.77592551846E+02  0.16750865912E+03  0.12226001003E+03 0.  0.
          5    1    1    2  502    0 -0.21089373732E+02  0.40821597457E+02  0.73587321470E+01  0.46720315090E+02  0.41800000000E+01 0. -1.
         -5    1    1    2    0  502 -0.49351981172E+02 -0.86963251567E+02  0.84202182871E+02  0.13078878075E+03  0.41800000000E+01 0.  1.
        -11    1    3    3    0    0  0.87071913154E+02 -0.73936319721E+01  0.67795167476E+02  0.11060003882E+03  0.00000000000E+00 0.  1.
         11    1    3    3    0    0 -0.16630558250E+02  0.53535286082E+02  0.97973843695E+01  0.56908620297E+02  0.00000000000E+00 0. -1.
</event>
<event>
 6    1  0.6145388E-006  0.1901822E+03  0.7561462E-02  0.1158297E+00
         -1   -1    0    0    0  501 -0.00000000000E+00  0.00000000000E+00  0.13314134371E+03  0.13314134371E+03  0.00000000000E+00 0.  1.
          1   -1    0    0  501    0  0.00000000000E+00 -0.00000000000E+00 -0.32493791952E+03  0.32493791952E+03  0.00000000000E+00 0. -1.
          5    1    1    2  502    0  0.75090233153E+00 -0.46892545531E+02 -0.45310458292E+02  0.65345120027E+02  0.41800000000E+01 0. -1.
         -5    1    1    2    0  502 -0.14209623238E+03  0.42044028941E+02 -0.22067414258E+02  0.14987822656E+03  0.41800000000E+01 0.  1.
        -11    1    1    2    0    0  0.20954389759E+02  0.51749581311E+02  0.96537178142E+01  0.56659508325E+02  0.00000000000E+00 0.  1.
         11    1    1    2    0    0  0.12039094029E+03 -0.46901064720E+02 -0.13407242107E+03  0.18619640831E+03  0.00000000000E+00 0. -1.
</event>
<event>
 7    1  0.6145388E-006  0.1581503E+03  0.7561462E-02  0.1190801E+00
         -2   -1    0    0    0  501 -0.00000000000E+00  0.00000000000E+00  0.57550409789E+03  0.57550409789E+03  0.00000000000E+00 0.  1.
          2   -1    0    0  501    0  0.00000000000E+00 -0.00000000000E+00 -0.49969425307E+02  0.49969425307E+02  0.00000000000E+00 0. -1.
         23    2    1    2    0    0 -0.50100513131E+02  0.11452855429E+03  0.19120602347E+03  0.24725430727E+03  0.94594386127E+02 0.  0.
          5    1    1    2  502    0 -0.21451927732E+02 -0.87805107949E+02  0.24173854736E+03  0.25811803475E+03  0.41800000000E+01 0.  1.
         -5    1    1    2    0  502  0.71552440863E+02 -0.26723446341E+02  0.92590101748E+02  0.12010118117E+03  0.41800000000E+01 0.  1.
        -11    1    3    3    0    0  0.22244284244E+02  0.37847319369E+02  0.25246138306E+02  0.50641833145E+02  0.00000000000E+00 0. -1.
         11    1    3    3    0    0 -0.72344797375E+02  0.76681234921E+02  0.16595988517E+03  0.19661247412E+03  0.00000000000E+00 0.  1.
</event>
<event>
 7    1  0.6145388E-006  0.9734745E+02  0.7561462E-02  0.1285975E+00
          2   -1    0    0  501    0  0.00000000000E+00  0.00000000000E+00  0.21710176593E+03  0.21710176593E+03  0.00000000000E+00 0. -1.
         -2   -1    0    0    0  501 -0.00000000000E+00 -0.00000000000E+00 -0.66064763278E+02  0.66064763278E+02  0.00000000000E+00 0.  1.
         23    2    1    2    0    0 -0.44393698175E+02 -0.13038014981E+02  0.76024233242E+02  0.13014757769E+03  0.94962717241E+02 0.  0.
          5    1    1    2  502    0  0.87366104487E+02  0.19369094380E+02  0.53810874013E+02  0.10450397405E+03  0.41800000000E+01 0. -1.
         -5    1    1    2    0  502 -0.42972406312E+02 -0.63310793989E+01  0.21201895401E+02  0.48514977472E+02  0.41800000000E+01 0. -1.
        -11    1    3    3    0    0 -0.43714334274E+02  0.44786343558E+01 -0.76958215897E+01  0.44611958673E+02  0.00000000000E+00 0.  1.
         11    1    3    3    0    0 -0.67936390163E+00 -0.17516649337E+02  0.83720054832E+02  0.85535619016E+02  0.00000000000E+00 0. -1.
</event>
<event>
 7    1  0.6145388E-006  0.3794854E+03  0.7561462E-02  0.1051124E+00
         -2   -1    0    0    0  501 -0.00000000000E+00  0.00000000000E+00  0.50276821707E+03  0.50276821707E+03  0.00000000000E+00 0.  1.
          2   -1    0    0  501    0  0.00000000000E+00 -0.00000000000E+00 -0.39415042564E+03  0.39415042564E+03  0.00000000000E+00 0. -1.
         23    2    1    2    0    0 -0.81722963584E+02 -0.36395329850E+03 -0.16526519558E+03  0.41754372201E+03  0.88823018717E+02 0.  0.
          5    1    1    2  502    0  0.32880336659E+00  0.82720705250E+02  0.12744180366E+03  0.15199246333E+03  0.41800000000E+01 0.  1.
         -5    1    1    2    0  502  0.81394160217E+02  0.28123259325E+03  0.14644118335E+03  0.32738245738E+03  0.41800000000E+01 0.  1.
        -11    1    3    3    0    0 -0.96488249153E+02 -0.24247731659E+03 -0.10793100864E+03  0.28240809817E+03  0.00000000000E+00 0.  1.
         11    1    3    3    0    0  0.14765285569E+02 -0.12147598191E+03 -0.57334186934E+02  0.13513562384E+03  0.00000000000E+00 0. -1.
</event>
<event>
 7    1  0.6145388E-006  0.1219412E+03  0.7561462E-02  0.1239929E+00
         -2   -1    0    0    0  501 -0.00000000000E+00  0.00000000000E+00  0.17722899496E+03  0.17722899496E+03  0.00000000000E+00 0.  1.
          2   -1    0    0  501    0  0.00000000000E+00 -0.00000000000E+00 -0.13835744563E+03  0.13835744563E+03  0.00000000000E+00 0. -1.
         23    2    1    2    0    0  0.18378761679E+02  0.52973795243E+02 -0.80096052157E+02  0.13407751348E+03  0.91746390590E+02 0.  0.
          5    1    1    2  502    0 -0.52093763313E+02  0.20344628034E+02  0.43996447378E+02  0.71279897923E+02  0.41800000000E+01 0. -1.
         -5    1    1    2    0  502  0.33715001635E+02 -0.73318423278E+02  0.74971154108E+02  0.11022902919E+03  0.41800000000E+01 0. -1.
        -11    1    3    3    0    0  0.52238579496E+02  0.11564012571E+02 -0.33404617036E+02  0.63075066499E+02  0.00000000000E+00 0. -1.
         11    1    3    3    0    0 -0.33859817817E+02  0.41409782672E+02 -0.46691435121E+02  0.71002446980E+02  0.00000000000E+00 0.  1.
</event>
<event>
 7    1  0.6145388E-006  0.1076892E+03  0.7561462E-02  0.1264910E+00
         -1   -1    0    0    0  501 -0.00000000000E+00  0.00000000000E+00  0.27924683309E+02  0.27924683309E+02  0.00000000000E+00 0.  1.
          1   -1    0    0  501    0  0.00000000000E+00 -0.00000000000E+00 -0.48132459122E+03  0.48132459122E+03  0.00000000000E+00 0. -1.
         23    2    1    2    0    0 -0.30571423324E+02  0.20430388711E+02 -0.25095120760E+03  0.26844933482E+03  0.87957512830E+02 0.  0.
          5    1    1    2  502    0 -0.44822049367E+02 -0.17924100248E+02 -0.11759468075E+03  0.12718596943E+03  0.41800000000E+01 0.  1.
         -5    1    1    2    0  502  0.75393472691E+02 -0.25062884629E+01 -0.84854019555E+02  0.11361397027E+03  0.41800000000E+01 0.  1.
        -11    1    3    3    0    0 -0.55806210701E+02  0.31201416736E+02 -0.13615200327E+03  0.15041685263E+03  0.00000000000E+00 0.  1.
         11    1    3    3    0    0  0.25234787377E+02 -0.10771028025E+02 -0.11479920433E+03  0.11803248219E+03  0.00000000000E+00 0. -1.
</event>
<event>
 7    1  0.6145388E-006  0.1203046E+03  0.7561462E-02  0.1242595E+00
         -2   -1    0    0    0  501 -0.00000000000E+00  0.00000000000E+00  0.59872533397E+03  0.59872533397E+03  0.00000000000E+00 0.  1.
          2   -1    0    0  501    0  0.00000000000E+00 -0.00000000000E+00 -0.28189402036E+02  0.28189402036E+02  0.00000000000E+00 0. -1.
         23    2    1    2    0    0  0.57472974877E+02  0.41568339145E+02  0.23266464573E+03  0.25971520720E+03  0.91038902784E+02 0.  0.
          5    1    1    2  502    0  0.29429105209E+02 -0.43696348732E+02  0.17125093868E+03  0.17921997524E+03  0.41800000000E+01 0. -1.
         -5    1    1    2    0  502 -0.86902080086E+02  0.21280095873E+01  0.16662034753E+03  0.18797955356E+03  0.41800000000E+01 0. -1.
        -11    1    3    3    0    0  0.59169142157E+02  0.39512374196E-01  0.19445312095E+03  0.20325600900E+03  0.00000000000E+00 0.  1.
         11    1    3    3    0    0 -0.16961672796E+01  0.41528826770E+02  0.38211524772E+02  0.56459198203E+02  0.00000000000E+00 0. -1.
</event>
<event>
 7    1  0.6145388E-006  0.2898613E+03  0.7561462E-02  0.1090422E+00
         -2   -1    0    0    0  501 -0.00000000000E+00  0.00000000000E+00  0.39921402092E+02  0.39921402092E+02  0.00000000000E+00 0. -1.
          2   -1    0    0  501    0  0.00000000000E+00 -0.00000000000E+00 -0.23815061414E+04  0.23815061414E+04  0.00000000000E+00 0.  1.
         23    2    1    2    0    0 -0.26307875040E+03 -0.10035320535E+03 -0.13889025559E+04  0.14201620086E+04  0.92350560154E+02 0.  0.
          5    1    1    2  502    0  0.13023981743E+03  0.29355997358E+01 -0.28244416137E+03  0.31106784546E+03  0.41800000000E+01 0. -1.
         -5    1    1    2    0  502  0.13283893297E+03  0.97417605610E+02 -0.67023802200E+03  0.69019768946E+03  0.41800000000E+01 0. -1.
        -11    1    3    3    0    0 -0.25281360279E+03 -0.86180538875E+02 -0.13628538981E+04  0.13887809585E+04  0.00000000000E+00 0.  1.
         11    1    3    3    0    0 -0.10265147614E+02 -0.14172666471E+02 -0.26048657838E+02  0.31381050104E+02  0.00000000000E+00 0. -1.
</event>
<event>
 7    1  0.6145388E-006  0.1659892E+03  0.7561462E-02  0.1182096E+00
          2   -1    0    0  501    0  0.00000000000E+00  0.00000000000E+00  0.24739350556E+02  0.24739350556E+02  0.00000000000E+00 0. -1.
         -2   -1    0    0    0  501 -0.00000000000E+00 -0.00000000000E+00 -0.16106958670E+04  0.16106958670E+04  0.00000000000E+00 0.  1.
         23    2    1    2    0    0 -0.11095531228E+03 -0.81247188170E+02 -0.36990611021E+03  0.40525722667E+03  0.92145007940E+02 0.  0.
          5    1    1    2  502    0 -0.16165004454E+02  0.52091072979E+02 -0.41020079409E+03  0.41383203250E+03  0.41800000000E+01 0.  1.
         -5    1    1    2    0  502  0.12712031673E+03  0.29156115191E+02 -0.80584961211E+03  0.81634595835E+03  0.41800000000E+01 0.  1.
        -11    1    3    3    0    0 -0.30918300465E+02 -0.54029623130E+02 -0.25568881756E+03  0.26315758189E+03  0.00000000000E+00 0.  1.
         11    1    3    3    0    0 -0.80037011815E+02 -0.27217565039E+02 -0.11421729265E+03  0.14209964478E+03  0.00000000000E+00 0. -1.
</event>
<event>
 7    1  0.6145388E-006  0.1385355E+03  0.7561462E-02  0.1215313E+00
          2   -1    0    0  501    0  0.00000000000E+00  0.00000000000E+00  0.27137200432E+03  0.27137200432E+03  0.00000000000E+00 0.  1.
         -2   -1    0    0    0  501 -0.00000000000E+00 -0.00000000000E+00 -0.11796244969E+03  0.11796244969E+03  0.00000000000E+00 0. -1.
         23    2    1    2    0    0  0.79540453488E+02  0.45254483606E+02  0.17812508852E+03  0.23238805201E+03  0.11790253402E+03 0.  0.
          5    1    1    2  502    0 -0.89155136307E+02  0.11016057003E+01 -0.50829425534E+02  0.10271784054E+03  0.41800000000E+01 0. -1.
         -5    1    1    2    0  502  0.96146828190E+01 -0.46356089306E+02  0.26113891647E+02  0.54228561464E+02  0.41800000000E+01 0. -1.
        -11    1    3    3    0    0  0.39643808063E+02  0.78766513489E+02  0.70807428916E+02  0.11309061479E+03  0.00000000000E+00 0. -1.
         11    1    3    3    0    0  0.39896645425E+02 -0.33512029883E+02  0.10731765960E+03  0.11929743721E+03  0.00000000000E+00 0.  1.
</event>
<event>
 7    1  0.6145388E-006  0.4630388E+03  0.7561462E-02  0.1023904E+00
          2   -1    0    0  501    0  0.00000000000E+00  0.00000000000E+00  0.23023881652E+04  0.23023881652E+04  0.00000000000E+00 0.  1.
         -2   -1    0    0    0  501 -0.00000000000E+00 -0.00000000000E+00 -0.12937832565E+03  0.12937832565E+03  0.00000000000E+00 0. -1.
         23    2    1    2    0    0  0.23989351740E+03  0.38673374653E+03  0.17050546394E+04  0.17671294277E+04  0.91777995110E+02 0.  0.
          5    1    1    2  502    0 -0.83208476163E+02 -0.23773901834E+03  0.20952921510E+03  0.32766363198E+03  0.41800000000E+01 0.  1.
         -5    1    1    2    0  502 -0.15668504123E+03 -0.14899472820E+03  0.25842598500E+03  0.33697343115E+03  0.41800000000E+01 0.  1.
        -11    1    3    3    0    0  0.23638772419E+03  0.35827418970E+03  0.16516533807E+04  0.17065164638E+04  0.00000000000E+00 0.  1.
         11    1    3    3    0    0  0.35057932036E+01  0.28459556828E+02  0.53401258697E+02  0.60612963887E+02  0.00000000000E+00 0. -1.
</event>
<event>
 7    1  0.6145388E-006  0.8741901E+02  0.7561462E-02  0.1309225E+00
          2   -1    0    0  501    0  0.00000000000E+00  0.00000000000E+00  0.28488736897E+02  0.28488736897E+02  0.00000000000E+00 0.  1.
         -2   -1    0    0    0  501 -0.00000000000E+00 -0.00000000000E+00 -0.49160598727E+03  0.49160598727E+03  0.00000000000E+00 0. -1.
         23    2    1    2    0    0 -0.20886290474E+00 -0.34980727531E+02 -0.13339083858E+03  0.16570045831E+03  0.91868553617E+02 0.  0.
          5    1    1    2  502    0  0.36541863024E+01  0.63711392675E+02 -0.31543246203E+03  0.32185028373E+03  0.41800000000E+01 0.  1.
         -5    1    1    2    0  502 -0.34453233977E+01 -0.28730665145E+02 -0.14293949756E+02  0.32543982126E+02  0.41800000000E+01 0.  1.
        -11    1    3    3    0    0 -0.16271568182E+02  0.19182101180E+02 -0.53024359110E+01  0.25706667683E+02  0.00000000000E+00 0.  1.
         11    1    3    3    0    0  0.16062705277E+02 -0.54162828711E+02 -0.12808840267E+03  0.13999379063E+03  0.00000000000E+00 0. -1.
</event>
<event>
 7    1  0.6145388E-006  0.7050106E+02  0.7561462E-02  0.1358397E+00
          2   -1    0    0  501    0  0.00000000000E+00  0.00000000000E+00  0.55249270885E+02  0.55249270885E+02  0.00000000000E+00 0. -1.
         -2   -1    0    0    0  501 -0.00000000000E+00 -0.00000000000E+00 -0.25117163456E+03  0.25117163456E+03  0.00000000000E+00 0.  1.
         23    2    1    2    0    0 -0.12264019423E+01  0.61240970747E+02 -0.37770695878E+02  0.95680376399E+02  0.63056707819E+02 0.  0.
          5    1    1    2  502    0 -0.76715604747E+01 -0.24119138217E+02  0.17426487257E+02  0.31011941677E+02  0.41800000000E+01 0. -1.
         -5    1    1    2    0  502  0.88979624169E+01 -0.37121832529E+02 -0.17557815506E+03  0.17972858737E+03  0.41800000000E+01 0. -1.
        -11    1    3    3    0    0  0.22564115999E+02  0.33671189933E+02 -0.42768099220E+02  0.58923668192E+02  0.00000000000E+00 0.  1.
         11    1    3    3    0    0 -0.23790517941E+02  0.27569780814E+02  0.49974033418E+01  0.36756708207E+02  0.00000000000E+00 0. -1.
</event>
<event>
 7    1  0.6145388E-006  0.1103636E+03  0.7561462E-02  0.1259898E+00
         -1   -1    0    0    0  501 -0.00000000000E+00  0.00000000000E+00  0.16178354377E+03  0.16178354377E+03  0.00000000000E+00 0.  1.
          1   -1    0    0  501    0  0.00000000000E+00 -0.00000000000E+00 -0.16597435432E+03  0.16597435432E+03  0.00000000000E+00 0. -1.
         23    2    1    2    0    0 -0.99448971964E+01  0.92179734283E+02 -0.87874400967E+02  0.15699222440E+03  0.91261403583E+02 0.  0.
          5    1    1    2  502    0 -0.26476390305E+01 -0.98887111833E+02  0.14577215627E+02  0.10007816193E+03  0.41800000000E+01 0. -1.
         -5    1    1    2    0  502  0.12592536227E+02  0.67073775500E+01  0.69106374794E+02  0.70687511764E+02  0.41800000000E+01 0.  1.
        -11    1    3    3    0    0 -0.29604376934E+02  0.75395668589E+02 -0.99792001066E+02  0.12852769916E+03  0.00000000000E+00 0.  1.
         11    1    3    3    0    0  0.19659479738E+02  0.16784065694E+02  0.11917600098E+02  0.28464525236E+02  0.00000000000E+00 0. -1.
</event>
<event>
 7    1  0.6145388E-006  0.1663931E+03  0.7561462E-02  0.1181662E+00
         -2   -1    0    0    0  501 -0.00000000000E+00  0.00000000000E+00  0.38013968277E+02  0.38013968277E+02  0.00000000000E+00 0.  1.
          2   -1    0    0  501    0  0.00000000000E+00 -0.00000000000E+00 -0.87851703004E+03  0.87851703004E+03  0.00000000000E+00 0. -1.
         23    2    1    2    0    0 -0.13589042870E+03 -0.32346432487E+01 -0.53500048590E+03  0.55952250650E+03  0.91450772760E+02 0.  0.
          5    1    1    2  502    0  0.13138833596E+03 -0.39417572787E+02 -0.26205089796E+03  0.29581207783E+03  0.41800000000E+01 0. -1.
         -5    1    1    2    0  502  0.45020927350E+01  0.42652216036E+02 -0.43451677905E+02  0.61196413984E+02  0.41800000000E+01 0. -1.
        -11    1    3    3    0    0 -0.85848873251E+02 -0.35516747716E+02 -0.41845173046E+03  0.42864124759E+03  0.00000000000E+00 0. -1.
         11    1    3    3    0    0 -0.50041555446E+02  0.32282104467E+02 -0.11654875543E+03  0.13088125891E+03  0.00000000000E+00 0.  1.
</event>
<event>
 7    1  0.6145388E-006  0.1751135E+03  0.7561462E-02  0.1172618E+00
         -1   -1    0    0    0  501 -0.00000000000E+00  0.00000000000E+00  0.13288012117E+03  0.13288012117E+03  0.00000000000E+00 0.  1.
          1   -1    0    0  501    0  0.00000000000E+00 -0.00000000000E+00 -0.81523476216E+03  0.81523476216E+03  0.00000000000E+00 0. -1.
         23    2    1    2    0    0 -0.13954806499E+03  0.62841921421E+02 -0.72431793710E+03  0.74604568138E+03  0.92330467191E+02 0.  0.
          5    1    1    2  502    0 -0.55182849870E+00 -0.56141120828E+02  0.21489604424E+02  0.60261143872E+02  0.41800000000E+01 0. -1.
         -5    1    1    2    0  502  0.14009989348E+03 -0.67008005929E+01  0.20473691695E+02  0.14180805807E+03  0.41800000000E+01 0. -1.
        -11    1    3    3    0    0 -0.32678551383E+02  0.20957341024E+02 -0.57231444385E+02  0.69155882539E+02  0.00000000000E+00 0.  1.
         11    1    3    3    0    0 -0.10686951360E+03  0.41884580397E+02 -0.66708649272E+03  0.67688979884E+03  0.00000000000E+00 0. -1.
</event>
<event>
 7    1  0.6145388E-006  0.5454256E+02  0.7561462E-02  0.1422275E+00
          2   -1    0    0  501    0  0.00000000000E+00  0.00000000000E+00  0.25390861209E+03  0.25390861209E+03  0.00000000000E+00 0.  1.
         -2   -1    0    0    0  501 -0.00000000000E+00 -0.00000000000E+00 -0.58370145319E+02  0.58370145319E+02  0.00000000000E+00 0. -1.
         23    2    1    2    0    0 -0.56628128910E+01  0.12005415606E+02  0.15367162645E+03  0.17970346774E+03  0.92207212786E+02 0.  0.
          5    1    1    2  502    0  0.26071442345E+02  0.31889751716E+01 -0.39276188313E+02  0.47433965014E+02  0.41800000000E+01 0. -1.
         -5    1    1    2    0  502 -0.20408629454E+02 -0.15194390777E+02  0.81143028642E+02  0.85141324657E+02  0.41800000000E+01 0. -1.
        -11    1    3    3    0    0  0.16722174930E+02  0.25553342246E+02  0.15024186257E+03  0.15331412754E+03  0.00000000000E+00 0.  1.
         11    1    3    3    0    0 -0.22384987821E+02 -0.13547926641E+02  0.34297638749E+01  0.26389340201E+02  0.00000000000E+00 0. -1.
</event>
<event>
 7    1  0.6145388E-006  0.1101481E+03  0.7561462E-02  0.1260296E+00
          1   -1    0    0  501    0  0.00000000000E+00  0.00000000000E+00  0.42538212840E+03  0.42538212840E+03  0.00000000000E+00 0. -1.
         -1   -1    0    0    0  501 -0.00000000000E+00 -0.00000000000E+00 -0.33489264114E+02  0.33489264114E+02  0.00000000000E+00 0.  1.
         23    2    1    2    0    0 -0.22041863749E+02  0.37538333693E+02  0.22136878513E+03  0.24295316799E+03  0.90150610397E+02 0.  0.
          5    1    1    2  502    0  0.39290400471E+02 -0.73366253930E+02  0.74012994393E+02  0.11145285337E+03  0.41800000000E+01 0.  1.
         -5    1    1    2    0  502 -0.17248536722E+02  0.35827920237E+02  0.96511084772E+02  0.10446537116E+03  0.41800000000E+01 0.  1.
        -11    1    3    3    0    0  0.19735934229E+02 -0.18523645684E+02  0.37564953207E+02  0.46300737130E+02  0.00000000000E+00 0.  1.
         11    1    3    3    0    0 -0.41777797978E+02  0.56061979377E+02  0.18380383192E+03  0.19665243086E+03  0.00000000000E+00 0. -1.
</event>
<event>
 7    1  0.6145388E-006  0.9059564E+02  0.7561462E-02  0.1301416E+00
         -1   -1    0    0    0  501 -0.00000000000E+00  0.00000000000E+00  0.38434137897E+02  0.38434137897E+02  0.00000000000E+00 0.  1.
          1   -1    0    0  501    0  0.00000000000E+00 -0.00000000000E+00 -0.39469340908E+03  0.39469340908E+03  0.00000000000E+00 0. -1.
         23    2    1    2    0    0 -0.45859136847E+02 -0.32316047416E+02 -0.19315203104E+03  0.22011216763E+03  0.89410692253E+02 0.  0.
          5    1    1    2  502    0  0.76324354385E+02  0.22244013552E+02 -0.16215520893E+03  0.18064326003E+03  0.41800000000E+01 0. -1.
         -5    1    1    2    0  502 -0.30465217538E+02  0.10072033864E+02 -0.95203121092E+00  0.32372119320E+02  0.41800000000E+01 0. -1.
        -11    1    3    3    0    0 -0.51931999016E+02 -0.20297045713E+02 -0.19807591922E+03  0.20577408088E+03  0.00000000000E+00 0. -1.
         11    1    3    3    0    0  0.60728621693E+01 -0.12019001702E+02  0.49238881777E+01  0.14338086750E+02  0.00000000000E+00 0.  1.
</event>
<event>
 7    1  0.6145388E-006  0.9447429E+02  0.7561462E-02  0.1292365E+00
         -2   -1    0    0    0  501 -0.00000000000E+00  0.00000000000E+00  0.72774668117E+02  0.72774668117E+02  0.00000000000E+00 0.  1.
          2   -1    0    0  501    0  0.00000000000E+00 -0.00000000000E+00 -0.19059250430E+03  0.19059250430E+03  0.00000000000E+00 0. -1.
         23    2    1    2    0    0  0.41463690822E+02  0.10996611679E+02 -0.63715247475E+02  0.12048609180E+03  0.92828349286E+02 0.  0.
          5    1    1    2  502    0  0.76744324253E+01  0.49001371093E+02 -0.40202602632E+02  0.63982442439E+02  0.41800000000E+01 0. -1.
         -5    1    1    2    0  502 -0.49138123248E+02 -0.59997982773E+02 -0.13899986073E+02  0.78898638175E+02  0.41800000000E+01 0. -1.
        -11    1    3    3    0    0  0.44410650183E+02 -0.55016113005E+01 -0.83391421936E+02  0.94639858564E+02  0.00000000000E+00 0. -1.
         11    1    3    3    0    0 -0.29469593606E+01  0.16498222980E+02  0.19676174461E+02  0.25846233234E+02  0.00000000000E+00 0.  1.
</event>
<event>
 7    1  0.6145388E-006  0.1032975E+03  0.7561462E-02  0.1273511E+00
         -1   -1    0    0    0  501 -0.00000000000E+00  0.00000000000E+00  0.31808676968E+02  0.31808676968E+02  0.00000000000E+00 0.  1.
          1   -1    0    0  501    0  0.00000000000E+00 -0.00000000000E+00 -0.45947203408E+03  0.45947203408E+03  0.00000000000E+00 0. -1.
         23    2    1    2    0    0  0.19699408140E+02  0.42432078908E+02 -0.23954237480E+03  0.26057376154E+03  0.91266575924E+02 0.  0.
          5    1    1    2  502    0  0.16818029477E+02  0.23114436667E+02 -0.82925465623E+00  0.28901269197E+02  0.41800000000E+01 0.  1.
         -5    1    1    2    0  502 -0.36517437617E+02 -0.65546515575E+02 -0.18729172766E+03  0.20180568031E+03  0.41800000000E+01 0.  1.
        -11    1    3    3    0    0  0.48793327607E+02  0.52591396027E+02 -0.16699217940E+03  0.18174991537E+03  0.00000000000E+00 0. -1.
         11    1    3    3    0    0 -0.29093919467E+02 -0.10159317119E+02 -0.72550195396E+02  0.78823846178E+02  0.00000000000E+00 0.  1.
</event>
<event>
 7    1  0.6145388E-006  0.1501748E+03  0.7561462E-02  0.1200258E+00
         -2   -1    0    0    0  501 -0.00000000000E+00  0.00000000000E+00  0.15895030763E+03  0.15895030763E+03  0.00000000000E+00 0.  1.
          2   -1    0    0  501    0  0.00000000000E+00 -0.00000000000E+00 -0.38952370803E+03  0.38952370803E+03  0.00000000000E+00 0. -1.
         23    2    1    2    0    0 -0.14600775967E+02  0.10317813587E+03 -0.32941155046E+03  0.35801281600E+03  0.93820554602E+02 0.  0.
          5    1    1    2  502    0  0.35098520993E+02 -0.12570876698E+03  0.89566843748E+02  0.15834864120E+03  0.41800000000E+01 0. -1.
         -5    1    1    2    0  502 -0.20497745026E+02  0.22530631116E+02  0.92713063183E+01  0.32112558454E+02  0.41800000000E+01 0. -1.
        -11    1    3    3    0    0  0.32963624469E+02  0.79133279531E+02 -0.17976040532E+03  0.19915441192E+03  0.00000000000E+00 0.  1.
         11    1    3    3    0    0 -0.47564400436E+02  0.24044856335E+02 -0.14965114514E+03  0.15885840408E+03  0.00000000000E+00 0. -1.
</event>
<event>
 7    1  0.6145388E-006  0.2564709E+03  0.7561462E-02  0.1109282E+00
         -2   -1    0    0    0  501 -0.00000000000E+00  0.00000000000E+00  0.43523834663E+03  0.43523834663E+03  0.00000000000E+00 0.  1.
          2   -1    0    0  501    0  0.00000000000E+00 -0.00000000000E+00 -0.92338297654E+03  0.92338297654E+03  0.00000000000E+00 0. -1.
         23    2    1    2    0    0  0.16187983381E+03 -0.10528186815E+03 -0.85567682846E+03  0.88194995028E+03  0.91452324627E+02 0.  0.
          5    1    1    2  502    0 -0.16774330371E+01 -0.65411936289E+02  0.51584602434E+02  0.83426487394E+02  0.41800000000E+01 0. -1.
         -5    1    1    2    0  502 -0.16020240077E+03  0.17069380444E+03  0.31594759611E+03  0.39324488550E+03  0.41800000000E+01 0.  1.
        -11    1    3    3    0    0  0.28080527877E+02  0.16286652675E+02 -0.11144875561E+03  0.11608012848E+03  0.00000000000E+00 0.  1.
         11    1    3    3    0    0  0.13379930593E+03 -0.12156852082E+03 -0.74422807285E+03  0.76586982180E+03  0.00000000000E+00 0. -1.
</event>
<event>
 7    1  0.6145388E-006  0.3106208E+03  0.7561462E-02  0.1080049E+00
         -1   -1    0    0    0  501 -0.00000000000E+00  0.00000000000E+00  0.36169857816E+03  0.36169857816E+03  0.00000000000E+00 0.  1.
          1   -1    0    0  501    0  0.00000000000E+00 -0.00000000000E+00 -0.28724456300E+03  0.28724456300E+03  0.00000000000E+00 0. -1.
         23    2    1    2    0    0  0.23287386237E+03  0.19309129917E+03  0.28774257835E+02  0.31841481825E+03  0.95108112034E+02 0.  0.
          5    1    1    2  502    0 -0.12248637292E+03 -0.42172736957E+02  0.60258298547E+02  0.14293350285E+03  0.41800000000E+01 0.  1.
         -5    1    1    2    0  502 -0.11038748945E+03 -0.15091856221E+03 -0.14578541222E+02  0.18759482006E+03  0.41800000000E+01 0.  1.
        -11    1    3    3    0    0  0.93384130893E+02  0.10045094431E+03 -0.31004743990E+02  0.14061394762E+03  0.00000000000E+00 0. -1.
         11    1    3    3    0    0  0.13948973148E+03  0.92640354859E+02  0.59779001825E+02  0.17780087063E+03  0.00000000000E+00 0.  1.
</event>
<event>
 7    1  0.6145388E-006  0.2674489E+03  0.7561462E-02  0.1102749E+00
          2   -1    0    0  501    0  0.00000000000E+00  0.00000000000E+00  0.40557062443E+03  0.40557062443E+03  0.00000000000E+00 0. -1.
         -2   -1    0    0    0  501 -0.00000000000E+00 -0.00000000000E+00 -0.20494813441E+03  0.20494813441E+03  0.00000000000E+00 0.  1.
         23    2    1    2    0    0  0.24752378004E+03  0.68825839509E+02  0.17488313243E+03  0.32361307789E+03  0.90201420724E+02 0.  0.
          5    1    1    2  502    0 -0.15110961442E+03 -0.68336500621E+01 -0.37538542103E+02  0.15590839902E+03  0.41800000000E+01 0.  1.
         -5    1    1    2    0  502 -0.96414165625E+02 -0.61992189447E+02  0.63277899689E+02  0.13099728194E+03  0.41800000000E+01 0.  1.
        -11    1    3    3    0    0  0.61845517528E+02  0.54862961558E+02  0.30988731729E+02  0.88289943275E+02  0.00000000000E+00 0. -1.
         11    1    3    3    0    0  0.18567826251E+03  0.13962877951E+02  0.14389440070E+03  0.23532313461E+03  0.00000000000E+00 0.  1.
</event>
<event>
 7    1  0.6145388E-006  0.1483109E+03  0.7561462E-02  0.1202564E+00
         -1   -1    0    0    0  501 -0.00000000000E+00  0.00000000000E+00  0.28584370104E+03  0.28584370104E+03  0.00000000000E+00 0.  1.
          1   -1    0    0  501    0  0.00000000000E+00 -0.00000000000E+00 -0.11432760938E+03  0.11432760938E+03  0.00000000000E+00 0. -1.
         23    2    1    2    0    0 -0.16334223113E+02 -0.12656555116E+03  0.63392403225E+01  0.15682732979E+03  0.90933931055E+02 0.  0.
          5    1    1    2  502    0 -0.32221054213E+02  0.93624566574E+01  0.89241211677E+02  0.95432270176E+02  0.41800000000E+01 0.  1.
         -5    1    1    2    0  502  0.48555277326E+02  0.11720309450E+03  0.75935639660E+02  0.14791171045E+03  0.41800000000E+01 0.  1.
        -11    1    3    3    0    0 -0.32862339819E+02 -0.81482691500E+02 -0.33905680330E+02  0.94175142958E+02  0.00000000000E+00 0.  1.
         11    1    3    3    0    0  0.16528116706E+02 -0.45082859657E+02  0.40244920652E+02  0.62652186833E+02  0.00000000000E+00 0. -1.
</event>
<event>
 7    1  0.6145388E-006  0.1069242E+03  0.7561462E-02  0.1266374E+00
          1   -1    0    0  501    0  0.00000000000E+00  0.00000000000E+00  0.66045508827E+03  0.66045508827E+03  0.00000000000E+00 0. -1.
         -1   -1    0    0    0  501 -0.00000000000E+00 -0.00000000000E+00 -0.57508920091E+02  0.57508920091E+02  0.00000000000E+00 0.  1.
         23    2    1    2    0    0  0.71921928325E+02  0.92272907483E+01  0.54463143676E+03  0.55674592469E+03  0.89915049286E+02 0.  0.
          5    1    1    2  502    0 -0.80113210868E+02  0.11169761362E+02  0.90862000859E+02  0.12172208396E+03  0.41800000000E+01 0. -1.
         -5    1    1    2    0  502  0.81912825436E+01 -0.20397052110E+02 -0.32547269440E+02  0.39495999702E+02  0.41800000000E+01 0.  1.
        -11    1    3    3    0    0 -0.15156402958E+02  0.17330977254E+02  0.59584337676E+02  0.63877794416E+02  0.00000000000E+00 0.  1.
         11    1    3    3    0    0  0.87078331283E+02 -0.81036865053E+01  0.48504709908E+03  0.49286813028E+03  0.00000000000E+00 0. -1.
</event>
<event>
 7    1  0.1429756E-005  0.2737476E+03  0.7561462E-02  0.1099154E+00
          2   -1    0    0  501    0  0.00000000000E+00  0.00000000000E+00  0.20296265326E+04  0.20296265326E+04  0.00000000000E+00 0.  1.
         -2   -1    0    0    0  501 -0.00000000000E+00 -0.00000000000E+00 -0.42238986270E+02  0.42238986270E+02  0.00000000000E+00 0. -1.
         23    2    1    2    0    0 -0.25601007012E+03 -0.76615851653E+02  0.11388484809E+04  0.11734906586E+04  0.93237968459E+02 0.  0.
          5    1    1    2  502    0  0.56275700772E+02  0.34026904779E+02  0.40158438793E+03  0.40695488420E+03  0.41800000000E+01 0. -1.
         -5    1    1    2    0  502  0.19973436934E+03  0.42588946874E+02  0.44695467752E+03  0.49141997604E+03  0.41800000000E+01 0. -1.
        -11    1    3    3    0    0 -0.10358975082E+03 -0.69503463679E+02  0.63108500131E+03  0.64329608022E+03  0.00000000000E+00 0.  1.
         11    1    3    3    0    0 -0.15242031930E+03 -0.71123879738E+01  0.50776347955E+03  0.53019457840E+03  0.00000000000E+00 0. -1.
</event>
<event>
 7    1  0.6145388E-006  0.1095869E+03  0.7561462E-02  0.1261337E+00
          1   -1    0    0  501    0  0.00000000000E+00  0.00000000000E+00  0.26915004017E+03  0.26915004017E+03  0.00000000000E+00 0. -1.
         -1   -1    0    0    0  501 -0.00000000000E+00 -0.00000000000E+00 -0.55741762561E+02  0.55741762561E+02  0.00000000000E+00 0.  1.
         23    2    1    2    0    0 -0.96311746963E+01 -0.34966621188E+02  0.15419765213E+03  0.18182022701E+03  0.89253878927E+02 0.  0.
          5    1    1    2  502    0 -0.14817388799E+02  0.76020184601E+02  0.54666656414E+02  0.94892250480E+02  0.41800000000E+01 0.  1.
         -5    1    1    2    0  502  0.24448563495E+02 -0.41053563414E+02  0.45439690628E+01  0.48179325242E+02  0.41800000000E+01 0.  1.
        -11    1    3    3    0    0  0.31589797796E+02 -0.41241573874E+02  0.10630912605E+03  0.11832334099E+03  0.00000000000E+00 0. -1.
         11    1    3    3    0    0 -0.41220972493E+02  0.62749526859E+01  0.47888526080E+02  0.63496886022E+02  0.00000000000E+00 0.  1.
</event>
<event>
 7    1  0.6145388E-006  0.1243185E+03  0.7561462E-02  0.1236138E+00
          1   -1    0    0  501    0  0.00000000000E+00  0.00000000000E+00  0.19771195577E+03  0.19771195577E+03  0.00000000000E+00 0. -1.
         -1   -1    0    0    0  501 -0.00000000000E+00 -0.00000000000E+00 -0.10257746093E+03  0.10257746093E+03  0.00000000000E+00 0.  1.
         23    2    1    2    0    0  0.50970677397E+02 -0.42573096606E+02  0.11156438487E+03  0.15771188522E+03  0.89531828184E+02 0.  0.
          5    1    1    2  502    0 -0.16097263180E+01 -0.42740598725E+02 -0.50667949359E+01  0.43272333068E+02  0.41800000000E+01 0.  1.
         -5    1    1    2    0  502 -0.49360951079E+02  0.85313695332E+02 -0.11363095096E+02  0.99305198417E+02  0.41800000000E+01 0.  1.
        -11    1    3    3    0    0  0.45766358500E+01  0.24793768542E+02  0.95658328307E+01  0.26966306977E+02  0.00000000000E+00 0.  1.
         11    1    3    3    0    0  0.46394041547E+02 -0.67366865148E+02  0.10199855204E+03  0.13074557824E+03  0.00000000000E+00 0. -1.
</event>
<event>
 7    1  0.6145388E-006  0.2831312E+03  0.7561462E-02  0.1093991E+00
          1   -1    0    0  501    0  0.00000000000E+00  0.00000000000E+00  0.14560668223E+04  0.14560668223E+04  0.00000000000E+00 0. -1.
         -1   -1    0    0    0  501 -0.00000000000E+00 -0.00000000000E+00 -0.62535142167E+02  0.62535142167E+02  0.00000000000E+00 0.  1.
         23    2    1    2    0    0  0.27428698470E+03  0.56200171309E+02  0.73063039917E+03  0.78820585271E+03  0.95162370902E+02 0.  0.
          5    1    1    2  502    0 -0.20370479208E+03 -0.16241475792E+02  0.33367467320E+03  0.39129999717E+03  0.41800000000E+01 0.  1.
         -5    1    1    2    0  502 -0.70582192615E+02 -0.39958695517E+02  0.32922660778E+03  0.33909611459E+03  0.41800000000E+01 0.  1.
        -11    1    3    3    0    0  0.38580639539E+02  0.14885705437E+02  0.22548889471E+03  0.22924940919E+03  0.00000000000E+00 0.  1.
         11    1    3    3    0    0  0.23570634516E+03  0.41314465873E+02  0.50514150445E+03  0.55895644353E+03  0.00000000000E+00 0. -1.
</event>
<event>
 7    1  0.6145388E-006  0.1211052E+03  0.7561462E-02  0.1241285E+00
          2   -1    0    0  501    0  0.00000000000E+00  0.00000000000E+00  0.59749387450E+03  0.59749387450E+03  0.00000000000E+00 0. -1.
         -2   -1    0    0    0  501 -0.00000000000E+00 -0.00000000000E+00 -0.37079355254E+02  0.37079355254E+02  0.00000000000E+00 0.  1.
         23    2    1    2    0    0 -0.26101556528E+02  0.10068236846E+03  0.28590055284E+03  0.31547349182E+03  0.83463569003E+02 0.  0.
          5    1    1    2  502    0  0.13221927589E+02  0.90083457905E+01  0.15665665531E+03  0.15752698091E+03  0.41800000000E+01 0. -1.
         -5    1    1    2    0  502  0.12879628939E+02 -0.10969071425E+03  0.11785731109E+03  0.16157275702E+03  0.41800000000E+01 0. -1.
        -11    1    3    3    0    0 -0.24867500235E+02  0.14153452651E+02  0.16100166517E+03  0.16352445987E+03  0.00000000000E+00 0. -1.
         11    1    3    3    0    0 -0.12340562927E+01  0.86528915808E+02  0.12489888768E+03  0.15194903194E+03  0.00000000000E+00 0.  1.
</event>
<event>
 7    1  0.6145388E-006  0.1046178E+03  0.7561462E-02  0.1270875E+00
         -1   -1    0    0    0  501 -0.00000000000E+00  0.00000000000E+00  0.76343151527E+02  0.76343151527E+02  0.00000000000E+00 0.  1.
          1   -1    0    0  501    0  0.00000000000E+00 -0.00000000000E+00 -0.19695708319E+03  0.19695708319E+03  0.00000000000E+00 0. -1.
         23    2    1    2    0    0  0.13368617851E+02 -0.47122292707E+02 -0.88401391951E+02  0.13515199968E+03  0.89733084788E+02 0.  0.
          5    1    1    2  502    0  0.40115068312E+02  0.31385664488E+02 -0.57378702181E+02  0.76837923612E+02  0.41800000000E+01 0. -1.
         -5    1    1    2    0  502 -0.53483686163E+02  0.15736628219E+02  0.25166162470E+02  0.61310311423E+02  0.41800000000E+01 0. -1.
        -11    1    3    3    0    0  0.42233702665E+02  0.51138443463E+01 -0.35940689476E+02  0.55691742699E+02  0.00000000000E+00 0. -1.
         11    1    3    3    0    0 -0.28865084814E+02 -0.52236137053E+02 -0.52460702475E+02  0.79460256982E+02  0.00000000000E+00 0.  1.
</event>
<event>
 7    1  0.6145388E-006  0.1026829E+03  0.7561462E-02  0.1274753E+00
          1   -1    0    0  501    0  0.00000000000E+00  0.00000000000E+00  0.42320840626E+03  0.42320840626E+03  0.00000000000E+00 0. -1.
         -1   -1    0    0    0  501 -0.00000000000E+00 -0.00000000000E+00 -0.42104773096E+02  0.42104773096E+02  0.00000000000E+00 0.  1.
         23    2    1    2    0    0  0.36122815360E+02  0.40735597040E+02  0.26082522810E+03  0.28343563657E+03  0.96652541641E+02 0.  0.
          5    1    1    2  502    0 -0.11917244276E+02 -0.75455683143E+02  0.11623735692E+03  0.13915522403E+03  0.41800000000E+01 0. -1.
         -5    1    1    2    0  502 -0.24205571084E+02  0.34720086104E+02  0.40410481411E+01  0.42722318765E+02  0.41800000000E+01 0. -1.
        -11    1    3    3    0    0  0.50399833389E+02  0.85503232167E+01  0.56891089277E+02  0.76484294283E+02  0.00000000000E+00 0.  1.
         11    1    3    3    0    0 -0.14277018029E+02  0.32185273823E+02  0.20393413883E+03  0.20695134229E+03  0.00000000000E+00 0. -1.
</event>
<event>
 7    1  0.6145388E-006  0.1312260E+03  0.7561462E-02  0.1225648E+00
          2   -1    0    0  501    0  0.00000000000E+00  0.00000000000E+00  0.59541168988E+03  0.59541168988E+03  0.00000000000E+00 0. -1.
         -2   -1    0    0    0  501 -0.00000000000E+00 -0.00000000000E+00 -0.29600835952E+02  0.29600835952E+02  0.00000000000E+00 0.  1.
         23    2    1    2    0    0  0.65265768309E+01  0.74920777408E+02  0.28752165545E+03  0.31076981736E+03  0.90848543938E+02 0.  0.
          5    1    1    2  502    0  0.57646444492E+02 -0.47525874887E+02  0.12347359032E+03  0.14437804976E+03  0.41800000000E+01 0. -1.
         -5    1    1    2    0  502 -0.64173021323E+02 -0.27394902522E+02  0.15481560816E+03  0.16986465871E+03  0.41800000000E+01 0. -1.
        -11    1    3    3    0    0 -0.42132515566E+02  0.35771666895E+02  0.12567285046E+03  0.13728957121E+03  0.00000000000E+00 0.  1.
         11    1    3    3    0    0  0.48659092397E+02  0.39149110513E+02  0.16184880500E+03  0.17348024615E+03  0.00000000000E+00 0. -1.
</event>
<event>
 7    1  0.6145388E-006  0.1117284E+03  0.7561462E-02  0.1257402E+00
          3   -1    0    0  501    0  0.00000000000E+00  0.00000000000E+00  0.25244676851E+03  0.25244676851E+03  0.00000000000E+00 0. -1.
         -3   -1    0    0    0  501 -0.00000000000E+00 -0.00000000000E+00 -0.79631420379E+02  0.79631420379E+02  0.00000000000E+00 0.  1.
         23    2    1    2    0    0  0.44274932786E+02  0.54115358363E+02  0.15854644016E+03  0.19602451818E+03  0.91650948488E+02 0.  0.
          5    1    1    2  502    0 -0.40079713635E+01  0.35953023951E+02  0.65842729375E+01  0.37006875250E+02  0.41800000000E+01 0. -1.
         -5    1    1    2    0  502 -0.40266961422E+02 -0.90068382314E+02  0.76846350399E+01  0.99046795458E+02  0.41800000000E+01 0.  1.
        -11    1    3    3    0    0  0.27855181756E+02 -0.37825711583E+01  0.12290985471E+03  0.12608350955E+03  0.00000000000E+00 0.  1.
         11    1    3    3    0    0  0.16419751029E+02  0.57897929522E+02  0.35636585449E+02  0.69941008638E+02  0.00000000000E+00 0. -1.
</event>
<event>
 7    1  0.6145388E-006  0.1051949E+03  0.7561462E-02  0.1269736E+00
          4   -1    0    0  501    0  0.00000000000E+00  0.00000000000E+00  0.62482021985E+02  0.62482021985E+02  0.00000000000E+00 0. -1.
         -4   -1    0    0    0  501 -0.00000000000E+00 -0.00000000000E+00 -0.23308688370E+03  0.23308688370E+03  0.00000000000E+00 0.  1.
         23    2    1    2    0    0  0.53106644008E+02  0.26684010192E+02 -0.78597977604E+02  0.12930037090E+03  0.83717332690E+02 0.  0.
          5    1    1    2  502    0  0.10248296043E+02  0.36981030031E+02 -0.58962323741E+02  0.70474478891E+02  0.41800000000E+01 0. -1.
         -5    1    1    2    0  502 -0.63354940051E+02 -0.63665040223E+02 -0.33044560369E+02  0.95794055898E+02  0.41800000000E+01 0. -1.
        -11    1    3    3    0    0  0.59250523131E+02  0.51425255701E+01 -0.14238394354E+02  0.61153920024E+02  0.00000000000E+00 0. -1.
         11    1    3    3    0    0 -0.61438791229E+01  0.21541484621E+02 -0.64359583250E+02  0.68146450872E+02  0.00000000000E+00 0.  1.
</event>
<event>
 7    1  0.6145388E-006  0.9637921E+02  0.7561462E-02  0.1288100E+00
          1   -1    0    0  501    0  0.00000000000E+00  0.00000000000E+00  0.11266509229E+03  0.11266509229E+03  0.00000000000E+00 0. -1.
         -1   -1    0    0    0  501 -0.00000000000E+00 -0.00000000000E+00 -0.11080087971E+03  0.11080087971E+03  0.00000000000E+00 0.  1.
         23    2    1    2    0    0  0.40244136247E+01 -0.24831768695E+01  0.36262403769E+02  0.93692070879E+02  0.86260536435E+02 0.  0.
          5    1    1    2  502    0 -0.33320753328E+02  0.53818443514E+02 -0.30510863828E+02  0.70392348137E+02  0.41800000000E+01 0.  1.
         -5    1    1    2    0  502  0.29296339704E+02 -0.51335266645E+02 -0.38873273631E+01  0.59381552990E+02  0.41800000000E+01 0.  1.
        -11    1    3    3    0    0  0.16552721956E+02  0.30545916994E+02  0.45434286609E+02  0.57195454791E+02  0.00000000000E+00 0. -1.
         11    1    3    3    0    0 -0.12528308331E+02 -0.33029093863E+02 -0.91718828394E+01  0.36496616088E+02  0.00000000000E+00 0.  1.
</event>
<event>
 7    1  0.6145388E-006  0.1660854E+03  0.7561462E-02  0.1181993E+00
          1   -1    0    0  501    0  0.00000000000E+00  0.00000000000E+00  0.24507342282E+03  0.24507342282E+03  0.00000000000E+00 0. -1.
         -1   -1    0    0    0  501 -0.00000000000E+00 -0.00000000000E+00 -0.13822708060E+03  0.13822708060E+03  0.00000000000E+00 0.  1.
         23    2    1    2    0    0  0.12399382512E+03 -0.73691222321E+02  0.87771715269E+02  0.19142331142E+03  0.90189496290E+02 0.  0.
          5    1    1    2  502    0 -0.14762374741E+03  0.58021225836E+02  0.23394600236E+01  0.15868893761E+03  0.41800000000E+01 0.  1.
         -5    1    1    2    0  502  0.23629922290E+02  0.15669996485E+02  0.16735166927E+02  0.33188254388E+02  0.41800000000E+01 0.  1.
        -11    1    3    3    0    0  0.14244986638E+02 -0.13701290702E+02 -0.18669176260E+02  0.27187922934E+02  0.00000000000E+00 0.  1.
         11    1    3    3    0    0  0.10974883848E+03 -0.59989931619E+02  0.10644089153E+03  0.16423538849E+03  0.00000000000E+00 0. -1.
</event>
<event>
 7    1  0.6145388E-006  0.1208258E+03  0.7561462E-02  0.1241741E+00
          1   -1    0    0  501    0  0.00000000000E+00  0.00000000000E+00  0.16989212847E+02  0.16989212847E+02  0.00000000000E+00 0. -1.
         -1   -1    0    0    0  501 -0.00000000000E+00 -0.00000000000E+00 -0.95714790611E+03  0.95714790611E+03  0.00000000000E+00 0.  1.
         23    2    1    2    0    0 -0.41451227731E+02  0.47147756307E+02 -0.32123227442E+03  0.33958317836E+03  0.90473452961E+02 0.  0.
          5    1    1    2  502    0 -0.29519519184E+02  0.18248645671E+02 -0.27859288420E+03  0.28077728292E+03  0.41800000000E+01 0. -1.
         -5    1    1    2    0  502  0.70970746915E+02 -0.65396401978E+02 -0.34033353465E+03  0.35377665767E+03  0.41800000000E+01 0. -1.
        -11    1    3    3    0    0  0.15509705402E+02  0.50707874487E+02 -0.15134067922E+03  0.16036159354E+03  0.00000000000E+00 0.  1.
         11    1    3    3    0    0 -0.56960933133E+02 -0.35601181802E+01 -0.16989159520E+03  0.17922158482E+03  0.00000000000E+00 0. -1.
</event>
<event>
 7    1  0.6145388E-006  0.9516258E+02  0.7561462E-02  0.1290810E+00
          2   -1    0    0  501    0  0.00000000000E+00  0.00000000000E+00  0.43171996480E+03  0.43171996480E+03  0.00000000000E+00 0. -1.
         -2   -1    0    0    0  501 -0.00000000000E+00 -0.00000000000E+00 -0.31699389766E+02  0.31699389766E+02  0.00000000000E+00 0.  1.
         23    2    1    2    0    0  0.17394900468E+02 -0.42291038599E+02  0.19435765367E+03  0.21839659848E+03  0.88493288896E+02 0.  0.
          5    1    1    2  502    0 -0.58861674727E+02  0.46297404521E+02  0.18218518222E+03  0.19702045436E+03  0.41800000000E+01 0. -1.
         -5    1    1    2    0  502  0.41466774259E+02 -0.40063659222E+01  0.23477739143E+02  0.48002301722E+02  0.41800000000E+01 0. -1.
        -11    1    3    3    0    0  0.35508965521E+02 -0.42442088587E+02  0.19237254489E+03  0.20017345864E+03  0.00000000000E+00 0. -1.
         11    1    3    3    0    0 -0.18114065053E+02  0.15104998855E+00  0.19851087810E+01  0.18223139842E+02  0.00000000000E+00 0.  1.
</event>
<event>
 7    1  0.6145388E-006  0.1081040E+03  0.7561462E-02  0.1264122E+00
         -1   -1    0    0    0  501 -0.00000000000E+00  0.00000000000E+00  0.43598005783E+03  0.43598005783E+03  0.00000000000E+00 0.  1.
          1   -1    0    0  501    0  0.00000000000E+00 -0.00000000000E+00 -0.63876391918E+02  0.63876391918E+02  0.00000000000E+00 0. -1.
         23    2    1    2    0    0  0.68526601455E+02 -0.31140726253E+02  0.18446889318E+02  0.11725090887E+03  0.87987771692E+02 0.  0.
          5    1    1    2  502    0 -0.50913832606E+02 -0.14355311151E+02  0.43521277873E+02  0.68628473220E+02  0.41800000000E+01 0. -1.
         -5    1    1    2    0  502 -0.17612768849E+02  0.45496037403E+02  0.31013549872E+03  0.31397706765E+03  0.41800000000E+01 0. -1.
        -11    1    3    3    0    0  0.73037543146E+02  0.91752144719E+01  0.24772103688E+01  0.73653267684E+02  0.00000000000E+00 0. -1.
         11    1    3    3    0    0 -0.45109416904E+01 -0.40315940724E+02  0.15969678949E+02  0.43597641188E+02  0.00000000000E+00 0.  1.
</event>
<event>
 7    1  0.6145388E-006  0.8866512E+02  0.7561462E-02  0.1306117E+00
          4   -1    0    0  501    0  0.00000000000E+00  0.00000000000E+00  0.33879164257E+03  0.33879164257E+03  0.00000000000E+00 0.  1.
         -4   -1    0    0    0  501 -0.00000000000E+00 -0.00000000000E+00 -0.41133455803E+02  0.41133455803E+02  0.00000000000E+00 0. -1.
         23    2    1    2    0    0 -0.63386545549E+01 -0.44922261982E+02  0.14912716958E+03  0.18050857648E+03  0.91028815839E+02 0.  0.
          5    1    1    2  502    0  0.38698083116E+02  0.39174788411E+02  0.89339747087E+01  0.55941880447E+02  0.41800000000E+01 0. -1.
         -5    1    1    2    0  502 -0.32359428561E+02  0.57474735712E+01  0.13959704248E+03  0.14347464145E+03  0.41800000000E+01 0. -1.
        -11    1    3    3    0    0  0.48155655622E+01  0.21291368310E+02  0.63558929434E+01  0.22735641871E+02  0.00000000000E+00 0. -1.
         11    1    3    3    0    0 -0.11154220117E+02 -0.66213630292E+02  0.14277127663E+03  0.15777293461E+03  0.00000000000E+00 0.  1.
</event>
<event>
 7    1  0.6145388E-006  0.2667489E+03  0.7561462E-02  0.1103155E+00
         -4   -1    0    0    0  501 -0.00000000000E+00  0.00000000000E+00  0.16537345683E+03  0.16537345683E+03  0.00000000000E+00 0.  1.
          4   -1    0    0  501    0  0.00000000000E+00 -0.00000000000E+00 -0.97199815802E+03  0.97199815802E+03  0.00000000000E+00 0. -1.
         23    2    1    2    0    0 -0.24783527133E+03  0.79380701132E+02 -0.80236543452E+03  0.84860031942E+03  0.92782510067E+02 0.  0.
          5    1    1    2  502    0  0.92272477154E+02 -0.58898074031E+02 -0.56610177549E+02  0.12331008786E+03  0.41800000000E+01 0. -1.
         -5    1    1    2    0  502  0.15556279418E+03 -0.20482627101E+02  0.52350910879E+02  0.16546120759E+03  0.41800000000E+01 0. -1.
        -11    1    3    3    0    0 -0.15490362069E+03  0.18764647203E+02 -0.35678249203E+03  0.38941108139E+03  0.00000000000E+00 0.  1.
         11    1    3    3    0    0 -0.92931650642E+02  0.60616053929E+02 -0.44558294249E+03  0.45918923803E+03  0.00000000000E+00 0. -1.
</event>
<event>
 7    1  0.6145388E-006  0.1733721E+03  0.7561462E-02  0.1174376E+00
         -2   -1    0    0    0  501 -0.00000000000E+00  0.00000000000E+00  0.20541042444E+03  0.20541042444E+03  0.00000000000E+00 0.  1.
          2   -1    0    0  501    0  0.00000000000E+00 -0.00000000000E+00 -0.20465063121E+03  0.20465063121E+03  0.00000000000E+00 0. -1.
         23    2    1    2    0    0 -0.10331226733E+03 -0.11890652000E+03 -0.65844244172E+02  0.19817428636E+03  0.10062503766E+03 0.  0.
          5    1    1    2  502    0  0.96081948699E+02  0.12330903463E+03  0.12403287357E+02  0.15686992326E+03  0.41800000000E+01 0.  1.
         -5    1    1    2    0  502  0.72303186314E+01 -0.44025146219E+01  0.54200750036E+02  0.55016846029E+02  0.41800000000E+01 0.  1.
        -11    1    3    3    0    0 -0.10195937256E+03 -0.52829064685E+02 -0.17205951296E+02  0.11611489348E+03  0.00000000000E+00 0.  1.
         11    1    3    3    0    0 -0.13528947692E+01 -0.66077455319E+02 -0.48638292876E+02  0.82059392879E+02  0.00000000000E+00 0. -1.
</event>
<event>
 7    1  0.6145388E-006  0.9687802E+02  0.7561462E-02  0.1287001E+00
         -3   -1    0    0    0  501 -0.00000000000E+00  0.00000000000E+00  0.41321683592E+02  0.41321683592E+02  0.00000000000E+00 0.  1.
          3   -1    0    0  501    0  0.00000000000E+00 -0.00000000000E+00 -0.27778837134E+03  0.27778837134E+03  0.00000000000E+00 0. -1.
         23    2    1    2    0    0  0.52778748231E+01  0.47241144819E+02 -0.12268314916E+03  0.14346133645E+03  0.57187570698E+02 0.  0.
          5    1    1    2  502    0 -0.29878383656E+02 -0.79405970800E+02 -0.46051341662E+02  0.96624140241E+02  0.41800000000E+01 0. -1.
         -5    1    1    2    0  502  0.24600508833E+02  0.32164825981E+02 -0.67732196929E+02  0.79024578240E+02  0.41800000000E+01 0. -1.
        -11    1    3    3    0    0  0.25135992456E+02  0.12466671974E+02 -0.80718075618E+02  0.85455507478E+02  0.00000000000E+00 0.  1.
         11    1    3    3    0    0 -0.19858117633E+02  0.34774472844E+02 -0.41965073540E+02  0.58005828972E+02  0.00000000000E+00 0. -1.
</event>
<event>
 7    1  0.6145388E-006  0.1094500E+03  0.7561462E-02  0.1261592E+00
          1   -1    0    0  501    0  0.00000000000E+00  0.00000000000E+00  0.38754956126E+03  0.38754956126E+03  0.00000000000E+00 0. -1.
         -1   -1    0    0    0  501 -0.00000000000E+00 -0.00000000000E+00 -0.43690726293E+02  0.43690726293E+02  0.00000000000E+00 0.  1.
         23    2    1    2    0    0  0.33780441039E+02  0.16966758750E+02  0.25262218227E+03  0.27186265511E+03  0.93071731321E+02 0.  0.
          5    1    1    2  502    0  0.37121581145E+02 -0.33738010925E+02  0.64135155399E+02  0.81529477650E+02  0.41800000000E+01 0.  1.
         -5    1    1    2    0  502 -0.70902022184E+02  0.16771252175E+02  0.27101497308E+02  0.77848154799E+02  0.41800000000E+01 0.  1.
        -11    1    3    3    0    0  0.45838696431E+02  0.45513610544E+02  0.12711704633E+03  0.14258828249E+03  0.00000000000E+00 0.  1.
         11    1    3    3    0    0 -0.12058255392E+02 -0.28546851794E+02  0.12550513593E+03  0.12927437262E+03  0.00000000000E+00 0. -1.
</event>
<event>
 7    1  0.6145388E-006  0.7817576E+02  0.7561462E-02  0.1334310E+00
          1   -1    0    0  501    0  0.00000000000E+00  0.00000000000E+00  0.12250684748E+03  0.12250684748E+03  0.00000000000E+00 0. -1.
         -1   -1    0    0    0  501 -0.00000000000E+00 -0.00000000000E+00 -0.99818245820E+02  0.99818245820E+02  0.00000000000E+00 0.  1.
         23    2    1    2    0    0  0.22318386261E+01  0.19452426821E+02  0.20141249695E+02  0.95689548025E+02  0.91473721085E+02 0.  0.
          5    1    1    2  502    0  0.24569159461E+02  0.19633351933E+02  0.50144223804E+02  0.59338248084E+02  0.41800000000E+01 0.  1.
         -5    1    1    2    0  502 -0.26800998087E+02 -0.39085778754E+02 -0.47596871844E+02  0.67297297186E+02  0.41800000000E+01 0.  1.
        -11    1    3    3    0    0  0.26385371411E+02  0.38232575923E+02 -0.15263325441E+02  0.48896695079E+02  0.00000000000E+00 0.  1.
         11    1    3    3    0    0 -0.24153532785E+02 -0.18780149102E+02  0.35404575135E+02  0.46792852946E+02  0.00000000000E+00 0. -1.
</event>
<event>
 7    1  0.6145388E-006  0.7102180E+02  0.7561462E-02  0.1356652E+00
          2   -1    0    0  501    0  0.00000000000E+00  0.00000000000E+00  0.14363892077E+03  0.14363892077E+03  0.00000000000E+00 0. -1.
         -2   -1    0    0    0  501 -0.00000000000E+00 -0.00000000000E+00 -0.11074370798E+03  0.11074370798E+03  0.00000000000E+00 0.  1.
         23    2    1    2    0    0  0.47765126556E+02  0.40534904000E+02  0.29387521883E+02  0.11443695150E+03  0.91146056792E+02 0.  0.
          5    1    1    2  502    0 -0.12273014481E+02 -0.17024825748E+01 -0.57679652475E+02  0.59143385438E+02  0.41800000000E+01 0.  1.
         -5    1    1    2    0  502 -0.35492112075E+02 -0.38832421425E+02  0.61187343373E+02  0.80802291813E+02  0.41800000000E+01 0.  1.
        -11    1    3    3    0    0  0.42923256153E+02  0.84531749144E+01 -0.25529323852E+02  0.50651835714E+02  0.00000000000E+00 0.  1.
         11    1    3    3    0    0  0.48418704032E+01  0.32081729085E+02  0.54916845735E+02  0.63785115784E+02  0.00000000000E+00 0. -1.
</event>
<event>
 7    1  0.6145388E-006  0.1048072E+03  0.7561462E-02  0.1270500E+00
          1   -1    0    0  501    0  0.00000000000E+00  0.00000000000E+00  0.29098639003E+03  0.29098639003E+03  0.00000000000E+00 0. -1.
         -1   -1    0    0    0  501 -0.00000000000E+00 -0.00000000000E+00 -0.51291642637E+02  0.51291642637E+02  0.00000000000E+00 0.  1.
         23    2    1    2    0    0  0.27973225020E+02  0.44427605646E+02  0.14047375949E+03  0.17542337046E+03  0.91017406769E+02 0.  0.
          5    1    1    2  502    0  0.29376418954E+02  0.27747264817E+02  0.20227173251E+02  0.45381666266E+02  0.41800000000E+01 0. -1.
         -5    1    1    2    0  502 -0.57349643974E+02 -0.72174870462E+02  0.78993814646E+02  0.12147299594E+03  0.41800000000E+01 0.  1.
        -11    1    3    3    0    0  0.28650271685E+02 -0.34229877605E+01  0.20110556399E+01  0.28924025613E+02  0.00000000000E+00 0.  1.
         11    1    3    3    0    0 -0.67704666523E+00  0.47850593406E+02  0.13846270385E+03  0.14649934484E+03  0.00000000000E+00 0. -1.
</event>
<event>
 7    1  0.6145388E-006  0.1398008E+03  0.7561462E-02  0.1213597E+00
         -1   -1    0    0    0  501 -0.00000000000E+00  0.00000000000E+00  0.98428641791E+02  0.98428641791E+02  0.00000000000E+00 0.  1.
          1   -1    0    0  501    0  0.00000000000E+00 -0.00000000000E+00 -0.20344498160E+03  0.20344498160E+03  0.00000000000E+00 0. -1.
         23    2    1    2    0    0 -0.23217458532E+02  0.91667926449E+02 -0.60869952204E+02  0.13898757826E+03  0.81672129337E+02 0.  0.
          5    1    1    2  502    0  0.63461306904E+02 -0.92793803548E+01 -0.10489420763E+02  0.65122536205E+02  0.41800000000E+01 0.  1.
         -5    1    1    2    0  502 -0.40243848372E+02 -0.82388546094E+02 -0.33656966836E+02  0.97763508918E+02  0.41800000000E+01 0.  1.
        -11    1    3    3    0    0  0.27882835504E+02  0.15736197700E+02 -0.25249209154E+02  0.40775029082E+02  0.00000000000E+00 0. -1.
         11    1    3    3    0    0 -0.51100294036E+02  0.75931728749E+02 -0.35620743051E+02  0.98212549182E+02  0.00000000000E+00 0.  1.
</event>
<event>
 7    1  0.6145388E-006  0.9535577E+02  0.7561462E-02  0.1290377E+00
         -1   -1    0    0    0  501 -0.00000000000E+00  0.00000000000E+00  0.19870242518E+03  0.19870242518E+03  0.00000000000E+00 0.  1.
          1   -1    0    0  501    0  0.00000000000E+00 -0.00000000000E+00 -0.12762811750E+03  0.12762811750E+03  0.00000000000E+00 0. -1.
         23    2    1    2    0    0 -0.30197436874E+02 -0.24480062186E+02 -0.77344442244E+02  0.12837037560E+03  0.94792573278E+02 0.  0.
          5    1    1    2  502    0 -0.27769366090E+02 -0.27754607426E+02  0.12918802522E+02  0.41543035337E+02  0.41800000000E+01 0. -1.
         -5    1    1    2    0  502  0.57966802964E+02  0.52234669612E+02  0.13549994740E+03  0.15641713174E+03  0.41800000000E+01 0. -1.
        -11    1    3    3    0    0 -0.45357896128E+02 -0.32629285216E+02 -0.74280209044E+01  0.56366519224E+02  0.00000000000E+00 0.  1.
         11    1    3    3    0    0  0.15160459255E+02  0.81492230302E+01 -0.69916421339E+02  0.72003856381E+02  0.00000000000E+00 0. -1.
</event>
<event>
 7    1  0.6145388E-006  0.1210677E+03  0.7561462E-02  0.1241346E+00
          2   -1    0    0  501    0  0.00000000000E+00  0.00000000000E+00  0.79539836796E+02  0.79539836796E+02  0.00000000000E+00 0. -1.
         -2   -1    0    0    0  501 -0.00000000000E+00 -0.00000000000E+00 -0.24877571883E+03  0.24877571883E+03  0.00000000000E+00 0.  1.
         23    2    1    2    0    0  0.59993443771E+02  0.60642198764E+02 -0.47433186891E+02  0.13397216630E+03  0.91771153186E+02 0.  0.
          5    1    1    2  502    0 -0.61713472859E+02  0.95849711017E+01 -0.11707195278E+02  0.63678530327E+02  0.41800000000E+01 0. -1.
         -5    1    1    2    0  502  0.17200290881E+01 -0.70227169865E+02 -0.11009549986E+03  0.13066485900E+03  0.41800000000E+01 0. -1.
        -11    1    3    3    0    0 -0.95986344155E+01  0.32866554924E+02 -0.48096321033E+02  0.59038972825E+02  0.00000000000E+00 0.  1.
         11    1    3    3    0    0  0.69592078187E+02  0.27775643839E+02  0.66313414273E+00  0.74933193472E+02  0.00000000000E+00 0. -1.
</event>
<event>
 7    1  0.6145388E-006  0.1641594E+03  0.7561462E-02  0.1184079E+00
         -1   -1    0    0    0  501 -0.00000000000E+00  0.00000000000E+00  0.51015089801E+02  0.51015089801E+02  0.00000000000E+00 0.  1.
          1   -1    0    0  501    0  0.00000000000E+00 -0.00000000000E+00 -0.58260125163E+03  0.58260125163E+03  0.00000000000E+00 0. -1.
         23    2    1    2    0    0 -0.12263970566E+03  0.48620989515E+02 -0.27163263706E+03  0.31639700363E+03  0.94436626189E+02 0.  0.
          5    1    1    2  502    0 -0.15143713124E+02  0.17036251380E+02 -0.12181872516E+02  0.26180838914E+02  0.41800000000E+01 0.  1.
         -5    1    1    2    0  502  0.13778341878E+03 -0.65657240895E+02 -0.24777165226E+03  0.29103849889E+03  0.41800000000E+01 0.  1.
        -11    1    3    3    0    0 -0.10040230454E+03  0.15653386500E+01 -0.12222259876E+03  0.15818165725E+03  0.00000000000E+00 0. -1.
         11    1    3    3    0    0 -0.22237401118E+02  0.47055650865E+02 -0.14941003830E+03  0.15821534638E+03  0.00000000000E+00 0.  1.
</event>
<event>
 7    1  0.6145388E-006  0.8844917E+02  0.7561462E-02  0.1306651E+00
          2   -1    0    0  501    0  0.00000000000E+00  0.00000000000E+00  0.19905455813E+03  0.19905455813E+03  0.00000000000E+00 0. -1.
         -2   -1    0    0    0  501 -0.00000000000E+00 -0.00000000000E+00 -0.69594293967E+02  0.69594293967E+02  0.00000000000E+00 0.  1.
         23    2    1    2    0    0  0.36799910687E+02  0.21707299192E+02  0.53541466702E+02  0.11620917764E+03  0.93874618758E+02 0.  0.
          5    1    1    2  502    0 -0.24685211532E+02 -0.66202898373E+02  0.94132676226E+01  0.71402138824E+02  0.41800000000E+01 0. -1.
         -5    1    1    2    0  502 -0.12114699156E+02  0.44495599181E+02  0.66505529841E+02  0.81037535634E+02  0.41800000000E+01 0. -1.
        -11    1    3    3    0    0  0.10229604095E+02  0.30227915893E+02  0.74673867677E+02  0.81206885256E+02  0.00000000000E+00 0. -1.
         11    1    3    3    0    0  0.26570306593E+02 -0.85206167011E+01 -0.21132400974E+02  0.35002292387E+02  0.00000000000E+00 0.  1.
</event>
<event>
 7    1  0.6145388E-006  0.9968232E+02  0.7561462E-02  0.1280965E+00
         -2   -1    0    0    0  501 -0.00000000000E+00  0.00000000000E+00  0.38515742426E+03  0.38515742426E+03  0.00000000000E+00 0.  1.
          2   -1    0    0  501    0  0.00000000000E+00 -0.00000000000E+00 -0.62198972648E+02  0.62198972648E+02  0.00000000000E+00 0. -1.
         23    2    1    2    0    0 -0.39131405072E+02 -0.85941917410E+01  0.10199385856E+01  0.99653836590E+02  0.91239902881E+02 0.  0.
          5    1    1    2  502    0  0.72134652639E+02 -0.17532625842E+02  0.11836186799E+03  0.13977769949E+03  0.41800000000E+01 0. -1.
         -5    1    1    2    0  502 -0.33003247567E+02  0.26126817583E+02  0.20357664504E+03  0.20792486083E+03  0.41800000000E+01 0. -1.
        -11    1    3    3    0    0  0.13277088917E+02 -0.24565675220E+02  0.27155771746E+02  0.38951115879E+02  0.00000000000E+00 0.  1.
         11    1    3    3    0    0 -0.52408493988E+02  0.15971483479E+02 -0.26135833160E+02  0.60702720710E+02  0.00000000000E+00 0. -1.
</event>
<event>
 7    1  0.6145388E-006  0.1063656E+03  0.7561462E-02  0.1267452E+00
          2   -1    0    0  501    0  0.00000000000E+00  0.00000000000E+00  0.31754762326E+03  0.31754762326E+03  0.00000000000E+00 0.  1.
         -2   -1    0    0    0  501 -0.00000000000E+00 -0.00000000000E+00 -0.52163733548E+02  0.52163733548E+02  0.00000000000E+00 0. -1.
         23    2    1    2    0    0 -0.53754476291E+02  0.59557837877E+02  0.12999374611E+03  0.16867256092E+03  0.71521877797E+02 0.  0.
          5    1    1    2  502    0  0.58816143420E+02 -0.81517060582E+00  0.12868272904E+03  0.14155112286E+03  0.41800000000E+01 0. -1.
         -5    1    1    2    0  502 -0.50616671290E+01 -0.58742667272E+02  0.67074145573E+01  0.59487673029E+02  0.41800000000E+01 0. -1.
        -11    1    3    3    0    0 -0.20601812411E+01  0.38946447837E+02  0.16655966435E+02  0.42408623696E+02  0.00000000000E+00 0. -1.
         11    1    3    3    0    0 -0.51694295050E+02  0.20611390040E+02  0.11333777968E+03  0.12626393722E+03  0.00000000000E+00 0.  1.
</event>
<event>
 7    1  0.6145388E-006  0.1306509E+03  0.7561462E-02  0.1226493E+00
         -1   -1    0    0    0  501 -0.00000000000E+00  0.00000000000E+00  0.16808183820E+03  0.16808183820E+03  0.00000000000E+00 0.  1.
          1   -1    0    0  501    0  0.00000000000E+00 -0.00000000000E+00 -0.12126608941E+03  0.12126608941E+03  0.00000000000E+00 0. -1.
         23    2    1    2    0    0  0.56211925939E+02  0.74574288765E+02  0.32736972620E+01  0.12728531524E+03  0.86427595242E+02 0.  0.
          5    1    1    2  502    0  0.28582728260E+02  0.13362013014E+02 -0.13305652044E+01  0.31855275079E+02  0.41800000000E+01 0.  1.
         -5    1    1    2    0  502 -0.84794654199E+02 -0.87936301779E+02  0.44872616741E+02  0.13020733729E+03  0.41800000000E+01 0.  1.
        -11    1    3    3    0    0 -0.29802908126E+01  0.37027571082E+02  0.34363264947E+02  0.50603924071E+02  0.00000000000E+00 0.  1.
         11    1    3    3    0    0  0.59192216752E+02  0.37546717683E+02 -0.31089567685E+02  0.76681391169E+02  0.00000000000E+00 0. -1.
</event>
<event>
 7    1  0.6145388E-006  0.1656036E+03  0.7561462E-02  0.1182512E+00
         -2   -1    0    0    0  501 -0.00000000000E+00  0.00000000000E+00  0.72325202174E+02  0.72325202174E+02  0.00000000000E+00 0.  1.
          2   -1    0    0  501    0  0.00000000000E+00 -0.00000000000E+00 -0.47285506927E+03  0.47285506927E+03  0.00000000000E+00 0. -1.
         23    2    1    2    0    0 -0.45754482678E+02 -0.13324957118E+03 -0.26335607499E+03  0.31212954159E+03  0.90661500050E+02 0.  0.
          5    1    1    2  502    0 -0.40056885100E+02  0.27891752716E+02 -0.17770715938E+02  0.52113094884E+02  0.41800000000E+01 0. -1.
         -5    1    1    2    0  502  0.85811367778E+02  0.10535781846E+03 -0.11940307616E+03  0.18093763497E+03  0.41800000000E+01 0. -1.
        -11    1    3    3    0    0  0.45476491178E+01 -0.40543212026E+02 -0.17099986595E+02  0.44236214750E+02  0.00000000000E+00 0.  1.
         11    1    3    3    0    0 -0.50302131796E+02 -0.92706359154E+02 -0.24625608840E+03  0.26789332684E+03  0.00000000000E+00 0. -1.
</event>
<event>
 7    1  0.6145388E-006  0.1076198E+03  0.7561462E-02  0.1265042E+00
         -3   -1    0    0    0  501 -0.00000000000E+00  0.00000000000E+00  0.54050794425E+03  0.54050794425E+03  0.00000000000E+00 0.  1.
          3   -1    0    0  501    0  0.00000000000E+00 -0.00000000000E+00 -0.26669196326E+02  0.26669196326E+02  0.00000000000E+00 0. -1.
         23    2    1    2    0    0 -0.41227390295E+02  0.23781015956E+02  0.22101682394E+03  0.24522266057E+03  0.94976219990E+02 0.  0.
          5    1    1    2  502    0 -0.34150838501E+02  0.77563888688E+01  0.17495324981E+03  0.17847283647E+03  0.41800000000E+01 0.  1.
         -5    1    1    2    0  502  0.75378228796E+02 -0.31537404825E+02  0.11786867418E+03  0.14348164353E+03  0.41800000000E+01 0.  1.
        -11    1    3    3    0    0 -0.59483887630E+02  0.41643740995E+02  0.19779695403E+03  0.21070398447E+03  0.00000000000E+00 0.  1.
         11    1    3    3    0    0  0.18256497334E+02 -0.17862725039E+02  0.23219869914E+02  0.34518676098E+02  0.00000000000E+00 0. -1.
</event>
<event>
 7    1  0.6145388E-006  0.1224684E+03  0.7561462E-02  0.1239080E+00
          1   -1    0    0  501    0  0.00000000000E+00  0.00000000000E+00  0.14603786244E+03  0.14603786244E+03  0.00000000000E+00 0. -1.
         -1   -1    0    0    0  501 -0.00000000000E+00 -0.00000000000E+00 -0.11579855533E+03  0.11579855533E+03  0.00000000000E+00 0.  1.
         23    2    1    2    0    0 -0.57578839375E+02 -0.35887192966E+01  0.56165124038E+02  0.12166521361E+03  0.91212397158E+02 0.  0.
          5    1    1    2  502    0 -0.35051524520E+02 -0.21861029625E+02 -0.99904167888E+01  0.42705910774E+02  0.41800000000E+01 0.  1.
         -5    1    1    2    0  502  0.92630363895E+02  0.25449748922E+02 -0.15935400137E+02  0.97465293377E+02  0.41800000000E+01 0.  1.
        -11    1    3    3    0    0  0.17274190621E+02 -0.24098412108E+02  0.96468721470E+01  0.31180013951E+02  0.00000000000E+00 0.  1.
         11    1    3    3    0    0 -0.74853029997E+02  0.20509692812E+02  0.46518251891E+02  0.90485199662E+02  0.00000000000E+00 0. -1.
</event>
<event>
 7    1  0.6145388E-006  0.1279065E+03  0.7561462E-02  0.1230596E+00
          2   -1    0    0  501    0  0.00000000000E+00  0.00000000000E+00  0.20333822229E+03  0.20333822229E+03  0.00000000000E+00 0.  1.
         -2   -1    0    0    0  501 -0.00000000000E+00 -0.00000000000E+00 -0.91770345787E+02  0.91770345787E+02  0.00000000000E+00 0. -1.
         23    2    1    2    0    0 -0.38244894646E+02 -0.64167998413E+02  0.97109390024E+02  0.14868841497E+03  0.84248484434E+02 0.  0.
          5    1    1    2  502    0  0.87439107463E+01  0.99224389001E+02  0.99272354355E+01  0.10018960900E+03  0.41800000000E+01 0.  1.
         -5    1    1    2    0  502  0.29500983900E+02 -0.35056390588E+02  0.45312510388E+01  0.46230544103E+02  0.41800000000E+01 0.  1.
        -11    1    3    3    0    0 -0.63027290055E+02 -0.55108379685E+02  0.59356043324E+02  0.10262803068E+03  0.00000000000E+00 0. -1.
         11    1    3    3    0    0  0.24782395409E+02 -0.90596187283E+01  0.37753346701E+02  0.46060384288E+02  0.00000000000E+00 0.  1.
</event>
<event>
 7    1  0.6145388E-006  0.1053991E+03  0.7561462E-02  0.1269335E+00
         -1   -1    0    0    0  501 -0.00000000000E+00  0.00000000000E+00  0.41194006747E+02  0.41194006747E+02  0.00000000000E+00 0.  1.
          1   -1    0    0  501    0  0.00000000000E+00 -0.00000000000E+00 -0.40435878430E+03  0.40435878430E+03  0.00000000000E+00 0. -1.
         23    2    1    2    0    0 -0.33501202010E+02 -0.59463613375E+02 -0.18957100342E+03  0.22096270258E+03  0.90714380003E+02 0.  0.
          5    1    1    2  502    0 -0.42545690015E+02 -0.44629287285E+01 -0.55918790666E+02  0.70529688935E+02  0.41800000000E+01 0.  1.
         -5    1    1    2    0  502  0.76046892026E+02  0.63926542104E+02 -0.11767498347E+03  0.15406039954E+03  0.41800000000E+01 0.  1.
        -11    1    3    3    0    0 -0.10742225703E+02 -0.23213558126E+02  0.10452828112E+01  0.25599947462E+02  0.00000000000E+00 0.  1.
         11    1    3    3    0    0 -0.22758976307E+02 -0.36250055249E+02 -0.19061628624E+03  0.19536275512E+03  0.00000000000E+00 0. -1.
</event>
<event>
 7    1  0.6145388E-006  0.1091774E+03  0.7561462E-02  0.1262101E+00
          2   -1    0    0  501    0  0.00000000000E+00  0.00000000000E+00  0.16322281913E+03  0.16322281913E+03  0.00000000000E+00 0. -1.
         -2   -1    0    0    0  501 -0.00000000000E+00 -0.00000000000E+00 -0.10654422772E+03  0.10654422772E+03  0.00000000000E+00 0.  1.
         23    2    1    2    0    0 -0.60165793967E+02 -0.44403085532E+02  0.15926816647E+02  0.11844230563E+03  0.90461922959E+02 0.  0.
          5    1    1    2  502    0  0.63270211667E+02 -0.23296532217E+02 -0.75856801542E+01  0.67976930212E+02  0.41800000000E+01 0.  1.
         -5    1    1    2    0  502 -0.31044176997E+01  0.67699617749E+02  0.48337454912E+02  0.83347811008E+02  0.41800000000E+01 0.  1.
        -11    1    3    3    0    0 -0.27177351648E+02  0.50318575507E+00 -0.34066166830E+02  0.43581709019E+02  0.00000000000E+00 0.  1.
         11    1    3    3    0    0 -0.32988442318E+02 -0.44906271287E+02  0.49992983478E+02  0.74860596608E+02  0.00000000000E+00 0. -1.
</event>
<event>
 7    1  0.6145388E-006  0.5941745E+02  0.7561462E-02  0.1400293E+00
         -1   -1    0    0    0  501 -0.00000000000E+00  0.00000000000E+00  0.12404673777E+03  0.12404673777E+03  0.00000000000E+00 0.  1.
          1   -1    0    0  501    0  0.00000000000E+00 -0.00000000000E+00 -0.12598726812E+03  0.12598726812E+03  0.00000000000E+00 0. -1.
         23    2    1    2    0    0 -0.41018939600E+01 -0.28683769662E+02 -0.59426079142E+02  0.10935678243E+03  0.87108339468E+02 0.  0.
          5    1    1    2  502    0  0.18422231387E+02  0.33361746927E+02  0.93695712356E+02  0.10123607895E+03  0.41800000000E+01 0. -1.
         -5    1    1    2    0  502 -0.14320337427E+02 -0.46779772652E+01 -0.36210163560E+02  0.39441144511E+02  0.41800000000E+01 0. -1.
        -11    1    3    3    0    0 -0.28346858997E+02 -0.29084854759E+02  0.46185234170E+01  0.40875468803E+02  0.00000000000E+00 0.  1.
         11    1    3    3    0    0  0.24244965037E+02  0.40108509693E+00 -0.64044602559E+02  0.68481313626E+02  0.00000000000E+00 0. -1.
</event>
<event>
 7    1  0.6145388E-006  0.1612786E+03  0.7561462E-02  0.1187261E+00
          2   -1    0    0  501    0  0.00000000000E+00  0.00000000000E+00  0.47070454820E+03  0.47070454820E+03  0.00000000000E+00 0. -1.
         -2   -1    0    0    0  501 -0.00000000000E+00 -0.00000000000E+00 -0.78436152421E+02  0.78436152421E+02  0.00000000000E+00 0.  1.
         23    2    1    2    0    0 -0.45589358271E+02  0.13303337189E+03  0.83618886835E+02  0.18763177589E+03  0.91854762880E+02 0.  0.
          5    1    1    2  502    0  0.39160123981E+02 -0.14892752133E+03  0.20532417188E+03  0.25668737771E+03  0.41800000000E+01 0.  1.
         -5    1    1    2    0  502  0.64292342898E+01  0.15894149442E+02  0.10332533707E+03  0.10482154702E+03  0.41800000000E+01 0.  1.
        -11    1    3    3    0    0 -0.35401097120E+02  0.27469425072E+02 -0.10290975079E+02  0.45975114563E+02  0.00000000000E+00 0.  1.
         11    1    3    3    0    0 -0.10188261152E+02  0.10556394682E+03  0.93909861915E+02  0.14165666132E+03  0.00000000000E+00 0. -1.
</event>
<event>
 7    1  0.6145388E-006  0.1343541E+03  0.7561462E-02  0.1221134E+00
         -1   -1    0    0    0  501 -0.00000000000E+00  0.00000000000E+00  0.80472822469E+02  0.80472822469E+02  0.00000000000E+00 0.  1.
          1   -1    0    0  501    0  0.00000000000E+00 -0.00000000000E+00 -0.41320238341E+03  0.41320238341E+03  0.00000000000E+00 0. -1.
         23    2    1    2    0    0  0.87747353559E+02  0.46602120189E+02 -0.30225836608E+03  0.33104774797E+03  0.91439247078E+02 0.  0.
          5    1    1    2  502    0 -0.93011174408E+01 -0.55293834932E+02 -0.56210711687E+02  0.79504939944E+02  0.41800000000E+01 0.  1.
         -5    1    1    2    0  502 -0.78446236118E+02  0.86917147430E+01  0.25739516829E+02  0.83122517965E+02  0.41800000000E+01 0.  1.
        -11    1    3    3    0    0  0.30160052236E+02  0.66092524767E+02 -0.13906778552E+03  0.15690028538E+03  0.00000000000E+00 0. -1.
         11    1    3    3    0    0  0.57587301323E+02 -0.19490404578E+02 -0.16319058056E+03  0.17414746259E+03  0.00000000000E+00 0.  1.
</event>
<event>
 7    1  0.6145388E-006  0.1314654E+03  0.7561462E-02  0.1225297E+00
          2   -1    0    0  501    0  0.00000000000E+00  0.00000000000E+00  0.54817189306E+03  0.54817189306E+03  0.00000000000E+00 0. -1.
         -2   -1    0    0    0  501 -0.00000000000E+00 -0.00000000000E+00 -0.40413343438E+02  0.40413343438E+02  0.00000000000E+00 0.  1.
         23    2    1    2    0    0  0.62231570471E+02  0.59209671088E+02  0.34143532430E+03  0.36344115716E+03  0.90182262786E+02 0.  0.
          5    1    1    2  502    0 -0.15689473246E+02  0.39371976828E+02  0.49570377544E+02  0.65352940714E+02  0.41800000000E+01 0. -1.
         -5    1    1    2    0  502 -0.46542097225E+02 -0.98581647916E+02  0.11675284778E+03  0.15979113863E+03  0.41800000000E+01 0. -1.
        -11    1    3    3    0    0  0.64906808185E+02  0.14564643216E+02  0.11695962269E+03  0.13455324567E+03  0.00000000000E+00 0.  1.
         11    1    3    3    0    0 -0.26752377136E+01  0.44645027872E+02  0.22447570161E+03  0.22888791149E+03  0.00000000000E+00 0. -1.
</event>
<event>
 7    1  0.6145388E-006  0.1250329E+03  0.7561462E-02  0.1235018E+00
         -2   -1    0    0    0  501 -0.00000000000E+00  0.00000000000E+00  0.38364116405E+02  0.38364116405E+02  0.00000000000E+00 0.  1.
          2   -1    0    0  501    0  0.00000000000E+00 -0.00000000000E+00 -0.53333639447E+03  0.53333639447E+03  0.00000000000E+00 0. -1.
         23    2    1    2    0    0 -0.56755061557E+02 -0.41059177689E+02 -0.34776973904E+03  0.36621011673E+03  0.90879398730E+02 0.  0.
          5    1    1    2  502    0  0.59675699545E+02 -0.28142570499E+02 -0.38428496891E+02  0.76468393234E+02  0.41800000000E+01 0. -1.
         -5    1    1    2    0  502 -0.29206379877E+01  0.69201748188E+02 -0.10877404213E+03  0.12902200092E+03  0.41800000000E+01 0. -1.
        -11    1    3    3    0    0 -0.67631588542E+02 -0.61498902270E+02 -0.28536121111E+03  0.29964506930E+03  0.00000000000E+00 0.  1.
         11    1    3    3    0    0  0.10876526985E+02  0.20439724580E+02 -0.62408527932E+02  0.66565047426E+02  0.00000000000E+00 0. -1.
</event>
<event>
 7    1  0.6145388E-006  0.8662998E+02  0.7561462E-02  0.1311224E+00
         -2   -1    0    0    0  501 -0.00000000000E+00  0.00000000000E+00  0.45569263273E+03  0.45569263273E+03  0.00000000000E+00 0.  1.
          2   -1    0    0  501    0  0.00000000000E+00 -0.00000000000E+00 -0.94972943498E+02  0.94972943498E+02  0.00000000000E+00 0. -1.
         23    2    1    2    0    0  0.71222398046E+02  0.24727961482E+02 -0.39072565760E+02  0.12502775459E+03  0.91766943728E+02 0.  0.
          5    1    1    2  502    0 -0.26483475754E+02  0.95662729209E+01  0.34740471646E+03  0.34856907132E+03  0.41800000000E+01 0.  1.
         -5    1    1    2    0  502 -0.44738922292E+02 -0.34294234403E+02  0.52387538534E+02  0.77068750313E+02  0.41800000000E+01 0.  1.
        -11    1    3    3    0    0  0.61150667948E+02 -0.44739109878E+00  0.16373679236E+02  0.63306411373E+02  0.00000000000E+00 0.  1.
         11    1    3    3    0    0  0.10071730098E+02  0.25175352581E+02 -0.55446244996E+02  0.61721343220E+02  0.00000000000E+00 0. -1.
</event>
<event>
 7    1  0.6145388E-006  0.1044548E+03  0.7561462E-02  0.1271197E+00
          1   -1    0    0  501    0  0.00000000000E+00  0.00000000000E+00  0.13018938208E+03  0.13018938208E+03  0.00000000000E+00 0. -1.
         -1   -1    0    0    0  501 -0.00000000000E+00 -0.00000000000E+00 -0.11834222243E+03  0.11834222243E+03  0.00000000000E+00 0.  1.
         23    2    1    2    0    0  0.89322149846E+01  0.25916712666E+02  0.58981921438E+02  0.11207308088E+03  0.91269096306E+02 0.  0.
          5    1    1    2  502    0 -0.60571589036E+02  0.11754324975E+01 -0.48899535751E+02  0.77967531938E+02  0.41800000000E+01 0.  1.
         -5    1    1    2    0  502  0.51639374051E+02 -0.27092145163E+02  0.17647739614E+01  0.58490991692E+02  0.41800000000E+01 0.  1.
        -11    1    3    3    0    0 -0.23812252974E+02  0.45650043741E+02  0.14645645395E+02  0.53529849750E+02  0.00000000000E+00 0.  1.
         11    1    3    3    0    0  0.32744467958E+02 -0.19733331076E+02  0.44336276044E+02  0.58543231126E+02  0.00000000000E+00 0. -1.
</event>
<event>
 7    1  0.6145388E-006  0.9917539E+02  0.7561462E-02  0.1282040E+00
         -1   -1    0    0    0  501 -0.00000000000E+00  0.00000000000E+00  0.17501242558E+03  0.17501242558E+03  0.00000000000E+00 0.  1.
          1   -1    0    0  501    0  0.00000000000E+00 -0.00000000000E+00 -0.84107349341E+02  0.84107349341E+02  0.00000000000E+00 0. -1.
         23    2    1    2    0    0  0.58866995151E+01  0.54011314060E+02  0.96832709916E+01  0.10038370277E+03  0.83852529875E+02 0.  0.
          5    1    1    2  502    0 -0.95353798798E+01  0.28753595095E+02  0.68235975528E+02  0.74775085801E+02  0.41800000000E+01 0.  1.
         -5    1    1    2    0  502  0.36486803647E+01 -0.82764909155E+02  0.12985829719E+02  0.83960986353E+02  0.41800000000E+01 0.  1.
        -11    1    3    3    0    0 -0.24193746096E+02  0.48554429898E+02  0.31588047429E+02  0.62774793933E+02  0.00000000000E+00 0. -1.
         11    1    3    3    0    0  0.30080445611E+02  0.54568841619E+01 -0.21904776437E+02  0.37608908834E+02  0.00000000000E+00 0.  1.
</event>
<event>
 7    1  0.6145388E-006  0.1426506E+03  0.7561462E-02  0.1209806E+00
         -3   -1    0    0    0  501 -0.00000000000E+00  0.00000000000E+00  0.33193545833E+03  0.33193545833E+03  0.00000000000E+00 0.  1.
          3   -1    0    0  501    0  0.00000000000E+00 -0.00000000000E+00 -0.85072004989E+02  0.85072004989E+02  0.00000000000E+00 0. -1.
         23    2    1    2    0    0 -0.72116518622E+02  0.10543877989E+03  0.95017812806E+02  0.18243577432E+03  0.89085904810E+02 0.  0.
          5    1    1    2  502    0 -0.21691536081E+02 -0.16279972439E+02  0.84039063228E+02  0.88405863993E+02  0.41800000000E+01 0. -1.
         -5    1    1    2    0  502  0.93808054703E+02 -0.89158807455E+02  0.67806577302E+02  0.14616582501E+03  0.41800000000E+01 0. -1.
        -11    1    3    3    0    0 -0.29985980960E+02  0.33119863489E+02 -0.12300004167E+02  0.46339772487E+02  0.00000000000E+00 0. -1.
         11    1    3    3    0    0 -0.42130537662E+02  0.72318916406E+02  0.10731781697E+03  0.13609600183E+03  0.00000000000E+00 0.  1.
</event>
<event>
 7    1  0.6145388E-006  0.1050553E+03  0.7561462E-02  0.1270011E+00
         -2   -1    0    0    0  501 -0.00000000000E+00  0.00000000000E+00  0.16332075266E+03  0.16332075266E+03  0.00000000000E+00 0.  1.
          2   -1    0    0  501    0  0.00000000000E+00 -0.00000000000E+00 -0.89749077026E+02  0.89749077026E+02  0.00000000000E+00 0. -1.
         23    2    1    2    0    0  0.40554074043E+02  0.30554113843E+02  0.64901281594E+01  0.10231588905E+03  0.88590251129E+02 0.  0.
          5    1    1    2  502    0 -0.44116248879E+02 -0.64279699416E+02  0.82218005221E+02  0.11338163853E+03  0.41800000000E+01 0. -1.
         -5    1    1    2    0  502  0.35621748364E+01  0.33725585573E+02 -0.15136457746E+02  0.37372302109E+02  0.41800000000E+01 0. -1.
        -11    1    3    3    0    0  0.65985391218E+02  0.13801996499E+02 -0.92341353180E+01  0.68042899825E+02  0.00000000000E+00 0.  1.
         11    1    3    3    0    0 -0.25431317175E+02  0.16752117344E+02  0.15724263477E+02  0.34272989229E+02  0.00000000000E+00 0. -1.
</event>
<event>
 7    1  0.6145388E-006  0.1311586E+03  0.7561462E-02  0.1225747E+00
         -1   -1    0    0    0  501 -0.00000000000E+00  0.00000000000E+00  0.17860096572E+02  0.17860096572E+02  0.00000000000E+00 0.  1.
          1   -1    0    0  501    0  0.00000000000E+00 -0.00000000000E+00 -0.10114643729E+04  0.10114643729E+04  0.00000000000E+00 0. -1.
         23    2    1    2    0    0  0.36531056566E+02  0.68112157905E+02 -0.50010707804E+03  0.51438821924E+03  0.92273324633E+02 0.  0.
          5    1    1    2  502    0  0.89393152538E+01 -0.92869767643E+02 -0.35298420671E+03  0.36513015171E+03  0.41800000000E+01 0. -1.
         -5    1    1    2    0  502 -0.45470371820E+02  0.24757609738E+02 -0.14051299161E+03  0.14980609855E+03  0.41800000000E+01 0. -1.
        -11    1    3    3    0    0  0.12480943545E+02  0.86068496837E+02 -0.41839561469E+03  0.42733880059E+03  0.00000000000E+00 0. -1.
         11    1    3    3    0    0  0.24050113021E+02 -0.17956338932E+02 -0.81711463349E+02  0.87049418647E+02  0.00000000000E+00 0.  1.
</event>
<event>
 7    1  0.7480183E-006  0.4259708E+03  0.7561462E-02  0.1035140E+00
          2   -1    0    0  501    0  0.00000000000E+00  0.00000000000E+00  0.56205035377E+03  0.56205035377E+03  0.00000000000E+00 0. -1.
         -2   -1    0    0    0  501 -0.00000000000E+00 -0.00000000000E+00 -0.34374101893E+03  0.34374101893E+03  0.00000000000E+00 0.  1.
         23    2    1    2    0    0  0.32014140415E+03  0.27483890054E+03  0.16587802346E+03  0.46259442758E+03  0.91930114026E+02 0.  0.
          5    1    1    2  502    0 -0.12023650571E+03 -0.15332642027E+03  0.73460305592E+02  0.20827793296E+03  0.41800000000E+01 0. -1.
         -5    1    1    2    0  502 -0.19990489843E+03 -0.12151248027E+03 -0.21028994206E+02  0.23491901216E+03  0.41800000000E+01 0. -1.
        -11    1    3    3    0    0  0.10419242236E+03  0.10903921966E+03  0.15610992953E+02  0.15162227871E+03  0.00000000000E+00 0.  1.
         11    1    3    3    0    0  0.21594898179E+03  0.16579968087E+03  0.15026703051E+03  0.31097214887E+03  0.00000000000E+00 0. -1.
</event>
<event>
 7    1  0.6145388E-006  0.1239717E+03  0.7561462E-02  0.1236685E+00
         -2   -1    0    0    0  501 -0.00000000000E+00  0.00000000000E+00  0.20313482144E+03  0.20313482144E+03  0.00000000000E+00 0.  1.
          2   -1    0    0  501    0  0.00000000000E+00 -0.00000000000E+00 -0.10877720939E+03  0.10877720939E+03  0.00000000000E+00 0. -1.
         23    2    1    2    0    0 -0.64410729969E+02 -0.63868175292E+02 -0.52964190356E+01  0.12804660213E+03  0.90221917029E+02 0.  0.
          5    1    1    2  502    0  0.25087620586E+02 -0.37568214608E+02  0.34405676497E+02  0.56938409099E+02  0.41800000000E+01 0.  1.
         -5    1    1    2    0  502  0.39323109382E+02  0.10143638990E+03  0.65248354596E+02  0.12692701960E+03  0.41800000000E+01 0.  1.
        -11    1    3    3    0    0 -0.25375463296E+02 -0.10218351516E+02  0.39459536901E+02  0.48014413436E+02  0.00000000000E+00 0.  1.
         11    1    3    3    0    0 -0.39035266673E+02 -0.53649823776E+02 -0.44755955937E+02  0.80032188694E+02  0.00000000000E+00 0. -1.
</event>
<event>
 7    1  0.6145388E-006  0.1060449E+03  0.7561462E-02  0.1268074E+00
          1   -1    0    0  501    0  0.00000000000E+00  0.00000000000E+00  0.65997954889E+02  0.65997954889E+02  0.00000000000E+00 0. -1.
         -1   -1    0    0    0  501 -0.00000000000E+00 -0.00000000000E+00 -0.24444077450E+03  0.24444077450E+03  0.00000000000E+00 0.  1.
         23    2    1    2    0    0 -0.12842054230E+02 -0.62298081753E+02 -0.61318466283E+02  0.12765354807E+03  0.92138508129E+02 0.  0.
          5    1    1    2  502    0 -0.39927086386E+02  0.66754253061E+02 -0.35992092417E+02  0.85809123324E+02  0.41800000000E+01 0.  1.
         -5    1    1    2    0  502  0.52769140616E+02 -0.44561713081E+01 -0.81132260909E+02  0.96976057995E+02  0.41800000000E+01 0.  1.
        -11    1    3    3    0    0 -0.31639464505E+02 -0.47847318673E+02 -0.79317130961E+02  0.97885795099E+02  0.00000000000E+00 0.  1.
         11    1    3    3    0    0  0.18797410276E+02 -0.14450763080E+02  0.17998664678E+02  0.29767752969E+02  0.00000000000E+00 0. -1.
</event>
<event>
 7    1  0.6145388E-006  0.9991522E+02  0.7561462E-02  0.1280474E+00
          2   -1    0    0  501    0  0.00000000000E+00  0.00000000000E+00  0.55540533731E+03  0.55540533731E+03  0.00000000000E+00 0. -1.
         -2   -1    0    0    0  501 -0.00000000000E+00 -0.00000000000E+00 -0.28869977034E+02  0.28869977034E+02  0.00000000000E+00 0.  1.
         23    2    1    2    0    0  0.45140426305E+02 -0.27218894893E+02  0.31043844471E+03  0.32908060589E+03  0.95621602629E+02 0.  0.
          5    1    1    2  502    0 -0.28037347694E+02 -0.26229183331E+02  0.77608249716E+01  0.39392457757E+02  0.41800000000E+01 0.  1.
         -5    1    1    2    0  502 -0.17103078612E+02  0.53448078224E+02  0.20833609059E+03  0.21580225070E+03  0.41800000000E+01 0.  1.
        -11    1    3    3    0    0 -0.20372812225E+02  0.16465452845E+02  0.43572720944E+02  0.50840383809E+02  0.00000000000E+00 0.  1.
         11    1    3    3    0    0  0.65513238530E+02 -0.43684347738E+02  0.26686572377E+03  0.27824022208E+03  0.00000000000E+00 0. -1.
</event>
<event>
 7    1  0.6145388E-006  0.1255267E+03  0.7561462E-02  0.1234248E+00
         -2   -1    0    0    0  501 -0.00000000000E+00  0.00000000000E+00  0.13939587214E+03  0.13939587214E+03  0.00000000000E+00 0.  1.
          2   -1    0    0  501    0  0.00000000000E+00 -0.00000000000E+00 -0.14812154068E+03  0.14812154068E+03  0.00000000000E+00 0. -1.
         23    2    1    2    0    0 -0.48022310698E+00  0.35119081171E+02 -0.30684217771E+02  0.10326721657E+03  0.92135857953E+02 0.  0.
          5    1    1    2  502    0  0.70358810557E+02 -0.42100936586E+02 -0.39249969184E+02  0.90999360247E+02  0.41800000000E+01 0. -1.
         -5    1    1    2    0  502 -0.69878587450E+02  0.69818554143E+01  0.61208518416E+02  0.93250836006E+02  0.41800000000E+01 0.  1.
        -11    1    3    3    0    0  0.45228058469E+02  0.95359677666E+01 -0.14325444108E+02  0.48391427991E+02  0.00000000000E+00 0.  1.
         11    1    3    3    0    0 -0.45708281576E+02  0.25583113405E+02 -0.16358773664E+02  0.54875788576E+02  0.00000000000E+00 0. -1.
</event>
<event>
 7    1  0.6145388E-006  0.1886552E+03  0.7561462E-02  0.1159680E+00
         -2   -1    0    0    0  501 -0.00000000000E+00  0.00000000000E+00  0.63476724732E+02  0.63476724732E+02  0.00000000000E+00 0.  1.
          2   -1    0    0  501    0  0.00000000000E+00 -0.00000000000E+00 -0.71887350764E+03  0.71887350764E+03  0.00000000000E+00 0. -1.
         23    2    1    2    0    0  0.24557878487E+02 -0.18094002143E+03 -0.34927199458E+03  0.40459170548E+03  0.91439275990E+02 0.  0.
          5    1    1    2  502    0 -0.15065428859E+02  0.15668211475E+03 -0.31310458730E+03  0.35046855382E+03  0.41800000000E+01 0. -1.
         -5    1    1    2    0  502 -0.94924496281E+01  0.24257906678E+02  0.69797989753E+01  0.27289973068E+02  0.41800000000E+01 0. -1.
        -11    1    3    3    0    0 -0.21919786941E+02 -0.53445662781E+02 -0.51637756220E+02  0.77481441630E+02  0.00000000000E+00 0.  1.
         11    1    3    3    0    0  0.46477665427E+02 -0.12749435865E+03 -0.29763423836E+03  0.32711026385E+03  0.00000000000E+00 0. -1.
</event>
<event>
 7    1  0.6145388E-006  0.7069008E+02  0.7561462E-02  0.1357762E+00
          1   -1    0    0  501    0  0.00000000000E+00  0.00000000000E+00  0.45290787057E+03  0.45290787057E+03  0.00000000000E+00 0. -1.
         -1   -1    0    0    0  501 -0.00000000000E+00 -0.00000000000E+00 -0.27596182366E+02  0.27596182366E+02  0.00000000000E+00 0.  1.
         23    2    1    2    0    0 -0.20406975312E+02  0.24186367982E+02  0.17890701410E+03  0.20236265053E+03  0.89115080634E+02 0.  0.
          5    1    1    2  502    0  0.39058044918E+02 -0.10584763033E+02  0.11789126680E+02  0.42355920355E+02  0.41800000000E+01 0. -1.
         -5    1    1    2    0  502 -0.18651069605E+02 -0.13601604949E+02  0.23461554742E+03  0.23578548205E+03  0.41800000000E+01 0. -1.
        -11    1    3    3    0    0 -0.15703244730E+02 -0.24077713501E+02  0.17104925574E+02  0.33450062203E+02  0.00000000000E+00 0.  1.
         11    1    3    3    0    0 -0.47037305819E+01  0.48264081483E+02  0.16180208853E+03  0.16891258833E+03  0.00000000000E+00 0. -1.
</event>
<event>
 7    1  0.6145388E-006  0.1734720E+03  0.7561462E-02  0.1174275E+00
         -3   -1    0    0    0  501 -0.00000000000E+00  0.00000000000E+00  0.26600934828E+02  0.26600934828E+02  0.00000000000E+00 0.  1.
          3   -1    0    0  501    0  0.00000000000E+00 -0.00000000000E+00 -0.12559579438E+04  0.12559579438E+04  0.00000000000E+00 0. -1.
         23    2    1    2    0    0  0.14275783665E+03 -0.14507192943E+02 -0.74007508950E+03  0.75754963219E+03  0.74699722705E+02 0.  0.
          5    1    1    2  502    0 -0.14080730759E+03  0.53521353962E+02 -0.40101583885E+03  0.42839515474E+03  0.41800000000E+01 0.  1.
         -5    1    1    2    0  502 -0.19505290555E+01 -0.39014161019E+02 -0.88266080621E+02  0.96614091683E+02  0.41800000000E+01 0.  1.
        -11    1    3    3    0    0  0.62928923252E+02 -0.38296299560E+02 -0.25715918883E+03  0.26750234455E+03  0.00000000000E+00 0.  1.
         11    1    3    3    0    0  0.79828913396E+02  0.23789106617E+02 -0.48291590067E+03  0.49004728764E+03  0.00000000000E+00 0. -1.
</event>
<event>
 7    1  0.6145388E-006  0.1702893E+03  0.7561462E-02  0.1177547E+00
         -2   -1    0    0    0  501 -0.00000000000E+00  0.00000000000E+00  0.54818168212E+02  0.54818168212E+02  0.00000000000E+00 0.  1.
          2   -1    0    0  501    0  0.00000000000E+00 -0.00000000000E+00 -0.59491863970E+03  0.59491863970E+03  0.00000000000E+00 0. -1.
         23    2    1    2    0    0  0.12541719385E+03  0.41263926249E+02 -0.31356647542E+03  0.35488089270E+03  0.10091743841E+03 0.  0.
          5    1    1    2  502    0  0.10756387630E+01 -0.58490169187E+02 -0.50696775190E+02  0.77523495180E+02  0.41800000000E+01 0.  1.
         -5    1    1    2    0  502 -0.12649283262E+03  0.17226242938E+02 -0.17583722088E+03  0.21733242003E+03  0.41800000000E+01 0.  1.
        -11    1    3    3    0    0  0.96918517219E+02  0.65345399557E+02 -0.16837190180E+03  0.20496906483E+03  0.00000000000E+00 0.  1.
         11    1    3    3    0    0  0.28498676635E+02 -0.24081473308E+02 -0.14519457362E+03  0.14991182787E+03  0.00000000000E+00 0. -1.
</event>
<event>
 7    1  0.6145388E-006  0.1214421E+03  0.7561462E-02  0.1240737E+00
          3   -1    0    0  501    0  0.00000000000E+00  0.00000000000E+00  0.31666464588E+02  0.31666464588E+02  0.00000000000E+00 0. -1.
         -3   -1    0    0    0  501 -0.00000000000E+00 -0.00000000000E+00 -0.58991182529E+03  0.58991182529E+03  0.00000000000E+00 0.  1.
         23    2    1    2    0    0  0.12008695499E+02  0.81951615668E+02 -0.25378219381E+03  0.28215938057E+03  0.91368693053E+02 0.  0.
          5    1    1    2  502    0 -0.50155937887E+02 -0.80819082509E+01 -0.48888183860E+02  0.70629046910E+02  0.41800000000E+01 0.  1.
         -5    1    1    2    0  502  0.38147242388E+02 -0.73869707418E+02 -0.25557498304E+03  0.26878986240E+03  0.41800000000E+01 0.  1.
        -11    1    3    3    0    0 -0.27114459095E+02  0.54501902133E+02 -0.20508185214E+03  0.21392572848E+03  0.00000000000E+00 0.  1.
         11    1    3    3    0    0  0.39123154594E+02  0.27449713536E+02 -0.48700341661E+02  0.68233652083E+02  0.00000000000E+00 0. -1.
</event>
<event>
 7    1  0.6145388E-006  0.2053925E+03  0.7561462E-02  0.1145267E+00
          3   -1    0    0  501    0  0.00000000000E+00  0.00000000000E+00  0.43520751825E+03  0.43520751825E+03  0.00000000000E+00 0. -1.
         -3   -1    0    0    0  501 -0.00000000000E+00 -0.00000000000E+00 -0.10970063451E+03  0.10970063451E+03  0.00000000000E+00 0.  1.
         23    2    1    2    0    0 -0.32735257610E+02  0.18642860302E+03  0.15120328873E+03  0.25880137572E+03  0.91041179910E+02 0.  0.
          5    1    1    2  502    0 -0.25678029813E+02 -0.54372489105E+02  0.72610776921E+00  0.60280414888E+02  0.41800000000E+01 0.  1.
         -5    1    1    2    0  502  0.58413287423E+02 -0.13205611391E+03  0.17357748723E+03  0.22582636215E+03  0.41800000000E+01 0.  1.
        -11    1    3    3    0    0 -0.44282454921E+02  0.41587107206E+02  0.22773789069E+02  0.64877336321E+02  0.00000000000E+00 0.  1.
         11    1    3    3    0    0  0.11547197311E+02  0.14484149581E+03  0.12842949966E+03  0.19392403940E+03  0.00000000000E+00 0. -1.
</event>
<event>
 7    1  0.6145388E-006  0.9139388E+02  0.7561462E-02  0.1299511E+00
         -2   -1    0    0    0  501 -0.00000000000E+00  0.00000000000E+00  0.11126561184E+04  0.11126561184E+04  0.00000000000E+00 0.  1.
          2   -1    0    0  501    0  0.00000000000E+00 -0.00000000000E+00 -0.15273770209E+02  0.15273770209E+02  0.00000000000E+00 0. -1.
         23    2    1    2    0    0  0.24010040479E+00 -0.44756916543E+02  0.24403037634E+03  0.26429906734E+03  0.91103969147E+02 0.  0.
          5    1    1    2  502    0  0.35098907270E+02  0.71471686205E+01  0.71498368609E+03  0.71589256113E+03  0.41800000000E+01 0.  1.
         -5    1    1    2    0  502 -0.35339007675E+02  0.37609747923E+02  0.13836828573E+03  0.14773826010E+03  0.41800000000E+01 0.  1.
        -11    1    3    3    0    0  0.41981019613E+02 -0.23383946816E+02  0.76600725445E+02  0.90426136239E+02  0.00000000000E+00 0.  1.
         11    1    3    3    0    0 -0.41740919209E+02 -0.21372969727E+02  0.16742965089E+03  0.17387293110E+03  0.00000000000E+00 0. -1.
</event>
<event>
 7    1  0.6145388E-006  0.6237832E+02  0.7561462E-02  0.1388114E+00
          4   -1    0    0  501    0  0.00000000000E+00  0.00000000000E+00  0.34812972339E+02  0.34812972339E+02  0.00000000000E+00 0. -1.
         -4   -1    0    0    0  501 -0.00000000000E+00 -0.00000000000E+00 -0.38173147155E+03  0.38173147155E+03  0.00000000000E+00 0.  1.
         23    2    1    2    0    0  0.30840820881E+02  0.23463953614E+02 -0.15851375454E+03  0.18709537751E+03  0.91522437446E+02 0.  0.
          5    1    1    2  502    0 -0.28108224763E+02  0.19693282581E+01  0.93670723375E+01  0.29986080059E+02  0.41800000000E+01 0. -1.
         -5    1    1    2    0  502 -0.27325961181E+01 -0.25433281872E+02 -0.19777181701E+03  0.19946298632E+03  0.41800000000E+01 0. -1.
        -11    1    3    3    0    0  0.35872078482E+02  0.39610674996E+02 -0.16132959697E+03  0.16995014106E+03  0.00000000000E+00 0.  1.
         11    1    3    3    0    0 -0.50312576002E+01 -0.16146721382E+02  0.28158424276E+01  0.17145236452E+02  0.00000000000E+00 0. -1.
</event>
<event>
 7    1  0.6145388E-006  0.7518534E+02  0.7561462E-02  0.1343298E+00
          2   -1    0    0  501    0  0.00000000000E+00  0.00000000000E+00  0.29482603344E+03  0.29482603344E+03  0.00000000000E+00 0. -1.
         -2   -1    0    0    0  501 -0.00000000000E+00 -0.00000000000E+00 -0.47617715920E+02  0.47617715920E+02  0.00000000000E+00 0.  1.
         23    2    1    2    0    0  0.10968732536E+02  0.44550737037E+02  0.11984122056E+03  0.15811966918E+03  0.92384145678E+02 0.  0.
          5    1    1    2  502    0 -0.23403492011E+02 -0.22982961097E+02 -0.17404877271E+02  0.37367661044E+02  0.41800000000E+01 0. -1.
         -5    1    1    2    0  502  0.12434759475E+02 -0.21567775940E+02  0.14477197423E+03  0.14695641913E+03  0.41800000000E+01 0. -1.
        -11    1    3    3    0    0 -0.21989304655E+02 -0.13141630109E+02  0.71504368963E+02  0.75954636079E+02  0.00000000000E+00 0. -1.
         11    1    3    3    0    0  0.32958037191E+02  0.57692367145E+02  0.48336851595E+02  0.82165033101E+02  0.00000000000E+00 0.  1.
</event>
<event>
 7    1  0.6145388E-006  0.1222106E+03  0.7561462E-02  0.1239494E+00
          1   -1    0    0  501    0  0.00000000000E+00  0.00000000000E+00  0.26361689827E+03  0.26361689827E+03  0.00000000000E+00 0. -1.
         -1   -1    0    0    0  501 -0.00000000000E+00 -0.00000000000E+00 -0.93462811560E+02  0.93462811560E+02  0.00000000000E+00 0.  1.
         23    2    1    2    0    0 -0.55602882815E+02  0.40287141084E+02  0.18291250402E+03  0.21381527803E+03  0.86863425422E+02 0.  0.
          5    1    1    2  502    0 -0.14628984340E+02 -0.61232189741E+02 -0.26758343734E+02  0.68533711433E+02  0.41800000000E+01 0.  1.
         -5    1    1    2    0  502  0.70231867155E+02  0.20945048657E+02  0.13999926423E+02  0.74730720371E+02  0.41800000000E+01 0.  1.
        -11    1    3    3    0    0 -0.61057677018E+02 -0.59634831002E+01  0.12705154266E+03  0.14108755276E+03  0.00000000000E+00 0. -1.
         11    1    3    3    0    0  0.54547942031E+01  0.46250624185E+02  0.55860961367E+02  0.72727725264E+02  0.00000000000E+00 0.  1.
</event>
<event>
 7    1  0.6145388E-006  0.9504525E+02  0.7561462E-02  0.1291074E+00
          2   -1    0    0  501    0  0.00000000000E+00  0.00000000000E+00  0.49413228710E+02  0.49413228710E+02  0.00000000000E+00 0. -1.
         -2   -1    0    0    0  501 -0.00000000000E+00 -0.00000000000E+00 -0.26067188721E+03  0.26067188721E+03  0.00000000000E+00 0.  1.
         23    2    1    2    0    0  0.30969410824E+02  0.93848229644E+01 -0.89723719702E+02  0.13270382392E+03  0.92264726179E+02 0.  0.
          5    1    1    2  502    0  0.47615477999E+02  0.28770756660E+01 -0.32236373207E+02  0.57724929337E+02  0.41800000000E+01 0.  1.
         -5    1    1    2    0  502 -0.78584888823E+02 -0.12261898630E+02 -0.89298565595E+02  0.11965636267E+03  0.41800000000E+01 0.  1.
        -11    1    3    3    0    0  0.41820650117E+02 -0.75009466727E+01 -0.10107674280E+03  0.10964369071E+03  0.00000000000E+00 0.  1.
         11    1    3    3    0    0 -0.10851239293E+02  0.16885769637E+02  0.11353023095E+02  0.23060133214E+02  0.00000000000E+00 0. -1.
</event>
<event>
 7    1  0.6145388E-006  0.1235370E+03  0.7561462E-02  0.1237374E+00
         -1   -1    0    0    0  501 -0.00000000000E+00  0.00000000000E+00  0.13029782036E+04  0.13029782036E+04  0.00000000000E+00 0.  1.
          1   -1    0    0  501    0  0.00000000000E+00 -0.00000000000E+00 -0.16205933737E+02  0.16205933737E+02  0.00000000000E+00 0. -1.
         23    2    1    2    0    0  0.76559874935E+02 -0.50481253689E+02  0.45834241120E+03  0.47635931346E+03  0.91818615722E+02 0.  0.
          5    1    1    2  502    0  0.17045494251E+02  0.38405795521E+02  0.47872141155E+03  0.48058008311E+03  0.41800000000E+01 0. -1.
         -5    1    1    2    0  502 -0.93605369185E+02  0.12075458168E+02  0.34970844709E+03  0.36224474074E+03  0.41800000000E+01 0. -1.
        -11    1    3    3    0    0  0.56483255962E+02 -0.64614771180E+02  0.43162164744E+03  0.44007121401E+03  0.00000000000E+00 0.  1.
         11    1    3    3    0    0  0.20076618973E+02  0.14133517491E+02  0.26720763756E+02  0.36288099451E+02  0.00000000000E+00 0. -1.
</event>
<event>
 7    1  0.6145388E-006  0.1281265E+03  0.7561462E-02  0.1230262E+00
          2   -1    0    0  501    0  0.00000000000E+00  0.00000000000E+00  0.36004884635E+03  0.36004884635E+03  0.00000000000E+00 0. -1.
         -2   -1    0    0    0  501 -0.00000000000E+00 -0.00000000000E+00 -0.50430329083E+02  0.50430329083E+02  0.00000000000E+00 0.  1.
         23    2    1    2    0    0  0.68089104086E+02  0.36658146553E+02  0.17248521114E+03  0.20939683398E+03  0.90088513235E+02 0.  0.
          5    1    1    2  502    0  0.20904590506E+02  0.26184605258E+02  0.55175069573E+02  0.64686908715E+02  0.41800000000E+01 0.  1.
         -5    1    1    2    0  502 -0.88993694592E+02 -0.62842751812E+02  0.81958236563E+02  0.13639543274E+03  0.41800000000E+01 0.  1.
        -11    1    3    3    0    0  0.81547249675E+02  0.49054646192E+02  0.11610709516E+03  0.15012384817E+03  0.00000000000E+00 0.  1.
         11    1    3    3    0    0 -0.13458145590E+02 -0.12396499638E+02  0.56378115981E+02  0.59272985816E+02  0.00000000000E+00 0. -1.
</event>
<event>
 7    1  0.6145388E-006  0.1336935E+03  0.7561462E-02  0.1222076E+00
          2   -1    0    0  501    0  0.00000000000E+00  0.00000000000E+00  0.22691013872E+03  0.22691013872E+03  0.00000000000E+00 0. -1.
         -2   -1    0    0    0  501 -0.00000000000E+00 -0.00000000000E+00 -0.96146507591E+02  0.96146507591E+02  0.00000000000E+00 0.  1.
         23    2    1    2    0    0  0.95716016448E+01  0.93847521843E+02  0.96350601269E+02  0.16264791499E+03  0.90950167521E+02 0.  0.
          5    1    1    2  502    0  0.98866249572E+01  0.20403607530E+02 -0.21623421516E+02  0.31608500619E+02  0.41800000000E+01 0.  1.
         -5    1    1    2    0  502 -0.19458226602E+02 -0.11425112937E+03  0.56036451375E+02  0.12880023070E+03  0.41800000000E+01 0.  1.
        -11    1    3    3    0    0  0.44245370358E+02  0.23893685111E+02  0.22183708103E+02  0.54960694059E+02  0.00000000000E+00 0.  1.
         11    1    3    3    0    0 -0.34673768713E+02  0.69953836732E+02  0.74166893166E+02  0.10768722093E+03  0.00000000000E+00 0. -1.
</event>
<event>
 7    1  0.6145388E-006  0.1261177E+03  0.7561462E-02  0.1233333E+00
          1   -1    0    0  501    0  0.00000000000E+00  0.00000000000E+00  0.11508466800E+03  0.11508466800E+03  0.00000000000E+00 0. -1.
         -1   -1    0    0    0  501 -0.00000000000E+00 -0.00000000000E+00 -0.19341689748E+03  0.19341689748E+03  0.00000000000E+00 0.  1.
         23    2    1    2    0    0  0.63742175170E+02 -0.50931191903E+02  0.28233718487E+02  0.12502640789E+03  0.90429025238E+02 0.  0.
          5    1    1    2  502    0 -0.70894554861E+02  0.80302948094E+02 -0.10897223490E+03  0.15286275466E+03  0.41800000000E+01 0.  1.
         -5    1    1    2    0  502  0.71523796911E+01 -0.29371756192E+02  0.24062869393E+01  0.30612402942E+02  0.41800000000E+01 0.  1.
        -11    1    3    3    0    0  0.78063267907E+02 -0.20233608478E+02  0.38870241586E+02  0.89521887767E+02  0.00000000000E+00 0. -1.
         11    1    3    3    0    0 -0.14321092737E+02 -0.30697583425E+02 -0.10636523099E+02  0.35504520120E+02  0.00000000000E+00 0.  1.
</event>
<event>
 7    1  0.6145388E-006  0.1195791E+03  0.7561462E-02  0.1243793E+00
         -1   -1    0    0    0  501 -0.00000000000E+00  0.00000000000E+00  0.23235019295E+03  0.23235019295E+03  0.00000000000E+00 0.  1.
          1   -1    0    0  501    0  0.00000000000E+00 -0.00000000000E+00 -0.15445069102E+03  0.15445069102E+03  0.00000000000E+00 0. -1.
         23    2    1    2    0    0 -0.99527472145E+02  0.34281012123E+02 -0.78608140021E+02  0.16047692878E+03  0.92155843494E+02 0.  0.
          5    1    1    2  502    0  0.92840779102E+02 -0.42115345561E+02  0.40486147953E+02  0.10977118553E+03  0.41800000000E+01 0. -1.
         -5    1    1    2    0  502  0.66866930434E+01  0.78343334388E+01  0.11602149400E+03  0.11655276965E+03  0.41800000000E+01 0. -1.
        -11    1    3    3    0    0 -0.22888014946E+02 -0.21356732180E+02  0.78154852402E+01  0.32265353665E+02  0.00000000000E+00 0.  1.
         11    1    3    3    0    0 -0.76639457199E+02  0.55637744302E+02 -0.86423625262E+02  0.12821157512E+03  0.00000000000E+00 0. -1.
</event>
<event>
 7    1  0.6145388E-006  0.1384660E+03  0.7561462E-02  0.1215408E+00
         -3   -1    0    0    0  501 -0.00000000000E+00  0.00000000000E+00  0.59383727696E+03  0.59383727696E+03  0.00000000000E+00 0.  1.
          3   -1    0    0  501    0  0.00000000000E+00 -0.00000000000E+00 -0.66871164307E+02  0.66871164307E+02  0.00000000000E+00 0. -1.
         23    2    1    2    0    0 -0.10792657833E+03  0.98400117816E+01  0.41799880861E+02  0.14809365434E+03  0.91866905218E+02 0.  0.
          5    1    1    2  502    0  0.11046259537E+03 -0.51348862987E+02  0.39178342307E+03  0.41030526891E+03  0.41800000000E+01 0.  1.
         -5    1    1    2    0  502 -0.25360170429E+01  0.41508851205E+02  0.93382808722E+02  0.10230951801E+03  0.41800000000E+01 0.  1.
        -11    1    3    3    0    0 -0.23976412510E+02  0.16393203780E+02 -0.26770740191E+02  0.39500354649E+02  0.00000000000E+00 0. -1.
         11    1    3    3    0    0 -0.83950165820E+02 -0.65531919981E+01  0.68570621053E+02  0.10859329969E+03  0.00000000000E+00 0.  1.
</event>
<event>
 7    1  0.6145388E-006  0.7984052E+02  0.7561462E-02  0.1329505E+00
         -2   -1    0    0    0  501 -0.00000000000E+00  0.00000000000E+00  0.79651879343E+02  0.79651879343E+02  0.00000000000E+00 0.  1.
          2   -1    0    0  501    0  0.00000000000E+00 -0.00000000000E+00 -0.18336257465E+03  0.18336257465E+03  0.00000000000E+00 0. -1.
         23    2    1    2    0    0  0.32650936312E+02 -0.32004708358E+02 -0.85539333434E+02  0.13255791681E+03  0.90356177131E+02 0.  0.
          5    1    1    2  502    0 -0.45356081647E+02  0.12584590158E+02 -0.63623016799E+02  0.79252171695E+02  0.41800000000E+01 0. -1.
         -5    1    1    2    0  502  0.12705145335E+02  0.19420118200E+02  0.45451654928E+02  0.51204365484E+02  0.41800000000E+01 0.  1.
        -11    1    3    3    0    0 -0.24062729594E+02 -0.19001483319E+02 -0.63175878419E+02  0.70222951646E+02  0.00000000000E+00 0.  1.
         11    1    3    3    0    0  0.56713665906E+02 -0.13003225039E+02 -0.22363455016E+02  0.62334965165E+02  0.00000000000E+00 0. -1.
</event>
<event>
 7    1  0.6145388E-006  0.9603767E+02  0.7561462E-02  0.1288856E+00
          1   -1    0    0  501    0  0.00000000000E+00  0.00000000000E+00  0.98365050821E+02  0.98365050821E+02  0.00000000000E+00 0. -1.
         -1   -1    0    0    0  501 -0.00000000000E+00 -0.00000000000E+00 -0.13177176686E+03  0.13177176686E+03  0.00000000000E+00 0.  1.
         23    2    1    2    0    0  0.78148524732E+01 -0.22245720012E+02  0.13513914195E+02  0.94467883118E+02  0.90474367010E+02 0.  0.
          5    1    1    2  502    0  0.44003671207E+02  0.11326768127E+02 -0.65121108735E+02  0.79516350261E+02  0.41800000000E+01 0. -1.
         -5    1    1    2    0  502 -0.51818523680E+02  0.10918951886E+02  0.18200478498E+02  0.56152584306E+02  0.41800000000E+01 0. -1.
        -11    1    3    3    0    0  0.17206899347E+02 -0.55845622406E+02  0.56840510703E+01  0.58712173897E+02  0.00000000000E+00 0.  1.
         11    1    3    3    0    0 -0.93920468740E+01  0.33599902394E+02  0.78298631247E+01  0.35755709221E+02  0.00000000000E+00 0. -1.
</event>
<event>
 7    1  0.6145388E-006  0.1018786E+03  0.7561462E-02  0.1276394E+00
         -1   -1    0    0    0  501 -0.00000000000E+00  0.00000000000E+00  0.27586953827E+02  0.27586953827E+02  0.00000000000E+00 0.  1.
          1   -1    0    0  501    0  0.00000000000E+00 -0.00000000000E+00 -0.55708948825E+03  0.55708948825E+03  0.00000000000E+00 0. -1.
         23    2    1    2    0    0  0.36243747303E+02  0.49748954735E+02 -0.22270262699E+03  0.24768550126E+03  0.89236089967E+02 0.  0.
          5    1    1    2  502    0  0.66303732182E+01  0.17246501237E+02 -0.21340680134E+03  0.21424597759E+03  0.41800000000E+01 0. -1.
         -5    1    1    2    0  502 -0.42874120521E+02 -0.66995455973E+02 -0.93393106097E+02  0.12274496323E+03  0.41800000000E+01 0. -1.
        -11    1    3    3    0    0 -0.87492964286E+01  0.58649690544E+02 -0.94911849146E+02  0.11191333923E+03  0.00000000000E+00 0.  1.
         11    1    3    3    0    0  0.44993043732E+02 -0.89007358081E+01 -0.12779077784E+03  0.13577216203E+03  0.00000000000E+00 0. -1.
</event>
<event>
 7    1  0.6145388E-006  0.1298323E+03  0.7561462E-02  0.1227705E+00
         -2   -1    0    0    0  501 -0.00000000000E+00  0.00000000000E+00  0.86571578763E+02  0.86571578763E+02  0.00000000000E+00 0.  1.
          2   -1    0    0  501    0  0.00000000000E+00 -0.00000000000E+00 -0.50965687584E+03  0.50965687584E+03  0.00000000000E+00 0. -1.
         23    2    1    2    0    0  0.59492607513E+02  0.83103829457E+02 -0.41270015119E+03  0.43438116753E+03  0.88994196948E+02 0.  0.
          5    1    1    2  502    0 -0.69706675472E+01  0.12572705635E+02 -0.44875087628E+02  0.47306543127E+02  0.41800000000E+01 0. -1.
         -5    1    1    2    0  502 -0.52521939966E+02 -0.95676535092E+02  0.34489941735E+02  0.11454074396E+03  0.41800000000E+01 0. -1.
        -11    1    3    3    0    0  0.60482306771E+02  0.87542108002E+01 -0.19211635358E+03  0.20160217993E+03  0.00000000000E+00 0. -1.
         11    1    3    3    0    0 -0.98969925821E+00  0.74349618657E+02 -0.22058379761E+03  0.23277898760E+03  0.00000000000E+00 0.  1.
</event>
<event>
 7    1  0.6145388E-006  0.1010394E+03  0.7561462E-02  0.1278125E+00
         -3   -1    0    0    0  501 -0.00000000000E+00  0.00000000000E+00  0.48461484743E+02  0.48461484743E+02  0.00000000000E+00 0.  1.
          3   -1    0    0  501    0  0.00000000000E+00 -0.00000000000E+00 -0.37810533550E+03  0.37810533550E+03  0.00000000000E+00 0. -1.
         23    2    1    2    0    0 -0.73341285408E+02 -0.22120474623E+01 -0.20330966816E+03  0.23423405795E+03  0.90260375769E+02 0.  0.
          5    1    1    2  502    0  0.55197900310E+02  0.49623758966E+02 -0.24166626732E+02  0.78171758968E+02  0.41800000000E+01 0. -1.
         -5    1    1    2    0  502  0.18143385098E+02 -0.47411711503E+02 -0.10216755586E+03  0.11416100333E+03  0.41800000000E+01 0. -1.
        -11    1    3    3    0    0 -0.16241327325E+02 -0.10148180270E+02  0.35624273438E+01  0.19479660281E+02  0.00000000000E+00 0.  1.
         11    1    3    3    0    0 -0.57099958083E+02  0.79361328081E+01 -0.20687209551E+03  0.21475439767E+03  0.00000000000E+00 0. -1.
</event>
<event>
 7    1  0.6145388E-006  0.2342796E+03  0.7561462E-02  0.1123663E+00
         -1   -1    0    0    0  501 -0.00000000000E+00  0.00000000000E+00  0.12932092200E+04  0.12932092200E+04  0.00000000000E+00 0.  1.
          1   -1    0    0  501    0  0.00000000000E+00 -0.00000000000E+00 -0.50510169340E+02  0.50510169340E+02  0.00000000000E+00 0. -1.
         23    2    1    2    0    0  0.14705745180E+03  0.15555808781E+03  0.37734613055E+03  0.44354863224E+03  0.92309664212E+02 0.  0.
          5    1    1    2  502    0  0.60628729243E+01  0.85526993409E+01  0.77950536670E+01  0.13716499400E+02  0.41800000000E+01 0. -1.
         -5    1    1    2    0  502 -0.15312032472E+03 -0.16411078715E+03  0.85755786644E+03  0.88645425770E+03  0.41800000000E+01 0. -1.
        -11    1    3    3    0    0  0.10587328494E+03  0.45434261174E+02  0.19869208837E+03  0.22967797137E+03  0.00000000000E+00 0.  1.
         11    1    3    3    0    0  0.41184166860E+02  0.11012382663E+03  0.17865404218E+03  0.21387066087E+03  0.00000000000E+00 0. -1.
</event>
<event>
 7    1  0.6145388E-006  0.9606787E+02  0.7561462E-02  0.1288789E+00
          1   -1    0    0  501    0  0.00000000000E+00  0.00000000000E+00  0.89266457053E+02  0.89266457053E+02  0.00000000000E+00 0. -1.
         -1   -1    0    0    0  501 -0.00000000000E+00 -0.00000000000E+00 -0.13274996397E+03  0.13274996397E+03  0.00000000000E+00 0.  1.
         23    2    1    2    0    0  0.24950114930E+01  0.10808557277E+02 -0.88460872338E+01  0.91732389781E+02  0.90628516941E+02 0.  0.
          5    1    1    2  502    0 -0.61209254001E+02  0.82369372662E+01 -0.62567327772E+01  0.62217674466E+02  0.41800000000E+01 0. -1.
         -5    1    1    2    0  502  0.58714242508E+02 -0.19045494543E+02 -0.28380686909E+02  0.68066356779E+02  0.41800000000E+01 0. -1.
        -11    1    3    3    0    0 -0.30913077189E+02  0.15583011175E+02  0.25945573629E+02  0.43262239534E+02  0.00000000000E+00 0. -1.
         11    1    3    3    0    0  0.33408088682E+02 -0.47744538982E+01 -0.34791660863E+02  0.48470150247E+02  0.00000000000E+00 0.  1.
</event>
<event>
 7    1  0.6145388E-006  0.2117586E+03  0.7561462E-02  0.1140181E+00
         -1   -1    0    0    0  501 -0.00000000000E+00  0.00000000000E+00  0.10904145923E+03  0.10904145923E+03  0.00000000000E+00 0.  1.
          1   -1    0    0  501    0  0.00000000000E+00 -0.00000000000E+00 -0.52070778711E+03  0.52070778711E+03  0.00000000000E+00 0. -1.
         23    2    1    2    0    0 -0.60336446006E+02 -0.18200888892E+03 -0.31854933926E+03  0.38259155995E+03  0.90193668537E+02 0.  0.
          5    1    1    2  502    0  0.62776546534E+02  0.28995548527E+02 -0.26307161145E+01  0.69325534231E+02  0.41800000000E+01 0. -1.
         -5    1    1    2    0  502 -0.24401005279E+01  0.15301334039E+03 -0.90486272509E+02  0.17783215216E+03  0.41800000000E+01 0. -1.
        -11    1    3    3    0    0  0.46353331916E+01 -0.80481207162E+02 -0.71709286096E+02  0.10789315424E+03  0.00000000000E+00 0.  1.
         11    1    3    3    0    0 -0.64971779198E+02 -0.10152768175E+03 -0.24684005316E+03  0.27469840571E+03  0.00000000000E+00 0. -1.
</event>
<event>
 7    1  0.6145388E-006  0.1337622E+03  0.7561462E-02  0.1221978E+00
          1   -1    0    0  501    0  0.00000000000E+00  0.00000000000E+00  0.93567028974E+02  0.93567028974E+02  0.00000000000E+00 0. -1.
         -1   -1    0    0    0  501 -0.00000000000E+00 -0.00000000000E+00 -0.38906375578E+03  0.38906375578E+03  0.00000000000E+00 0.  1.
         23    2    1    2    0    0  0.11002914091E+03  0.42214552502E+01  0.87363663301E+01  0.13578960722E+03  0.78982661387E+02 0.  0.
          5    1    1    2  502    0 -0.53324015740E+02 -0.53820662089E+02 -0.22490749527E+03  0.23736252474E+03  0.41800000000E+01 0.  1.
         -5    1    1    2    0  502 -0.56705125169E+02  0.49599206839E+02 -0.79325597858E+02  0.10947865278E+03  0.41800000000E+01 0.  1.
        -11    1    3    3    0    0  0.68659126168E+02  0.20624912075E+02  0.39344227736E+02  0.81776713436E+02  0.00000000000E+00 0. -1.
         11    1    3    3    0    0  0.41370014742E+02 -0.16403456825E+02 -0.30607861406E+02  0.54012893788E+02  0.00000000000E+00 0.  1.
</event>
<event>
 7    1  0.6145388E-006  0.2044967E+03  0.7561462E-02  0.1146000E+00
         -2   -1    0    0    0  501 -0.00000000000E+00  0.00000000000E+00  0.11605039776E+03  0.11605039776E+03  0.00000000000E+00 0.  1.
          2   -1    0    0  501    0  0.00000000000E+00 -0.00000000000E+00 -0.54814700489E+03  0.54814700489E+03  0.00000000000E+00 0. -1.
         23    2    1    2    0    0  0.17026972371E+03 -0.95865113982E+02 -0.36248494582E+03  0.42197013903E+03  0.92095403788E+02 0.  0.
          5    1    1    2  502    0 -0.88982318210E+02  0.32898671762E+02  0.29414380089E+02  0.99412543040E+02  0.41800000000E+01 0.  1.
         -5    1    1    2    0  502 -0.81287405502E+02  0.62966442220E+02 -0.99026041397E+02  0.14281472058E+03  0.41800000000E+01 0.  1.
        -11    1    3    3    0    0  0.10098553418E+03 -0.11020042718E+02 -0.13010097512E+03  0.16506296733E+03  0.00000000000E+00 0.  1.
         11    1    3    3    0    0  0.69284189528E+02 -0.84845071265E+02 -0.23238397069E+03  0.25690717170E+03  0.00000000000E+00 0. -1.
</event>
<event>
 7    1  0.6145388E-006  0.9995044E+02  0.7561462E-02  0.1280400E+00
          1   -1    0    0  501    0  0.00000000000E+00  0.00000000000E+00  0.83779584392E+02  0.83779584392E+02  0.00000000000E+00 0. -1.
         -1   -1    0    0    0  501 -0.00000000000E+00 -0.00000000000E+00 -0.28284478043E+03  0.28284478043E+03  0.00000000000E+00 0.  1.
         23    2    1    2    0    0 -0.84371857543E+02 -0.36060662289E+02 -0.23604144433E+02  0.13241461834E+03  0.92506723023E+02 0.  0.
          5    1    1    2  502    0  0.20377220647E+02  0.21284221520E+02  0.14547816138E+02  0.33126432971E+02  0.41800000000E+01 0.  1.
         -5    1    1    2    0  502  0.63994636896E+02  0.14776440769E+02 -0.19000886774E+03  0.20108331351E+03  0.41800000000E+01 0.  1.
        -11    1    3    3    0    0 -0.95565211653E+01 -0.27393728214E+02 -0.45515871498E+02  0.53976272569E+02  0.00000000000E+00 0.  1.
         11    1    3    3    0    0 -0.74815336378E+02 -0.86669340753E+01  0.21911727065E+02  0.78438345766E+02  0.00000000000E+00 0. -1.
</event>
<event>
 7    1  0.6145388E-006  0.8907994E+02  0.7561462E-02  0.1305095E+00
          1   -1    0    0  501    0  0.00000000000E+00  0.00000000000E+00  0.48505886787E+02  0.48505886787E+02  0.00000000000E+00 0. -1.
         -1   -1    0    0    0  501 -0.00000000000E+00 -0.00000000000E+00 -0.29294801615E+03  0.29294801615E+03  0.00000000000E+00 0.  1.
         23    2    1    2    0    0 -0.41061740725E+02 -0.25321299409E+02 -0.94507822979E+02  0.14030573099E+03  0.91797248268E+02 0.  0.
          5    1    1    2  502    0  0.63389128886E+01  0.42669275347E+02 -0.15575913234E+03  0.16167630805E+03  0.41800000000E+01 0.  1.
         -5    1    1    2    0  502  0.34722827836E+02 -0.17347975938E+02  0.58248259606E+01  0.39471863898E+02  0.41800000000E+01 0.  1.
        -11    1    3    3    0    0  0.15164016230E+02 -0.35534437941E+02 -0.13004686536E+02  0.40764758553E+02  0.00000000000E+00 0. -1.
         11    1    3    3    0    0 -0.56225756954E+02  0.10213138532E+02 -0.81503136444E+02  0.99540972438E+02  0.00000000000E+00 0.  1.
</event>
<event>
 7    1  0.6145388E-006  0.7935962E+02  0.7561462E-02  0.1330879E+00
          1   -1    0    0  501    0  0.00000000000E+00  0.00000000000E+00  0.49440279663E+03  0.49440279663E+03  0.00000000000E+00 0. -1.
         -1   -1    0    0    0  501 -0.00000000000E+00 -0.00000000000E+00 -0.32232037559E+02  0.32232037559E+02  0.00000000000E+00 0.  1.
         23    2    1    2    0    0 -0.13541298284E+02  0.55553327032E+02  0.26667249137E+03  0.28760161290E+03  0.91273934862E+02 0.  0.
          5    1    1    2  502    0  0.54411366812E+01  0.33132545730E+01 -0.16847571148E+02  0.18490448286E+02  0.41800000000E+01 0. -1.
         -5    1    1    2    0  502  0.81001616030E+01 -0.58866581605E+02  0.21234583885E+03  0.22054277300E+03  0.41800000000E+01 0. -1.
        -11    1    3    3    0    0 -0.49163115095E+01 -0.17394403328E+02  0.10068497536E+02  0.20690819912E+02  0.00000000000E+00 0.  1.
         11    1    3    3    0    0 -0.86249867747E+01  0.72947730360E+02  0.25660399384E+03  0.26691079299E+03  0.00000000000E+00 0. -1.
</event>
<event>
 7    1  0.6145388E-006  0.1092289E+03  0.7561462E-02  0.1262005E+00
          2   -1    0    0  501    0  0.00000000000E+00  0.00000000000E+00  0.56579080153E+02  0.56579080153E+02  0.00000000000E+00 0. -1.
         -2   -1    0    0    0  501 -0.00000000000E+00 -0.00000000000E+00 -0.60708716625E+03  0.60708716625E+03  0.00000000000E+00 0.  1.
         23    2    1    2    0    0  0.69758920555E+02  0.34734761013E+01 -0.24269709466E+02  0.11827503286E+03  0.92312472431E+02 0.  0.
          5    1    1    2  502    0 -0.33668754297E+02  0.38884584298E+02 -0.43771328482E+03  0.44074481054E+03  0.41800000000E+01 0.  1.
         -5    1    1    2    0  502 -0.36090166258E+02 -0.42358060399E+02 -0.88525091808E+02  0.10464640300E+03  0.41800000000E+01 0.  1.
        -11    1    3    3    0    0 -0.12574182796E+02 -0.21589887455E+02  0.81915792777E+01  0.26293255492E+02  0.00000000000E+00 0. -1.
         11    1    3    3    0    0  0.82333103352E+02  0.25063363556E+02 -0.32461288743E+02  0.91981777364E+02  0.00000000000E+00 0.  1.
</event>
<event>
 7    1  0.6145388E-006  0.2527267E+03  0.7561462E-02  0.1111594E+00
          1   -1    0    0  501    0  0.00000000000E+00  0.00000000000E+00  0.56615499743E+03  0.56615499743E+03  0.00000000000E+00 0. -1.
         -1   -1    0    0    0  501 -0.00000000000E+00 -0.00000000000E+00 -0.12782308339E+03  0.12782308339E+03  0.00000000000E+00 0.  1.
         23    2    1    2    0    0 -0.22984451013E+03 -0.86804115856E+02  0.21925018905E+03  0.34182952745E+03  0.91724190219E+02 0.  0.
          5    1    1    2  502    0  0.10352537188E+03  0.11539118568E+02  0.22548391601E+02  0.10666094057E+03  0.41800000000E+01 0.  1.
         -5    1    1    2    0  502  0.12631913825E+03  0.75264997289E+02  0.19653333338E+03  0.24548761279E+03  0.41800000000E+01 0.  1.
        -11    1    3    3    0    0 -0.10205359354E+03 -0.73194445538E+02  0.66160900008E+02  0.14194938359E+03  0.00000000000E+00 0.  1.
         11    1    3    3    0    0 -0.12779091658E+03 -0.13609670319E+02  0.15308928904E+03  0.19988014385E+03  0.00000000000E+00 0. -1.
</event>
<event>
 7    1  0.6145388E-006  0.8939562E+02  0.7561462E-02  0.1304322E+00
         -2   -1    0    0    0  501 -0.00000000000E+00  0.00000000000E+00  0.12446682524E+03  0.12446682524E+03  0.00000000000E+00 0.  1.
          2   -1    0    0  501    0  0.00000000000E+00 -0.00000000000E+00 -0.13612945829E+03  0.13612945829E+03  0.00000000000E+00 0. -1.
         23    2    1    2    0    0 -0.73244881944E+02  0.22582497033E+02 -0.32799353628E+01  0.12458293162E+03  0.98159905116E+02 0.  0.
          5    1    1    2  502    0  0.80083093260E+00 -0.28799263683E+02  0.39340043052E+02  0.48940272846E+02  0.41800000000E+01 0. -1.
         -5    1    1    2    0  502  0.72444051012E+02  0.62167666500E+01 -0.47722740741E+02  0.87073079068E+02  0.41800000000E+01 0.  1.
        -11    1    3    3    0    0 -0.57831557640E+02  0.20169168277E+02 -0.47617693439E+02  0.77580468782E+02  0.00000000000E+00 0. -1.
         11    1    3    3    0    0 -0.15413324304E+02  0.24133287562E+01  0.44337758076E+02  0.47002462840E+02  0.00000000000E+00 0.  1.
</event>
<event>
 7    1  0.6145388E-006  0.9836377E+02  0.7561462E-02  0.1283775E+00
          1   -1    0    0  501    0  0.00000000000E+00  0.00000000000E+00  0.16620102355E+03  0.16620102355E+03  0.00000000000E+00 0. -1.
         -1   -1    0    0    0  501 -0.00000000000E+00 -0.00000000000E+00 -0.10823993686E+03  0.10823993686E+03  0.00000000000E+00 0.  1.
         23    2    1    2    0    0 -0.34740203042E+02  0.71416185939E+01  0.10082605121E+03  0.14131031800E+03  0.92438243974E+02 0.  0.
          5    1    1    2  502    0 -0.28411838907E+02  0.13170094104E+02 -0.57004094847E+02  0.65173792265E+02  0.41800000000E+01 0. -1.
         -5    1    1    2    0  502  0.63152041949E+02 -0.20311712697E+02  0.14139130322E+02  0.67956850142E+02  0.41800000000E+01 0.  1.
        -11    1    3    3    0    0 -0.64917306966E+02 -0.70831063641E+01  0.61046686889E+02  0.89393093243E+02  0.00000000000E+00 0.  1.
         11    1    3    3    0    0  0.30177103924E+02  0.14224724958E+02  0.39779364319E+02  0.51917224762E+02  0.00000000000E+00 0. -1.
</event>
<event>
 7    1  0.6145388E-006  0.1322273E+03  0.7561462E-02  0.1224188E+00
         -2   -1    0    0    0  501 -0.00000000000E+00  0.00000000000E+00  0.18025547839E+03  0.18025547839E+03  0.00000000000E+00 0.  1.
          2   -1    0    0  501    0  0.00000000000E+00 -0.00000000000E+00 -0.10222491931E+03  0.10222491931E+03  0.00000000000E+00 0. -1.
         23    2    1    2    0    0 -0.79207821351E+02 -0.38021323331E+02  0.48031843299E+02  0.12670003901E+03  0.77629517090E+02 0.  0.
          5    1    1    2  502    0  0.91753664487E+02 -0.14620196866E+02 -0.15159782790E+01  0.93017502081E+02  0.41800000000E+01 0.  1.
         -5    1    1    2    0  502 -0.12545843136E+02  0.52641520197E+02  0.31514694054E+02  0.62762856611E+02  0.41800000000E+01 0.  1.
        -11    1    3    3    0    0 -0.20477336192E+02 -0.52782382036E+02  0.21018114383E+02  0.60390912256E+02  0.00000000000E+00 0. -1.
         11    1    3    3    0    0 -0.58730485159E+02  0.14761058704E+02  0.27013728916E+02  0.66309126755E+02  0.00000000000E+00 0.  1.
</event>
<event>
 7    1  0.6145388E-006  0.9778901E+02  0.7561462E-02  0.1285015E+00
          1   -1    0    0  501    0  0.00000000000E+00  0.00000000000E+00  0.36176042931E+02  0.36176042931E+02  0.00000000000E+00 0. -1.
         -1   -1    0    0    0  501 -0.00000000000E+00 -0.00000000000E+00 -0.42657974949E+03  0.42657974949E+03  0.00000000000E+00 0.  1.
         23    2    1    2    0    0  0.39565391880E+02  0.33340013273E+02 -0.12642462546E+03  0.16608836762E+03  0.94473187821E+02 0.  0.
          5    1    1    2  502    0 -0.67082968882E+02 -0.53463502917E+02 -0.23965928574E+03  0.25458302477E+03  0.41800000000E+01 0.  1.
         -5    1    1    2    0  502  0.27517577002E+02  0.20123489644E+02 -0.24319795352E+02  0.42084400025E+02  0.41800000000E+01 0.  1.
        -11    1    3    3    0    0  0.10055390909E+02  0.43107150632E+02 -0.97253811197E+01  0.45320198144E+02  0.00000000000E+00 0. -1.
         11    1    3    3    0    0  0.29510000971E+02 -0.97671373590E+01 -0.11669924434E+03  0.12076816948E+03  0.00000000000E+00 0.  1.
</event>
<event>
 7    1  0.6145388E-006  0.8756675E+02  0.7561462E-02  0.1308853E+00
         -1   -1    0    0    0  501 -0.00000000000E+00  0.00000000000E+00  0.28979927939E+02  0.28979927939E+02  0.00000000000E+00 0.  1.
          1   -1    0    0  501    0  0.00000000000E+00 -0.00000000000E+00 -0.59886119879E+03  0.59886119879E+03  0.00000000000E+00 0. -1.
         23    2    1    2    0    0 -0.28828356417E+02  0.44520197709E+02 -0.38151000923E+03  0.39558247653E+03  0.90124838174E+02 0.  0.
          5    1    1    2  502    0 -0.66926216903E+01 -0.37846956780E+02 -0.19185261254E+03  0.19570917367E+03  0.41800000000E+01 0.  1.
         -5    1    1    2    0  502  0.35520978107E+02 -0.66732409288E+01  0.34813509169E+01  0.36549476527E+02  0.41800000000E+01 0.  1.
        -11    1    3    3    0    0 -0.18292770591E+01 -0.25229937363E+02 -0.53864493988E+02  0.59508652367E+02  0.00000000000E+00 0.  1.
         11    1    3    3    0    0 -0.26999079358E+02  0.69750135071E+02 -0.32764551524E+03  0.33607382416E+03  0.00000000000E+00 0. -1.
</event>
<event>
 7    1  0.6145388E-006  0.1532271E+03  0.7561462E-02  0.1196563E+00
         -2   -1    0    0    0  501 -0.00000000000E+00  0.00000000000E+00  0.24775555246E+02  0.24775555246E+02  0.00000000000E+00 0.  1.
          2   -1    0    0  501    0  0.00000000000E+00 -0.00000000000E+00 -0.98420477090E+03  0.98420477090E+03  0.00000000000E+00 0. -1.
         23    2    1    2    0    0  0.54453821652E+02 -0.94830742252E+02 -0.53319470895E+03  0.55150196790E+03  0.88880451047E+02 0.  0.
          5    1    1    2  502    0 -0.44684884615E+02 -0.20870181864E+02 -0.14376212242E+03  0.15204382147E+03  0.41800000000E+01 0. -1.
         -5    1    1    2    0  502 -0.97689370371E+01  0.11570092412E+03 -0.28247238428E+03  0.30543453677E+03  0.41800000000E+01 0. -1.
        -11    1    3    3    0    0  0.14427919141E+02 -0.99439529497E+02 -0.36897890459E+03  0.38241576447E+03  0.00000000000E+00 0. -1.
         11    1    3    3    0    0  0.40025902511E+02  0.46087872446E+01 -0.16421580436E+03  0.16908620344E+03  0.00000000000E+00 0.  1.
</event>
<event>
 7    1  0.6145388E-006  0.1730800E+03  0.7561462E-02  0.1174673E+00
          1   -1    0    0  501    0  0.00000000000E+00  0.00000000000E+00  0.77323691292E+03  0.77323691292E+03  0.00000000000E+00 0.  1.
         -1   -1    0    0    0  501 -0.00000000000E+00 -0.00000000000E+00 -0.41855765017E+02  0.41855765017E+02  0.00000000000E+00 0. -1.
         23    2    1    2    0    0  0.96417353300E+02 -0.10403228566E+03  0.32310081570E+03  0.36514249801E+03  0.93892940468E+02 0.  0.
          5    1    1    2  502    0 -0.18469742059E+01 -0.24527084995E+02  0.27923141604E+02  0.37445473012E+02  0.41800000000E+01 0. -1.
         -5    1    1    2    0  502 -0.94570379095E+02  0.12855937066E+03  0.38035719060E+03  0.41250470691E+03  0.41800000000E+01 0. -1.
        -11    1    3    3    0    0  0.18290427070E+01 -0.54976786399E+02  0.16950112910E+03  0.17820332546E+03  0.00000000000E+00 0. -1.
         11    1    3    3    0    0  0.94588310593E+02 -0.49055499263E+02  0.15359968660E+03  0.18693917254E+03  0.00000000000E+00 0.  1.
</event>
<event>
 7    1  0.6145388E-006  0.1590189E+03  0.7561462E-02  0.1189809E+00
         -1   -1    0    0    0  501 -0.00000000000E+00  0.00000000000E+00  0.30898492264E+02  0.30898492264E+02  0.00000000000E+00 0.  1.
          1   -1    0    0  501    0  0.00000000000E+00 -0.00000000000E+00 -0.99305404365E+03  0.99305404365E+03  0.00000000000E+00 0. -1.
         23    2    1    2    0    0 -0.10266289342E+03 -0.86505683855E+02 -0.38911648447E+03  0.42224849025E+03  0.94123567739E+02 0.  0.
          5    1    1    2  502    0  0.12624696100E+03  0.52464717117E+02 -0.37071479400E+03  0.39514272433E+03  0.41800000000E+01 0.  1.
         -5    1    1    2    0  502 -0.23584067582E+02  0.34040966737E+02 -0.20232427292E+03  0.20656132133E+03  0.41800000000E+01 0.  1.
        -11    1    3    3    0    0 -0.65294888269E+02 -0.77232765990E+02 -0.36011343816E+03  0.37404546638E+03  0.00000000000E+00 0. -1.
         11    1    3    3    0    0 -0.37368005150E+02 -0.92729178651E+01 -0.29003046315E+02  0.48203023869E+02  0.00000000000E+00 0.  1.
</event>
<event>
 7    1  0.6145388E-006  0.1234615E+03  0.7561462E-02  0.1237493E+00
          2   -1    0    0  501    0  0.00000000000E+00  0.00000000000E+00  0.25500577133E+03  0.25500577133E+03  0.00000000000E+00 0. -1.
         -2   -1    0    0    0  501 -0.00000000000E+00 -0.00000000000E+00 -0.89016721723E+02  0.89016721723E+02  0.00000000000E+00 0.  1.
         23    2    1    2    0    0  0.75573458287E+02  0.57769548498E+02  0.13605345859E+03  0.18404539803E+03  0.79457514501E+02 0.  0.
          5    1    1    2  502    0 -0.10000126016E+03 -0.71681342363E+02  0.67423818089E+01  0.12329395358E+03  0.41800000000E+01 0. -1.
         -5    1    1    2    0  502  0.24427801873E+02  0.13911793865E+02  0.23193209213E+02  0.36683141448E+02  0.41800000000E+01 0. -1.
        -11    1    3    3    0    0  0.24212738468E+02  0.22797847449E+02 -0.13094216411E+01  0.33282324701E+02  0.00000000000E+00 0.  1.
         11    1    3    3    0    0  0.51360719818E+02  0.34971701049E+02  0.13736288023E+03  0.15076307333E+03  0.00000000000E+00 0. -1.
</event>
<event>
 7    1  0.6145388E-006  0.8181396E+02  0.7561462E-02  0.1323981E+00
          3   -1    0    0  501    0  0.00000000000E+00  0.00000000000E+00  0.16267771661E+03  0.16267771661E+03  0.00000000000E+00 0. -1.
         -3   -1    0    0    0  501 -0.00000000000E+00 -0.00000000000E+00 -0.10998247741E+03  0.10998247741E+03  0.00000000000E+00 0.  1.
         23    2    1    2    0    0  0.54451562242E+02  0.61038183039E+01  0.79103433010E+02  0.13356487556E+03  0.92628255086E+02 0.  0.
          5    1    1    2  502    0  0.54569462932E+01 -0.12477635797E+02  0.44050564053E+02  0.46296806060E+02  0.41800000000E+01 0.  1.
         -5    1    1    2    0  502 -0.59908508535E+02  0.63738174927E+01 -0.70458757864E+02  0.92798512403E+02  0.41800000000E+01 0.  1.
        -11    1    3    3    0    0 -0.32140193750E+01  0.27348119639E+02 -0.63975855775E+01  0.28269748311E+02  0.00000000000E+00 0.  1.
         11    1    3    3    0    0  0.57665581617E+02 -0.21244301335E+02  0.85501018587E+02  0.10529512725E+03  0.00000000000E+00 0. -1.
</event>
<event>
 7    1  0.6145388E-006  0.1106714E+03  0.7561462E-02  0.1259332E+00
         -2   -1    0    0    0  501 -0.00000000000E+00  0.00000000000E+00  0.42843959093E+02  0.42843959093E+02  0.00000000000E+00 0. -1.
          2   -1    0    0  501    0  0.00000000000E+00 -0.00000000000E+00 -0.42337288843E+03  0.42337288843E+03  0.00000000000E+00 0.  1.
         23    2    1    2    0    0  0.71965193595E+02  0.23679888359E+02 -0.21665642958E+03  0.24657810006E+03  0.90116728479E+02 0.  0.
          5    1    1    2  502    0 -0.46625937403E+02 -0.50396597620E+02 -0.16877884266E+03  0.18225686604E+03  0.41800000000E+01 0. -1.
         -5    1    1    2    0  502 -0.25339256192E+02  0.26716709261E+02  0.49063428946E+01  0.37381881423E+02  0.41800000000E+01 0. -1.
        -11    1    3    3    0    0 -0.14932253130E+02 -0.14291043146E+02 -0.59937566124E+02  0.63401245498E+02  0.00000000000E+00 0.  1.
         11    1    3    3    0    0  0.86897446725E+02  0.37970931504E+02 -0.15671886345E+03  0.18317685457E+03  0.00000000000E+00 0. -1.
</event>
<event>
 7    1  0.6145388E-006  0.1517342E+03  0.7561462E-02  0.1198358E+00
         -1   -1    0    0    0  501 -0.00000000000E+00  0.00000000000E+00  0.69404270504E+03  0.69404270504E+03  0.00000000000E+00 0.  1.
          1   -1    0    0  501    0  0.00000000000E+00 -0.00000000000E+00 -0.43070378209E+02  0.43070378209E+02  0.00000000000E+00 0. -1.
         23    2    1    2    0    0  0.82923974491E+02 -0.10527936303E+03  0.29152024519E+03  0.33361162759E+03  0.91392203608E+02 0.  0.
          5    1    1    2  502    0 -0.55677047423E+02  0.11915148112E+01  0.46919420312E+02  0.72940096790E+02  0.41800000000E+01 0. -1.
         -5    1    1    2    0  502 -0.27246927068E+02  0.10408784822E+03  0.31253266133E+03  0.33056135887E+03  0.41800000000E+01 0. -1.
        -11    1    3    3    0    0  0.62085725527E+02 -0.46460890122E+02  0.73522752036E+02  0.10685900380E+03  0.00000000000E+00 0. -1.
         11    1    3    3    0    0  0.20838248965E+02 -0.58818472909E+02  0.21799749316E+03  0.22675262380E+03  0.00000000000E+00 0.  1.
</event>
<event>
 7    1  0.6145388E-006  0.9489243E+02  0.7561462E-02  0.1291419E+00
          2   -1    0    0  501    0  0.00000000000E+00  0.00000000000E+00  0.92275131477E+02  0.92275131477E+02  0.00000000000E+00 0. -1.
         -2   -1    0    0    0  501 -0.00000000000E+00 -0.00000000000E+00 -0.24470564191E+03  0.24470564191E+03  0.00000000000E+00 0.  1.
         23    2    1    2    0    0 -0.36038477429E+02  0.31934535666E+02  0.27721729427E+02  0.11243279569E+03  0.97744835365E+02 0.  0.
          5    1    1    2  502    0  0.25101724009E+02  0.42737867772E+02 -0.11291542475E+03  0.12338552361E+03  0.41800000000E+01 0.  1.
         -5    1    1    2    0  502  0.10936753420E+02 -0.74672403438E+02 -0.67236815102E+02  0.10116245408E+03  0.41800000000E+01 0.  1.
        -11    1    3    3    0    0 -0.43375681623E+02  0.14817835734E+02 -0.27978926489E+02  0.53701381170E+02  0.00000000000E+00 0.  1.
         11    1    3    3    0    0  0.73372041940E+01  0.17116699932E+02  0.55700655916E+02  0.58731414519E+02  0.00000000000E+00 0. -1.
</event>
<event>
 7    1  0.6145388E-006  0.1586359E+03  0.7561462E-02  0.1190245E+00
         -1   -1    0    0    0  501 -0.00000000000E+00  0.00000000000E+00  0.41032152279E+03  0.41032152279E+03  0.00000000000E+00 0.  1.
          1   -1    0    0  501    0  0.00000000000E+00 -0.00000000000E+00 -0.80268883764E+02  0.80268883764E+02  0.00000000000E+00 0. -1.
         23    2    1    2    0    0 -0.53757685446E+02 -0.11533894678E+03  0.55446490880E+02  0.16310391401E+03  0.85648187516E+02 0.  0.
          5    1    1    2  502    0 -0.16459484668E+02  0.89325011784E+02  0.20869432459E+03  0.22764152935E+03  0.41800000000E+01 0. -1.
         -5    1    1    2    0  502  0.70217170114E+02  0.26013934994E+02  0.65911823552E+02  0.99844963201E+02  0.41800000000E+01 0. -1.
        -11    1    3    3    0    0 -0.61950489081E+02 -0.36127418049E+02  0.39553001070E+02  0.81899287700E+02  0.00000000000E+00 0.  1.
         11    1    3    3    0    0  0.81928036351E+01 -0.79211528729E+02  0.15893489810E+02  0.81204626305E+02  0.00000000000E+00 0. -1.
</event>
<event>
 7    1  0.6145388E-006  0.3007503E+03  0.7561462E-02  0.1084866E+00
         -1   -1    0    0    0  501 -0.00000000000E+00  0.00000000000E+00  0.10744857911E+03  0.10744857911E+03  0.00000000000E+00 0.  1.
          1   -1    0    0  501    0  0.00000000000E+00 -0.00000000000E+00 -0.93316775212E+03  0.93316775212E+03  0.00000000000E+00 0. -1.
         23    2    1    2    0    0  0.17779508229E+03  0.23791458467E+03 -0.38877692786E+03  0.49767962760E+03  0.91230867622E+02 0.  0.
          5    1    1    2  502    0 -0.96526600975E+02 -0.13183436540E+03 -0.34171316381E+03  0.37879155655E+03  0.41800000000E+01 0.  1.
         -5    1    1    2    0  502 -0.81268481313E+02 -0.10608021927E+03 -0.95229081339E+02  0.16414514707E+03  0.41800000000E+01 0.  1.
        -11    1    3    3    0    0  0.16389237504E+03  0.17434906099E+03 -0.34260055660E+03  0.41789166904E+03  0.00000000000E+00 0.  1.
         11    1    3    3    0    0  0.13902707250E+02  0.63565523679E+02 -0.46176371257E+02  0.79787958565E+02  0.00000000000E+00 0. -1.
</event>
<event>
 7    1  0.6145388E-006  0.1342041E+03  0.7561462E-02  0.1221348E+00
         -2   -1    0    0    0  501 -0.00000000000E+00  0.00000000000E+00  0.69599076694E+02  0.69599076694E+02  0.00000000000E+00 0.  1.
          2   -1    0    0  501    0  0.00000000000E+00 -0.00000000000E+00 -0.39848294103E+03  0.39848294103E+03  0.00000000000E+00 0. -1.
         23    2    1    2    0    0 -0.10146478523E+03 -0.58634271164E+00 -0.25754886581E+03  0.29192395691E+03  0.92696989683E+02 0.  0.
          5    1    1    2  502    0 -0.24512785094E+02  0.13152985762E+02 -0.33938492416E+02  0.44081417116E+02  0.41800000000E+01 0. -1.
         -5    1    1    2    0  502  0.12597757032E+03 -0.12566643050E+02 -0.37396506104E+02  0.13207664370E+03  0.41800000000E+01 0. -1.
        -11    1    3    3    0    0 -0.61034256830E+02 -0.25465030254E+02 -0.61846878252E+02  0.90546588131E+02  0.00000000000E+00 0.  1.
         11    1    3    3    0    0 -0.40430528397E+02  0.24878687542E+02 -0.19570198756E+03  0.20137736878E+03  0.00000000000E+00 0. -1.
</event>
<event>
 7    1  0.6145388E-006  0.1050323E+03  0.7561462E-02  0.1270056E+00
         -2   -1    0    0    0  501 -0.00000000000E+00  0.00000000000E+00  0.66167554353E+02  0.66167554353E+02  0.00000000000E+00 0. -1.
          2   -1    0    0  501    0  0.00000000000E+00 -0.00000000000E+00 -0.32847348362E+03  0.32847348362E+03  0.00000000000E+00 0.  1.
         23    2    1    2    0    0 -0.56773557845E+02  0.63907330641E+02 -0.18747433174E+03  0.22565890798E+03  0.92021377467E+02 0.  0.
          5    1    1    2  502    0  0.34474716637E+01 -0.99937092512E+00  0.32836252546E+02  0.33295280212E+02  0.41800000000E+01 0. -1.
         -5    1    1    2    0  502  0.53326086181E+02 -0.62907959716E+02 -0.10766785008E+03  0.13568684978E+03  0.41800000000E+01 0. -1.
        -11    1    3    3    0    0 -0.22590992577E+02  0.80766494617E+02 -0.15194239100E+03  0.17355134624E+03  0.00000000000E+00 0.  1.
         11    1    3    3    0    0 -0.34182565268E+02 -0.16859163976E+02 -0.35531940741E+02  0.52107561746E+02  0.00000000000E+00 0. -1.
</event>
<event>
 7    1  0.6145388E-006  0.1043467E+03  0.7561462E-02  0.1271412E+00
          1   -1    0    0  501    0  0.00000000000E+00  0.00000000000E+00  0.16787136876E+03  0.16787136876E+03  0.00000000000E+00 0. -1.
         -1   -1    0    0    0  501 -0.00000000000E+00 -0.00000000000E+00 -0.15768290918E+03  0.15768290918E+03  0.00000000000E+00 0.  1.
         23    2    1    2    0    0  0.87045182557E+00  0.43406031989E+02  0.27136100713E+02  0.10341439300E+03  0.89851696803E+02 0.  0.
          5    1    1    2  502    0 -0.85616588190E+01 -0.77318237598E+02  0.84431915257E+02  0.11488094960E+03  0.41800000000E+01 0. -1.
         -5    1    1    2    0  502  0.76912069934E+01  0.33912205609E+02 -0.10137955640E+03  0.10725893534E+03  0.41800000000E+01 0.  1.
        -11    1    3    3    0    0 -0.40651828357E+02  0.34458223351E+02  0.52935540487E+00  0.53293719353E+02  0.00000000000E+00 0.  1.
         11    1    3    3    0    0  0.41522280183E+02  0.89478086373E+01  0.26606745308E+02  0.50120673647E+02  0.00000000000E+00 0. -1.
</event>
<event>
 7    1  0.6145388E-006  0.1283613E+03  0.7561462E-02  0.1229908E+00
         -1   -1    0    0    0  501 -0.00000000000E+00  0.00000000000E+00  0.51606558021E+02  0.51606558021E+02  0.00000000000E+00 0.  1.
          1   -1    0    0  501    0  0.00000000000E+00 -0.00000000000E+00 -0.54387663277E+03  0.54387663277E+03  0.00000000000E+00 0. -1.
         23    2    1    2    0    0 -0.39720586052E+01 -0.10153049760E+03 -0.36253035665E+03  0.38858462005E+03  0.96153670017E+02 0.  0.
          5    1    1    2  502    0 -0.26193377412E+02  0.57668007660E+02  0.32808733298E+01  0.63560433113E+02  0.41800000000E+01 0.  1.
         -5    1    1    2    0  502  0.30165436017E+02  0.43862489937E+02 -0.13302059143E+03  0.14333813762E+03  0.41800000000E+01 0.  1.
        -11    1    3    3    0    0  0.25987791430E+02  0.72808119843E+01 -0.66228946080E+02  0.71516773036E+02  0.00000000000E+00 0. -1.
         11    1    3    3    0    0 -0.29959850035E+02 -0.10881130958E+03 -0.29630141057E+03  0.31706784702E+03  0.00000000000E+00 0.  1.
</event>
<event>
 7    1  0.6145388E-006  0.1024922E+03  0.7561462E-02  0.1275141E+00
          1   -1    0    0  501    0  0.00000000000E+00  0.00000000000E+00  0.33826516302E+03  0.33826516302E+03  0.00000000000E+00 0. -1.
         -1   -1    0    0    0  501 -0.00000000000E+00 -0.00000000000E+00 -0.56030737127E+02  0.56030737127E+02  0.00000000000E+00 0.  1.
         23    2    1    2    0    0  0.45561289741E+02  0.65275082187E+02  0.17030098497E+03  0.20851513416E+03  0.90219001407E+02 0.  0.
          5    1    1    2  502    0 -0.32960154715E+02 -0.22391868460E+02 -0.21167482644E+02  0.45313378747E+02  0.41800000000E+01 0.  1.
         -5    1    1    2    0  502 -0.12601135027E+02 -0.42883213727E+02  0.13310092357E+03  0.14046738724E+03  0.41800000000E+01 0.  1.
        -11    1    3    3    0    0 -0.27573681972E+02  0.16871008362E+02  0.39641133853E+02  0.51150350476E+02  0.00000000000E+00 0.  1.
         11    1    3    3    0    0  0.73134971713E+02  0.48404073825E+02  0.13065985112E+03  0.15736478369E+03  0.00000000000E+00 0. -1.
</event>
<event>
 7    1  0.6145388E-006  0.1316396E+03  0.7561462E-02  0.1225043E+00
         -1   -1    0    0    0  501 -0.00000000000E+00  0.00000000000E+00  0.12143649519E+03  0.12143649519E+03  0.00000000000E+00 0.  1.
          1   -1    0    0  501    0  0.00000000000E+00 -0.00000000000E+00 -0.15655127851E+03  0.15655127851E+03  0.00000000000E+00 0. -1.
         23    2    1    2    0    0  0.83702791652E+02 -0.61237771025E+01 -0.32491544918E+02  0.12732721617E+03  0.90071424494E+02 0.  0.
          5    1    1    2  502    0 -0.97429020694E+02 -0.36866306401E+02 -0.10037773649E+02  0.10473665987E+03  0.41800000000E+01 0.  1.
         -5    1    1    2    0  502  0.13726229042E+02  0.42990083504E+02  0.74145352496E+01  0.45923897660E+02  0.41800000000E+01 0.  1.
        -11    1    3    3    0    0  0.51265766897E+02 -0.41316188955E+02 -0.42585002063E+02  0.78413574883E+02  0.00000000000E+00 0. -1.
         11    1    3    3    0    0  0.32437024755E+02  0.35192411852E+02  0.10093457144E+02  0.48913641288E+02  0.00000000000E+00 0.  1.
</event>
<event>
 7    1  0.6145388E-006  0.1678128E+03  0.7561462E-02  0.1180148E+00
         -1   -1    0    0    0  501 -0.00000000000E+00  0.00000000000E+00  0.48785643465E+03  0.48785643465E+03  0.00000000000E+00 0.  1.
          1   -1    0    0  501    0  0.00000000000E+00 -0.00000000000E+00 -0.63356518347E+02  0.63356518347E+02  0.00000000000E+00 0. -1.
         23    2    1    2    0    0  0.92502785546E+02 -0.98242082054E+02  0.23127192096E+03  0.28439248781E+03  0.95833781515E+02 0.  0.
          5    1    1    2  502    0 -0.79970050609E+02  0.85049842977E+01  0.14039444819E+03  0.16185060159E+03  0.41800000000E+01 0. -1.
         -5    1    1    2    0  502 -0.12532734937E+02  0.89737097756E+02  0.52833547155E+02  0.10496986360E+03  0.41800000000E+01 0. -1.
        -11    1    3    3    0    0 -0.15147679960E+02  0.42718291891E+01  0.33215194293E+02  0.36755269891E+02  0.00000000000E+00 0.  1.
         11    1    3    3    0    0  0.10765046551E+03 -0.10251391124E+03  0.19805672666E+03  0.24763721792E+03  0.00000000000E+00 0. -1.
</event>
<event>
 7    1  0.6145388E-006  0.1097515E+03  0.7561462E-02  0.1261031E+00
          4   -1    0    0  501    0  0.00000000000E+00  0.00000000000E+00  0.20227938024E+02  0.20227938024E+02  0.00000000000E+00 0. -1.
         -4   -1    0    0    0  501 -0.00000000000E+00 -0.00000000000E+00 -0.14506851143E+04  0.14506851143E+04  0.00000000000E+00 0.  1.
         23    2    1    2    0    0 -0.28813693988E+02  0.23407946609E+02 -0.12182363188E+03  0.15579114008E+03  0.89731383128E+02 0.  0.
          5    1    1    2  502    0 -0.17768197041E+02  0.43494716104E+02 -0.38237404545E+03  0.38527247785E+03  0.41800000000E+01 0. -1.
         -5    1    1    2    0  502  0.46581891029E+02 -0.66902662713E+02 -0.92625949890E+03  0.92984943435E+03  0.41800000000E+01 0. -1.
        -11    1    3    3    0    0 -0.20504049770E+02  0.54653264668E+02 -0.49370690950E+02  0.76451687494E+02  0.00000000000E+00 0. -1.
         11    1    3    3    0    0 -0.83096442182E+01 -0.31245318059E+02 -0.72452940933E+02  0.79339452591E+02  0.00000000000E+00 0.  1.
</event>
<event>
 7    1  0.6145388E-006  0.4573887E+02  0.7561462E-02  0.1469781E+00
          2   -1    0    0  501    0  0.00000000000E+00  0.00000000000E+00  0.80034256113E+02  0.80034256113E+02  0.00000000000E+00 0. -1.
         -2   -1    0    0    0  501 -0.00000000000E+00 -0.00000000000E+00 -0.22850382185E+03  0.22850382185E+03  0.00000000000E+00 0.  1.
         23    2    1    2    0    0  0.28159666815E+02  0.16294786434E+02  0.17314779773E+02  0.98324324527E+02  0.91155824252E+02 0.  0.
          5    1    1    2  502    0 -0.46733032251E+01 -0.66732271896E+01 -0.18039765431E+03  0.18062989178E+03  0.41800000000E+01 0.  1.
         -5    1    1    2    0  502 -0.23486363590E+02 -0.96215592447E+01  0.14613308793E+02  0.29583861662E+02  0.41800000000E+01 0.  1.
        -11    1    3    3    0    0  0.39190306932E+02  0.21165208805E+02 -0.27211021120E+02  0.52194692178E+02  0.00000000000E+00 0.  1.
         11    1    3    3    0    0 -0.11030640117E+02 -0.48704223704E+01  0.44525800893E+02  0.46129632349E+02  0.00000000000E+00 0. -1.
</event>
<event>
 7    1  0.6145388E-006  0.9885941E+02  0.7561462E-02  0.1282713E+00
         -4   -1    0    0    0  501 -0.00000000000E+00  0.00000000000E+00  0.10708949607E+03  0.10708949607E+03  0.00000000000E+00 0. -1.
          4   -1    0    0  501    0  0.00000000000E+00 -0.00000000000E+00 -0.11934499768E+03  0.11934499768E+03  0.00000000000E+00 0.  1.
         23    2    1    2    0    0 -0.18171484937E+02 -0.15993555617E+02 -0.28348976125E+02  0.98011490286E+02  0.90645414085E+02 0.  0.
          5    1    1    2  502    0 -0.59020585515E+01  0.56983131565E+02 -0.27595023378E+02  0.63724950320E+02  0.41800000000E+01 0. -1.
         -5    1    1    2    0  502  0.24073543489E+02 -0.40989575948E+02  0.43688497892E+02  0.64698053143E+02  0.41800000000E+01 0. -1.
        -11    1    3    3    0    0 -0.46754813131E+02 -0.34851811713E+02 -0.25508094795E+02  0.63650013595E+02  0.00000000000E+00 0. -1.
         11    1    3    3    0    0  0.28583328194E+02  0.18858256096E+02 -0.28408813302E+01  0.34361476691E+02  0.00000000000E+00 0.  1.
</event>
<event>
 7    1  0.6145388E-006  0.9631940E+02  0.7561462E-02  0.1288232E+00
          2   -1    0    0  501    0  0.00000000000E+00  0.00000000000E+00  0.81324008301E+02  0.81324008301E+02  0.00000000000E+00 0. -1.
         -2   -1    0    0    0  501 -0.00000000000E+00 -0.00000000000E+00 -0.20626654688E+03  0.20626654688E+03  0.00000000000E+00 0.  1.
         23    2    1    2    0    0  0.75084344587E+01 -0.36436152630E+02  0.10218951583E+02  0.99707545197E+02  0.91941273601E+02 0.  0.
          5    1    1    2  502    0 -0.26310404497E+00  0.65058579605E+02 -0.18928072509E+02  0.67885435351E+02  0.41800000000E+01 0. -1.
         -5    1    1    2    0  502 -0.72453304137E+01 -0.28622426975E+02 -0.11623341766E+03  0.11999757464E+03  0.41800000000E+01 0. -1.
        -11    1    3    3    0    0  0.46527867713E+02 -0.36678329553E+01  0.13681926275E+02  0.48636309267E+02  0.00000000000E+00 0. -1.
         11    1    3    3    0    0 -0.39019433254E+02 -0.32768319674E+02 -0.34629746927E+01  0.51071235931E+02  0.00000000000E+00 0.  1.
</event>
<event>
 7    1  0.6145388E-006  0.1040784E+03  0.7561462E-02  0.1271946E+00
         -2   -1    0    0    0  501 -0.00000000000E+00  0.00000000000E+00  0.47309201080E+03  0.47309201080E+03  0.00000000000E+00 0.  1.
          2   -1    0    0  501    0  0.00000000000E+00 -0.00000000000E+00 -0.30211593736E+02  0.30211593736E+02  0.00000000000E+00 0. -1.
         23    2    1    2    0    0  0.11840117239E+02  0.14751524900E+02  0.99646363004E+02  0.13749611410E+03  0.92833118393E+02 0.  0.
          5    1    1    2  502    0  0.51441710515E+02 -0.27122679536E+02  0.20653031010E+03  0.21460226168E+03  0.41800000000E+01 0. -1.
         -5    1    1    2    0  502 -0.63281827754E+02  0.12371154637E+02  0.13670374396E+03  0.15120522876E+03  0.41800000000E+01 0. -1.
        -11    1    3    3    0    0 -0.22954956449E+02 -0.23963756227E+02  0.70303800517E+02  0.77741983543E+02  0.00000000000E+00 0.  1.
         11    1    3    3    0    0  0.34795073688E+02  0.38715281127E+02  0.29342562487E+02  0.59754130561E+02  0.00000000000E+00 0. -1.
</event>
<event>
 7    1  0.6145388E-006  0.9874940E+02  0.7561462E-02  0.1282948E+00
         -1   -1    0    0    0  501 -0.00000000000E+00  0.00000000000E+00  0.44023141482E+02  0.44023141482E+02  0.00000000000E+00 0.  1.
          1   -1    0    0  501    0  0.00000000000E+00 -0.00000000000E+00 -0.36348673517E+03  0.36348673517E+03  0.00000000000E+00 0. -1.
         23    2    1    2    0    0  0.80530939780E+01  0.55813479102E+02 -0.19405217792E+03  0.22163050734E+03  0.91015587987E+02 0.  0.
          5    1    1    2  502    0  0.53845406250E+02 -0.10073622554E+02 -0.28002597229E+02  0.61663794054E+02  0.41800000000E+01 0. -1.
         -5    1    1    2    0  502 -0.61898500228E+02 -0.45739856548E+02 -0.97408818539E+02  0.12421557526E+03  0.41800000000E+01 0. -1.
        -11    1    3    3    0    0  0.19452967447E+02  0.20009989090E+02 -0.43516745219E+01  0.28244551280E+02  0.00000000000E+00 0.  1.
         11    1    3    3    0    0 -0.11399873469E+02  0.35803490012E+02 -0.18970050340E+03  0.19338595606E+03  0.00000000000E+00 0. -1.
</event>
<event>
 7    1  0.6145388E-006  0.1260177E+03  0.7561462E-02  0.1233487E+00
         -4   -1    0    0    0  501 -0.00000000000E+00  0.00000000000E+00  0.25704142286E+02  0.25704142286E+02  0.00000000000E+00 0.  1.
          4   -1    0    0  501    0  0.00000000000E+00 -0.00000000000E+00 -0.79648838426E+03  0.79648838426E+03  0.00000000000E+00 0. -1.
         23    2    1    2    0    0  0.54638973950E+02  0.55713055814E+02 -0.49391773186E+03  0.50851839999E+03  0.92449311646E+02 0.  0.
          5    1    1    2  502    0 -0.15101788169E+02 -0.82339035296E+02 -0.23702739374E+03  0.25141049803E+03  0.41800000000E+01 0. -1.
         -5    1    1    2    0  502 -0.39537185781E+02  0.26625979482E+02 -0.39839116376E+02  0.62263628520E+02  0.41800000000E+01 0. -1.
        -11    1    3    3    0    0  0.77610095299E+02  0.58556385854E+02 -0.41759425755E+03  0.42876233645E+03  0.00000000000E+00 0. -1.
         11    1    3    3    0    0 -0.22971121349E+02 -0.28433300396E+01 -0.76323474311E+02  0.79756063548E+02  0.00000000000E+00 0.  1.
</event>
<event>
 7    1  0.6145388E-006  0.1114682E+03  0.7561462E-02  0.1257875E+00
         -1   -1    0    0    0  501 -0.00000000000E+00  0.00000000000E+00  0.27792108818E+03  0.27792108818E+03  0.00000000000E+00 0.  1.
          1   -1    0    0  501    0  0.00000000000E+00 -0.00000000000E+00 -0.67291845655E+02  0.67291845655E+02  0.00000000000E+00 0. -1.
         23    2    1    2    0    0  0.16211582858E+02 -0.30225506807E+02  0.12973253141E+01  0.98951934137E+02  0.92808434617E+02 0.  0.
          5    1    1    2  502    0 -0.19286004123E+02  0.76477060149E+02  0.16004064178E+03  0.17846896118E+03  0.41800000000E+01 0. -1.
         -5    1    1    2    0  502  0.30744212646E+01 -0.46251553343E+02  0.49291275435E+02  0.67792038521E+02  0.41800000000E+01 0. -1.
        -11    1    3    3    0    0  0.37361692641E+02 -0.53953415474E+02 -0.72795904502E+01  0.66029232583E+02  0.00000000000E+00 0.  1.
         11    1    3    3    0    0 -0.21150109783E+02  0.23727908668E+02  0.85769157642E+01  0.32922701554E+02  0.00000000000E+00 0. -1.
</event>
<event>
 7    1  0.6145388E-006  0.1121002E+03  0.7561462E-02  0.1256729E+00
         -1   -1    0    0    0  501 -0.00000000000E+00  0.00000000000E+00  0.73526067613E+03  0.73526067613E+03  0.00000000000E+00 0.  1.
          1   -1    0    0  501    0  0.00000000000E+00 -0.00000000000E+00 -0.18140896931E+02  0.18140896931E+02  0.00000000000E+00 0. -1.
         23    2    1    2    0    0  0.26291835009E+02  0.22820013145E+02  0.25665168436E+03  0.27497858356E+03  0.92364066304E+02 0.  0.
          5    1    1    2  502    0 -0.22850894477E+02  0.48601961988E+02  0.26056563653E+03  0.26607562351E+03  0.41800000000E+01 0. -1.
         -5    1    1    2    0  502 -0.34409405315E+01 -0.71421975132E+02  0.19990245831E+03  0.21234736599E+03  0.41800000000E+01 0. -1.
        -11    1    3    3    0    0 -0.20465649017E+02 -0.24674252394E+02  0.84190060656E+02  0.90086779464E+02  0.00000000000E+00 0. -1.
         11    1    3    3    0    0  0.46757484026E+02  0.47494265539E+02  0.17246162370E+03  0.18489180410E+03  0.00000000000E+00 0.  1.
</event>
<event>
 7    1  0.6145388E-006  0.8658600E+02  0.7561462E-02  0.1311336E+00
         -2   -1    0    0    0  501 -0.00000000000E+00  0.00000000000E+00  0.15292436739E+03  0.15292436739E+03  0.00000000000E+00 0.  1.
          2   -1    0    0  501    0  0.00000000000E+00 -0.00000000000E+00 -0.11395502798E+03  0.11395502798E+03  0.00000000000E+00 0. -1.
         23    2    1    2    0    0 -0.55111543915E+02 -0.87900993118E+01 -0.41585573706E+01  0.12328364884E+03  0.10984997202E+03 0.  0.
          5    1    1    2  502    0 -0.28415081741E+02  0.19983474055E+01  0.51778644476E+02  0.59244499209E+02  0.41800000000E+01 0. -1.
         -5    1    1    2    0  502  0.83526625657E+02  0.67917519063E+01 -0.86507476965E+01  0.84351247313E+02  0.41800000000E+01 0. -1.
        -11    1    3    3    0    0 -0.17319750904E+02 -0.14072375807E+02 -0.55208468861E+02  0.59548136547E+02  0.00000000000E+00 0. -1.
         11    1    3    3    0    0 -0.37791793011E+02  0.52822764953E+01  0.51049911491E+02  0.63735512293E+02  0.00000000000E+00 0.  1.
</event>
<event>
 7    1  0.6145388E-006  0.1119776E+03  0.7561462E-02  0.1256951E+00
         -1   -1    0    0    0  501 -0.00000000000E+00  0.00000000000E+00  0.59487304725E+02  0.59487304725E+02  0.00000000000E+00 0.  1.
          1   -1    0    0  501    0  0.00000000000E+00 -0.00000000000E+00 -0.22449144764E+03  0.22449144764E+03  0.00000000000E+00 0. -1.
         23    2    1    2    0    0 -0.30405433712E+02  0.25960399105E+02 -0.84759315687E+02  0.13008301616E+03  0.90216499472E+02 0.  0.
          5    1    1    2  502    0 -0.44810590689E+02 -0.27047997375E+02 -0.16023000365E+02  0.54898015816E+02  0.41800000000E+01 0. -1.
         -5    1    1    2    0  502  0.75216024400E+02  0.10875982694E+01 -0.64221826868E+02  0.98997720392E+02  0.41800000000E+01 0. -1.
        -11    1    3    3    0    0  0.46791872151E+00 -0.31167449890E+02 -0.14396280426E+02  0.34334847759E+02  0.00000000000E+00 0.  1.
         11    1    3    3    0    0 -0.30873352433E+02  0.57127848995E+02 -0.70363035261E+02  0.95748168402E+02  0.00000000000E+00 0. -1.
</event>
<event>
 7    1  0.6145388E-006  0.7733302E+02  0.7561462E-02  0.1336795E+00
         -2   -1    0    0    0  501 -0.00000000000E+00  0.00000000000E+00  0.13308804875E+03  0.13308804875E+03  0.00000000000E+00 0.  1.
          2   -1    0    0  501    0  0.00000000000E+00 -0.00000000000E+00 -0.10080742851E+03  0.10080742851E+03  0.00000000000E+00 0. -1.
         23    2    1    2    0    0 -0.32169231952E+02  0.26152519261E+02  0.15903217399E+02  0.10110380723E+03  0.90830907544E+02 0.  0.
          5    1    1    2  502    0 -0.34839352296E+02 -0.18101406838E+02 -0.31023018652E+02  0.50212961316E+02  0.41800000000E+01 0.  1.
         -5    1    1    2    0  502  0.67008584247E+02 -0.80511124237E+01  0.47400421500E+02  0.82578708711E+02  0.41800000000E+01 0.  1.
        -11    1    3    3    0    0 -0.10406359123E+02  0.23421862836E+02  0.52508912575E+02  0.58429974060E+02  0.00000000000E+00 0.  1.
         11    1    3    3    0    0 -0.21762872829E+02  0.27306564256E+01 -0.36605695176E+02  0.42673833172E+02  0.00000000000E+00 0. -1.
</event>
<event>
 7    1  0.6145388E-006  0.5604543E+02  0.7561462E-02  0.1415219E+00
          2   -1    0    0  501    0  0.00000000000E+00  0.00000000000E+00  0.23089216640E+03  0.23089216640E+03  0.00000000000E+00 0. -1.
         -2   -1    0    0    0  501 -0.00000000000E+00 -0.00000000000E+00 -0.68941290807E+02  0.68941290807E+02  0.00000000000E+00 0.  1.
         23    2    1    2    0    0  0.30335178693E+02 -0.88717394370E+01  0.12810852266E+03  0.16644203131E+03  0.10145060562E+03 0.  0.
          5    1    1    2  502    0 -0.64408256540E+01  0.57512737608E+01  0.80309781277E+02  0.80880744024E+02  0.41800000000E+01 0.  1.
         -5    1    1    2    0  502 -0.23894353039E+02  0.31204656761E+01 -0.46467428350E+02  0.52510681872E+02  0.41800000000E+01 0.  1.
        -11    1    3    3    0    0  0.34792383852E+02 -0.36283075160E+02  0.12921484841E+03  0.13864865151E+03  0.00000000000E+00 0. -1.
         11    1    3    3    0    0 -0.44572051586E+01  0.27411335723E+02 -0.11063257435E+01  0.27793379798E+02  0.00000000000E+00 0.  1.
</event>
<event>
 7    1  0.6145388E-006  0.7439995E+02  0.7561462E-02  0.1345739E+00
          2   -1    0    0  501    0  0.00000000000E+00  0.00000000000E+00  0.92076532298E+02  0.92076532298E+02  0.00000000000E+00 0.  1.
         -2   -1    0    0    0  501 -0.00000000000E+00 -0.00000000000E+00 -0.13913391794E+03  0.13913391794E+03  0.00000000000E+00 0. -1.
         23    2    1    2    0    0 -0.56782579148E+01  0.21133428816E+02  0.73915898968E+01  0.93057361703E+02  0.90145285730E+02 0.  0.
          5    1    1    2  502    0 -0.13634684850E+02  0.25530756774E+02 -0.77238302936E+02  0.82589055043E+02  0.41800000000E+01 0. -1.
         -5    1    1    2    0  502  0.19312942765E+02 -0.46664185590E+02  0.22789327395E+02  0.55564033494E+02  0.41800000000E+01 0. -1.
        -11    1    3    3    0    0  0.29862419858E+02  0.12014907706E+02  0.34690750429E+02  0.47324098430E+02  0.00000000000E+00 0.  1.
         11    1    3    3    0    0 -0.35540677773E+02  0.91185211105E+01 -0.27299160532E+02  0.45733263272E+02  0.00000000000E+00 0. -1.
</event>
<event>
 7    1  0.6145388E-006  0.1069380E+03  0.7561462E-02  0.1266348E+00
         -1   -1    0    0    0  501 -0.00000000000E+00  0.00000000000E+00  0.14106845318E+03  0.14106845318E+03  0.00000000000E+00 0.  1.
          1   -1    0    0  501    0  0.00000000000E+00 -0.00000000000E+00 -0.11463999483E+03  0.11463999483E+03  0.00000000000E+00 0. -1.
         23    2    1    2    0    0  0.14658930188E+02 -0.53410661912E+02 -0.45562019992E+02  0.10857710945E+03  0.81519985224E+02 0.  0.
          5    1    1    2  502    0  0.40152453227E+02  0.44883552456E+02  0.68630116353E+02  0.91401958687E+02  0.41800000000E+01 0. -1.
         -5    1    1    2    0  502 -0.54811383415E+02  0.85271094554E+01  0.33603619859E+01  0.55729379866E+02  0.41800000000E+01 0.  1.
        -11    1    3    3    0    0  0.42915060715E+02 -0.54783359339E+02 -0.38019428854E+02  0.79299406473E+02  0.00000000000E+00 0. -1.
         11    1    3    3    0    0 -0.28256130527E+02  0.13726974273E+01 -0.75425911380E+01  0.29277702978E+02  0.00000000000E+00 0.  1.
</event>
<event>
 7    1  0.6145388E-006  0.1109746E+03  0.7561462E-02  0.1258776E+00
          2   -1    0    0  501    0  0.00000000000E+00  0.00000000000E+00  0.23382042838E+03  0.23382042838E+03  0.00000000000E+00 0. -1.
         -2   -1    0    0    0  501 -0.00000000000E+00 -0.00000000000E+00 -0.13402885717E+03  0.13402885717E+03  0.00000000000E+00 0.  1.
         23    2    1    2    0    0  0.67442973165E+02 -0.23773466461E+02  0.17204117803E+03  0.20666264724E+03  0.89429024861E+02 0.  0.
          5    1    1    2  502    0  0.31651296711E+01 -0.40180602434E+02 -0.47955292888E+02  0.62782811133E+02  0.41800000000E+01 0.  1.
         -5    1    1    2    0  502 -0.70608102836E+02  0.63954068895E+02 -0.24294313925E+02  0.98403827179E+02  0.41800000000E+01 0.  1.
        -11    1    3    3    0    0  0.47241308714E+02 -0.38604733869E+02  0.41614610673E+02  0.73850135731E+02  0.00000000000E+00 0.  1.
         11    1    3    3    0    0  0.20201664451E+02  0.14831267407E+02  0.13042656736E+03  0.13281251151E+03  0.00000000000E+00 0. -1.
</event>
<event>
 7    1  0.6145388E-006  0.2577360E+03  0.7561462E-02  0.1108511E+00
         -1   -1    0    0    0  501 -0.00000000000E+00  0.00000000000E+00  0.17962878862E+03  0.17962878862E+03  0.00000000000E+00 0.  1.
          1   -1    0    0  501    0  0.00000000000E+00 -0.00000000000E+00 -0.41289534410E+03  0.41289534410E+03  0.00000000000E+00 0. -1.
         23    2    1    2    0    0  0.43379873312E+02  0.24614752385E+03 -0.10679209618E+03  0.28573456157E+03  0.88143468069E+02 0.  0.
          5    1    1    2  502    0 -0.62484135423E+02 -0.99472066614E+02 -0.10433436251E+03  0.15716898809E+03  0.41800000000E+01 0.  1.
         -5    1    1    2    0  502  0.19104262111E+02 -0.14667545724E+03 -0.22140096789E+02  0.14962058305E+03  0.41800000000E+01 0.  1.
        -11    1    3    3    0    0  0.24414947029E+02  0.13082265953E+03 -0.90715478565E+01  0.13339022028E+03  0.00000000000E+00 0.  1.
         11    1    3    3    0    0  0.18964926282E+02  0.11532486432E+03 -0.97720548325E+02  0.15234434129E+03  0.00000000000E+00 0. -1.
</event>
<event>
 7    1  0.6145388E-006  0.1466360E+03  0.7561462E-02  0.1204669E+00
          1   -1    0    0  501    0  0.00000000000E+00  0.00000000000E+00  0.27478131352E+03  0.27478131352E+03  0.00000000000E+00 0. -1.
         -1   -1    0    0    0  501 -0.00000000000E+00 -0.00000000000E+00 -0.90052868956E+02  0.90052868956E+02  0.00000000000E+00 0.  1.
         23    2    1    2    0    0 -0.10709363053E+03 -0.38873270601E+02  0.89766608969E+02  0.17080909428E+03  0.90208235419E+02 0.  0.
          5    1    1    2  502    0  0.28187838162E+02  0.69538348190E+02  0.76584176067E+02  0.10729745809E+03  0.41800000000E+01 0. -1.
         -5    1    1    2    0  502  0.78905792366E+02 -0.30665077589E+02  0.18377659524E+02  0.86727630096E+02  0.41800000000E+01 0. -1.
        -11    1    3    3    0    0 -0.85879117355E+02 -0.58942010412E+02  0.95192582857E+02  0.14110638263E+03  0.00000000000E+00 0. -1.
         11    1    3    3    0    0 -0.21214513174E+02  0.20068739810E+02 -0.54259738876E+01  0.29702711651E+02  0.00000000000E+00 0.  1.
</event>
<event>
 7    1  0.6145388E-006  0.1442805E+03  0.7561462E-02  0.1207683E+00
          2   -1    0    0  501    0  0.00000000000E+00  0.00000000000E+00  0.20338564484E+03  0.20338564484E+03  0.00000000000E+00 0. -1.
         -2   -1    0    0    0  501 -0.00000000000E+00 -0.00000000000E+00 -0.12759765051E+03  0.12759765051E+03  0.00000000000E+00 0.  1.
         23    2    1    2    0    0 -0.84671287885E+02 -0.69156688595E+02  0.66748087795E+02  0.15623020983E+03  0.89446613515E+02 0.  0.
          5    1    1    2  502    0 -0.81130847487E+01 -0.19349615644E+02  0.37652037112E+02  0.43305635527E+02  0.41800000000E+01 0. -1.
         -5    1    1    2    0  502  0.92784372634E+02  0.88506304239E+02 -0.28612130578E+02  0.13144745000E+03  0.41800000000E+01 0.  1.
        -11    1    3    3    0    0 -0.34235991465E+01  0.18813199544E+02  0.20025134161E+02  0.27688689141E+02  0.00000000000E+00 0.  1.
         11    1    3    3    0    0 -0.81247688739E+02 -0.87969888139E+02  0.46722953634E+02  0.12854152069E+03  0.00000000000E+00 0. -1.
</event>
<event>
 7    1  0.6145388E-006  0.1559743E+03  0.7561462E-02  0.1193318E+00
         -2   -1    0    0    0  501 -0.00000000000E+00  0.00000000000E+00  0.80439676122E+02  0.80439676122E+02  0.00000000000E+00 0.  1.
          2   -1    0    0  501    0  0.00000000000E+00 -0.00000000000E+00 -0.42253557219E+03  0.42253557219E+03  0.00000000000E+00 0. -1.
         23    2    1    2    0    0 -0.55482933236E+02 -0.13352159664E+03 -0.20979878942E+03  0.27047593966E+03  0.90748714828E+02 0.  0.
          5    1    1    2  502    0  0.23591351583E+02  0.15229096170E+02 -0.10247762233E+03  0.10633725931E+03  0.41800000000E+01 0.  1.
         -5    1    1    2    0  502  0.31891581653E+02  0.11829250047E+03 -0.29819484321E+02  0.12616204934E+03  0.41800000000E+01 0.  1.
        -11    1    3    3    0    0 -0.20012531447E+02 -0.12206887929E+03 -0.19380324586E+03  0.22991522528E+03  0.00000000000E+00 0. -1.
         11    1    3    3    0    0 -0.35470401790E+02 -0.11452717349E+02 -0.15995543559E+02  0.40560714386E+02  0.00000000000E+00 0.  1.
</event>
<event>
 7    1  0.9641493E-006  0.2484083E+03  0.7561462E-02  0.1114315E+00
          2   -1    0    0  501    0  0.00000000000E+00  0.00000000000E+00  0.54150421430E+03  0.54150421430E+03  0.00000000000E+00 0. -1.
         -2   -1    0    0    0  501 -0.00000000000E+00 -0.00000000000E+00 -0.12226279958E+03  0.12226279958E+03  0.00000000000E+00 0.  1.
         23    2    1    2    0    0 -0.20128805569E+03 -0.11189362895E+03  0.24807440171E+03  0.35074504674E+03  0.91891857455E+02 0.  0.
          5    1    1    2  502    0  0.97683275627E+02  0.71854939429E+00  0.11501652726E+03  0.15095963896E+03  0.41800000000E+01 0. -1.
         -5    1    1    2    0  502  0.10360478007E+03  0.11117507956E+03  0.56150485753E+02  0.16206232819E+03  0.41800000000E+01 0. -1.
        -11    1    3    3    0    0 -0.59274253255E+02 -0.83165100319E+02  0.87724048689E+02  0.13463053045E+03  0.00000000000E+00 0.  1.
         11    1    3    3    0    0 -0.14201380244E+03 -0.28728528636E+02  0.16035035302E+03  0.21611451630E+03  0.00000000000E+00 0. -1.
</event>
<event>
 7    1  0.6145388E-006  0.1005957E+03  0.7561462E-02  0.1279048E+00
          2   -1    0    0  501    0  0.00000000000E+00  0.00000000000E+00  0.57218983672E+02  0.57218983672E+02  0.00000000000E+00 0.  1.
         -2   -1    0    0    0  501 -0.00000000000E+00 -0.00000000000E+00 -0.26300492301E+03  0.26300492301E+03  0.00000000000E+00 0. -1.
         23    2    1    2    0    0 -0.53391998189E+01 -0.40750605147E+02 -0.46830205110E+02  0.11381514536E+03  0.95245474061E+02 0.  0.
          5    1    1    2  502    0  0.38621015220E+02 -0.17827264730E+02 -0.11538531143E+02  0.44271935640E+02  0.41800000000E+01 0.  1.
         -5    1    1    2    0  502 -0.33281815401E+02  0.58577869877E+02 -0.14741720308E+03  0.16213682568E+03  0.41800000000E+01 0.  1.
        -11    1    3    3    0    0  0.36543502670E+02 -0.71128629424E+01 -0.47174934382E+02  0.60095713995E+02  0.00000000000E+00 0. -1.
         11    1    3    3    0    0 -0.41882702489E+02 -0.33637742204E+02  0.34472927167E+00  0.53719431369E+02  0.00000000000E+00 0.  1.
</event>
<event>
 7    1  0.6145388E-006  0.1247901E+03  0.7561462E-02  0.1235398E+00
         -1   -1    0    0    0  501 -0.00000000000E+00  0.00000000000E+00  0.32348196881E+02  0.32348196881E+02  0.00000000000E+00 0.  1.
          1   -1    0    0  501    0  0.00000000000E+00 -0.00000000000E+00 -0.65711188375E+03  0.65711188375E+03  0.00000000000E+00 0. -1.
         23    2    1    2    0    0  0.61856309637E+02 -0.69917373621E+02 -0.34598167763E+03  0.36995934115E+03  0.91934491214E+02 0.  0.
          5    1    1    2  502    0 -0.97973802701E+02  0.31541333341E+02 -0.19188300246E+03  0.21778494153E+03  0.41800000000E+01 0.  1.
         -5    1    1    2    0  502  0.36117493064E+02  0.38376040280E+02 -0.86899006781E+02  0.10171579795E+03  0.41800000000E+01 0.  1.
        -11    1    3    3    0    0  0.55296876878E+02 -0.58227652847E+02 -0.34732597857E+03  0.35648778315E+03  0.00000000000E+00 0. -1.
         11    1    3    3    0    0  0.65594327593E+01 -0.11689720774E+02  0.13443009399E+01  0.13471557999E+02  0.00000000000E+00 0.  1.
</event>
<event>
 7    1  0.6145388E-006  0.3201399E+03  0.7561462E-02  0.1075585E+00
          1   -1    0    0  501    0  0.00000000000E+00  0.00000000000E+00  0.72279031305E+03  0.72279031305E+03  0.00000000000E+00 0. -1.
         -1   -1    0    0    0  501 -0.00000000000E+00 -0.00000000000E+00 -0.16010579834E+03  0.16010579834E+03  0.00000000000E+00 0.  1.
         23    2    1    2    0    0  0.24696906905E+03  0.19077143349E+03  0.20367743314E+03  0.39104179708E+03  0.11849780331E+03 0.  0.
          5    1    1    2  502    0 -0.10988309715E+03 -0.14169803072E+03  0.13431668119E+03  0.22407826801E+03  0.41800000000E+01 0. -1.
         -5    1    1    2    0  502 -0.13708597190E+03 -0.49073402768E+02  0.22469040038E+03  0.26777604630E+03  0.41800000000E+01 0. -1.
        -11    1    3    3    0    0  0.13921987004E+03  0.13500669423E+03  0.60017395893E+02  0.20300509232E+03  0.00000000000E+00 0.  1.
         11    1    3    3    0    0  0.10774919901E+03  0.55764739260E+02  0.14366003725E+03  0.18803670475E+03  0.00000000000E+00 0. -1.
</event>
<event>
 7    1  0.6145388E-006  0.1132070E+03  0.7561462E-02  0.1254744E+00
          1   -1    0    0  501    0  0.00000000000E+00  0.00000000000E+00  0.47861171754E+03  0.47861171754E+03  0.00000000000E+00 0. -1.
         -1   -1    0    0    0  501 -0.00000000000E+00 -0.00000000000E+00 -0.38561589313E+02  0.38561589313E+02  0.00000000000E+00 0.  1.
         23    2    1    2    0    0  0.39076634585E+02  0.68119987917E+02  0.23760235457E+03  0.26657317046E+03  0.91864357533E+02 0.  0.
          5    1    1    2  502    0  0.18157985214E+02 -0.66409882406E+02  0.43363629586E+02  0.81473073338E+02  0.41800000000E+01 0.  1.
         -5    1    1    2    0  502 -0.57234619799E+02 -0.17101055108E+01  0.15908414407E+03  0.16912706306E+03  0.41800000000E+01 0.  1.
        -11    1    3    3    0    0  0.39589054536E+02  0.86094702273E+01  0.17722106894E+03  0.18179307878E+03  0.00000000000E+00 0. -1.
         11    1    3    3    0    0 -0.51241995117E+00  0.59510517690E+02  0.60381285632E+02  0.84780091675E+02  0.00000000000E+00 0.  1.
</event>
<event>
 7    1  0.6145388E-006  0.1248808E+03  0.7561462E-02  0.1235256E+00
          1   -1    0    0  501    0  0.00000000000E+00  0.00000000000E+00  0.19354469881E+03  0.19354469881E+03  0.00000000000E+00 0. -1.
         -1   -1    0    0    0  501 -0.00000000000E+00 -0.00000000000E+00 -0.10053697198E+03  0.10053697198E+03  0.00000000000E+00 0.  1.
         23    2    1    2    0    0  0.68746205688E+02  0.16216611696E+02  0.95203800619E+02  0.15041126426E+03  0.92578428771E+02 0.  0.
          5    1    1    2  502    0 -0.42344383237E+02  0.52820263839E+02 -0.12362508263E+02  0.68944405678E+02  0.41800000000E+01 0.  1.
         -5    1    1    2    0  502 -0.26401822452E+02 -0.69036875536E+02  0.10166434469E+02  0.74726000845E+02  0.41800000000E+01 0.  1.
        -11    1    3    3    0    0  0.85461779288E+02  0.24969506705E+02  0.96745749272E+02  0.13147977786E+03  0.00000000000E+00 0. -1.
         11    1    3    3    0    0 -0.16715573599E+02 -0.87528950086E+01 -0.15419486530E+01  0.18931486403E+02  0.00000000000E+00 0.  1.
</event>
<event>
 7    1  0.6145388E-006  0.1895835E+03  0.7561462E-02  0.1158837E+00
          1   -1    0    0  501    0  0.00000000000E+00  0.00000000000E+00  0.68974852923E+03  0.68974852923E+03  0.00000000000E+00 0. -1.
         -1   -1    0    0    0  501 -0.00000000000E+00 -0.00000000000E+00 -0.64032510161E+02  0.64032510161E+02  0.00000000000E+00 0.  1.
         23    2    1    2    0    0 -0.80069782234E+02  0.15499330854E+03  0.36469383634E+03  0.41582688330E+03  0.97346324456E+02 0.  0.
          5    1    1    2  502    0  0.84230522434E+01 -0.60479210611E+02  0.19008181558E+03  0.19969289356E+03  0.41800000000E+01 0.  1.
         -5    1    1    2    0  502  0.71646729991E+02 -0.94514097930E+02  0.70940367141E+02  0.13826126253E+03  0.41800000000E+01 0.  1.
        -11    1    3    3    0    0  0.17436386789E+01 -0.12637108080E+02  0.31296233018E+02  0.33796316035E+02  0.00000000000E+00 0. -1.
         11    1    3    3    0    0 -0.81813420913E+02  0.16763041662E+03  0.33339760333E+03  0.38203056726E+03  0.00000000000E+00 0.  1.
</event>
<event>
 7    1  0.6145388E-006  0.1865798E+03  0.7561462E-02  0.1161583E+00
          2   -1    0    0  501    0  0.00000000000E+00  0.00000000000E+00  0.78327476703E+02  0.78327476703E+02  0.00000000000E+00 0.  1.
         -2   -1    0    0    0  501 -0.00000000000E+00 -0.00000000000E+00 -0.48309308393E+03  0.48309308393E+03  0.00000000000E+00 0. -1.
         23    2    1    2    0    0  0.15868763235E+03  0.27407155753E+02 -0.18380029315E+03  0.26074489049E+03  0.90952918073E+02 0.  0.
          5    1    1    2  502    0 -0.13543151380E+03  0.28448266520E+02 -0.18165999591E+03  0.22840495904E+03  0.41800000000E+01 0.  1.
         -5    1    1    2    0  502 -0.23256118552E+02 -0.55855422273E+02 -0.39305318162E+02  0.72270711102E+02  0.41800000000E+01 0.  1.
        -11    1    3    3    0    0  0.34170892667E+02  0.35510764578E+02 -0.16365054723E+02  0.51927635442E+02  0.00000000000E+00 0.  1.
         11    1    3    3    0    0  0.12451673969E+03 -0.81036088252E+01 -0.16743523843E+03  0.20881725505E+03  0.00000000000E+00 0. -1.
</event>
<event>
 7    1  0.6145388E-006  0.1384764E+03  0.7561462E-02  0.1215394E+00
          2   -1    0    0  501    0  0.00000000000E+00  0.00000000000E+00  0.19946967893E+03  0.19946967893E+03  0.00000000000E+00 0. -1.
         -2   -1    0    0    0  501 -0.00000000000E+00 -0.00000000000E+00 -0.23162137699E+03  0.23162137699E+03  0.00000000000E+00 0.  1.
         23    2    1    2    0    0  0.80253273419E+02 -0.77249544712E+02  0.13388254519E+03  0.19524738981E+03  0.88254899386E+02 0.  0.
          5    1    1    2  502    0 -0.10082075257E+03  0.59369149740E+02 -0.71074065981E+02  0.13696172949E+03  0.41800000000E+01 0. -1.
         -5    1    1    2    0  502  0.20567479148E+02  0.17880394972E+02 -0.94960177272E+02  0.98881936624E+02  0.41800000000E+01 0. -1.
        -11    1    3    3    0    0  0.40005460595E+02 -0.82526581622E+02  0.12261693811E+03  0.15312082504E+03  0.00000000000E+00 0.  1.
         11    1    3    3    0    0  0.40247812823E+02  0.52770369095E+01  0.11265607089E+02  0.42126564762E+02  0.00000000000E+00 0. -1.
</event>
<event>
 7    1  0.6145388E-006  0.8921334E+02  0.7561462E-02  0.1304768E+00
         -2   -1    0    0    0  501 -0.00000000000E+00  0.00000000000E+00  0.15112327368E+03  0.15112327368E+03  0.00000000000E+00 0.  1.
          2   -1    0    0  501    0  0.00000000000E+00 -0.00000000000E+00 -0.11390638251E+03  0.11390638251E+03  0.00000000000E+00 0. -1.
         23    2    1    2    0    0  0.25307787175E+02  0.39771464090E+02 -0.42293324916E+02  0.10949648748E+03  0.89322460731E+02 0.  0.
          5    1    1    2  502    0 -0.64932025652E+02 -0.58059124243E+02  0.66916633189E+02  0.10991968914E+03  0.41800000000E+01 0.  1.
         -5    1    1    2    0  502  0.39624238477E+02  0.18287660153E+02  0.12593582893E+02  0.45613479574E+02  0.41800000000E+01 0.  1.
        -11    1    3    3    0    0  0.19334566218E+02  0.26265198572E+02  0.24689177990E+02  0.40905276148E+02  0.00000000000E+00 0.  1.
         11    1    3    3    0    0  0.59732209565E+01  0.13506265518E+02 -0.66982502906E+02  0.68591211335E+02  0.00000000000E+00 0. -1.
</event>
<event>
 7    1  0.6145388E-006  0.1090721E+03  0.7561462E-02  0.1262298E+00
          1   -1    0    0  501    0  0.00000000000E+00  0.00000000000E+00  0.55305421294E+03  0.55305421294E+03  0.00000000000E+00 0. -1.
         -1   -1    0    0    0  501 -0.00000000000E+00 -0.00000000000E+00 -0.31360551249E+02  0.31360551249E+02  0.00000000000E+00 0.  1.
         23    2    1    2    0    0  0.59536745642E+02  0.12352445842E+02  0.32778182976E+03  0.34577546829E+03  0.91774394832E+02 0.  0.
          5    1    1    2  502    0 -0.94754898806E+02 -0.27105336736E+02  0.11998450609E+03  0.15532850424E+03  0.41800000000E+01 0.  1.
         -5    1    1    2    0  502  0.35218153164E+02  0.14752890894E+02  0.73927325829E+02  0.83310791655E+02  0.41800000000E+01 0.  1.
        -11    1    3    3    0    0 -0.73844659754E+01 -0.82459527301E+01  0.49259418183E+00  0.11080104837E+02  0.00000000000E+00 0.  1.
         11    1    3    3    0    0  0.66921211618E+02  0.20598398572E+02  0.32728923558E+03  0.33469536345E+03  0.00000000000E+00 0. -1.
</event>
<event>
 7    1  0.6145388E-006  0.2006614E+03  0.7561462E-02  0.1149182E+00
         -1   -1    0    0    0  501 -0.00000000000E+00  0.00000000000E+00  0.16614705388E+03  0.16614705388E+03  0.00000000000E+00 0.  1.
          1   -1    0    0  501    0  0.00000000000E+00 -0.00000000000E+00 -0.32186503764E+03  0.32186503764E+03  0.00000000000E+00 0. -1.
         23    2    1    2    0    0 -0.36442501499E+01  0.10163692268E+03 -0.15690726803E+03  0.20670176354E+03  0.88104390803E+02 0.  0.
          5    1    1    2  502    0 -0.49986364009E+02  0.76924090085E+02 -0.18851594958E+02  0.93748638682E+02  0.41800000000E+01 0. -1.
         -5    1    1    2    0  502  0.53630614159E+02 -0.17856101277E+03  0.20040879218E+02  0.18756168931E+03  0.41800000000E+01 0.  1.
        -11    1    3    3    0    0 -0.84074573432E+01 -0.89686019759E+01  0.25754725720E+01  0.12560024656E+02  0.00000000000E+00 0.  1.
         11    1    3    3    0    0  0.47632071933E+01  0.11060552466E+03 -0.15948274060E+03  0.19414173888E+03  0.00000000000E+00 0. -1.
</event>
<event>
 7    1  0.6145388E-006  0.9931026E+02  0.7561462E-02  0.1281753E+00
          1   -1    0    0  501    0  0.00000000000E+00  0.00000000000E+00  0.11038562306E+03  0.11038562306E+03  0.00000000000E+00 0. -1.
         -1   -1    0    0    0  501 -0.00000000000E+00 -0.00000000000E+00 -0.17232082003E+03  0.17232082003E+03  0.00000000000E+00 0.  1.
         23    2    1    2    0    0 -0.77221840615E+02  0.27989150448E+02 -0.68075985326E+01  0.12322940973E+03  0.91610800746E+02 0.  0.
          5    1    1    2  502    0  0.60970461589E+02  0.16733921422E+02 -0.82807799532E+02  0.10426900487E+03  0.41800000000E+01 0.  1.
         -5    1    1    2    0  502  0.16251379026E+02 -0.44723071870E+02  0.27680201095E+02  0.55208028496E+02  0.41800000000E+01 0.  1.
        -11    1    3    3    0    0 -0.33208359183E+02  0.28060535602E+02 -0.46715975091E+02  0.63816699277E+02  0.00000000000E+00 0.  1.
         11    1    3    3    0    0 -0.44013481433E+02 -0.71385153486E-01  0.39908376559E+02  0.59412710452E+02  0.00000000000E+00 0. -1.
</event>
<event>
 7    1  0.6145388E-006  0.1646722E+03  0.7561462E-02  0.1183521E+00
         -1   -1    0    0    0  501 -0.00000000000E+00  0.00000000000E+00  0.34192665341E+03  0.34192665341E+03  0.00000000000E+00 0.  1.
          1   -1    0    0  501    0  0.00000000000E+00 -0.00000000000E+00 -0.92631690978E+02  0.92631690978E+02  0.00000000000E+00 0. -1.
         23    2    1    2    0    0 -0.16349592653E+02 -0.13944453758E+03  0.10406902463E+03  0.19697080568E+03  0.90857295587E+02 0.  0.
          5    1    1    2  502    0  0.47286739557E+02  0.13585598633E+02  0.75896063900E+02  0.90544404265E+02  0.41800000000E+01 0. -1.
         -5    1    1    2    0  502 -0.30937146905E+02  0.12585893895E+03  0.69329873906E+02  0.14704313445E+03  0.41800000000E+01 0. -1.
        -11    1    3    3    0    0 -0.29286081935E+02 -0.13232791705E+03  0.11568123756E+03  0.17818670251E+03  0.00000000000E+00 0.  1.
         11    1    3    3    0    0  0.12936489282E+02 -0.71166205326E+01 -0.11612212935E+02  0.18784103173E+02  0.00000000000E+00 0. -1.
</event>
<event>
 7    1  0.6145388E-006  0.1198555E+03  0.7561462E-02  0.1243336E+00
         -1   -1    0    0    0  501 -0.00000000000E+00  0.00000000000E+00  0.61757330219E+03  0.61757330219E+03  0.00000000000E+00 0.  1.
          1   -1    0    0  501    0  0.00000000000E+00 -0.00000000000E+00 -0.29599079672E+02  0.29599079672E+02  0.00000000000E+00 0. -1.
         23    2    1    2    0    0 -0.45096234213E+02  0.57517600729E+02  0.26646798922E+03  0.29453243905E+03  0.10199129198E+03 0.  0.
          5    1    1    2  502    0 -0.38908503112E+02 -0.35156724568E+02  0.16957762509E+03  0.17754974015E+03  0.41800000000E+01 0.  1.
         -5    1    1    2    0  502  0.84004737325E+02 -0.22360876162E+02  0.15192860821E+03  0.17509020267E+03  0.41800000000E+01 0.  1.
        -11    1    3    3    0    0 -0.42372015141E+02 -0.12104656611E+00  0.20842077026E+03  0.21268431958E+03  0.00000000000E+00 0.  1.
         11    1    3    3    0    0 -0.27242190721E+01  0.57638647295E+02  0.58047218954E+02  0.81848119465E+02  0.00000000000E+00 0. -1.
</event>
<event>
 7    1  0.6145388E-006  0.1374865E+03  0.7561462E-02  0.1216752E+00
          2   -1    0    0  501    0  0.00000000000E+00  0.00000000000E+00  0.53946565229E+02  0.53946565229E+02  0.00000000000E+00 0. -1.
         -2   -1    0    0    0  501 -0.00000000000E+00 -0.00000000000E+00 -0.40117433778E+03  0.40117433778E+03  0.00000000000E+00 0.  1.
         23    2    1    2    0    0 -0.43564994206E+02  0.88130451886E+02 -0.17529603543E+03  0.22087055166E+03  0.91598118348E+02 0.  0.
          5    1    1    2  502    0  0.54857455800E+02  0.11237917310E+01 -0.11557965491E+03  0.12801067297E+03  0.41800000000E+01 0. -1.
         -5    1    1    2    0  502 -0.11292461594E+02 -0.89254243617E+02 -0.56352082218E+02  0.10623967838E+03  0.41800000000E+01 0. -1.
        -11    1    3    3    0    0 -0.32352287404E+02  0.10486300702E+03 -0.12305024014E+03  0.16487656698E+03  0.00000000000E+00 0. -1.
         11    1    3    3    0    0 -0.11212706802E+02 -0.16732555133E+02 -0.52245795283E+02  0.55993984676E+02  0.00000000000E+00 0.  1.
</event>
<event>
 7    1  0.6145388E-006  0.1889017E+03  0.7561462E-02  0.1159456E+00
         -3   -1    0    0    0  501 -0.00000000000E+00  0.00000000000E+00  0.11985947235E+03  0.11985947235E+03  0.00000000000E+00 0.  1.
          3   -1    0    0  501    0  0.00000000000E+00 -0.00000000000E+00 -0.37386407606E+03  0.37386407606E+03  0.00000000000E+00 0. -1.
         23    2    1    2    0    0 -0.46482269211E+02  0.14295991990E+03 -0.22408022896E+03  0.29588141911E+03  0.12139079502E+03 0.  0.
          5    1    1    2  502    0  0.53949889293E+02 -0.59488204558E+01 -0.26442451468E+02  0.60519869953E+02  0.41800000000E+01 0. -1.
         -5    1    1    2    0  502 -0.74676200825E+01 -0.13701109945E+03 -0.34819232754E+01  0.13732225934E+03  0.41800000000E+01 0. -1.
        -11    1    3    3    0    0  0.33113488306E+02  0.17353272304E+02 -0.82424199784E+02  0.90506286398E+02  0.00000000000E+00 0. -1.
         11    1    3    3    0    0 -0.79595757517E+02  0.12560664760E+03 -0.14165602918E+03  0.20537513272E+03  0.00000000000E+00 0.  1.
</event>
<event>
 7    1  0.6145388E-006  0.9167347E+02  0.7561462E-02  0.1298849E+00
         -1   -1    0    0    0  501 -0.00000000000E+00  0.00000000000E+00  0.59513236792E+02  0.59513236792E+02  0.00000000000E+00 0.  1.
          1   -1    0    0  501    0  0.00000000000E+00 -0.00000000000E+00 -0.33160415744E+03  0.33160415744E+03  0.00000000000E+00 0. -1.
         23    2    1    2    0    0  0.22837424039E+02  0.82310426111E+02 -0.14511958630E+03  0.19346858138E+03  0.95256724019E+02 0.  0.
          5    1    1    2  502    0  0.13901823620E+02 -0.34854502055E+02  0.17154342989E+02  0.41470964503E+02  0.41800000000E+01 0. -1.
         -5    1    1    2    0  502 -0.36739247659E+02 -0.47455924056E+02 -0.14412567733E+03  0.15617784834E+03  0.41800000000E+01 0. -1.
        -11    1    3    3    0    0  0.18590467805E+02  0.68791159380E+02 -0.15862330490E+03  0.17389416885E+03  0.00000000000E+00 0. -1.
         11    1    3    3    0    0  0.42469562342E+01  0.13519266731E+02  0.13503718597E+02  0.19574412536E+02  0.00000000000E+00 0.  1.
</event>
<event>
 7    1  0.6145388E-006  0.8636131E+02  0.7561462E-02  0.1311910E+00
          1   -1    0    0  501    0  0.00000000000E+00  0.00000000000E+00  0.45302953701E+03  0.45302953701E+03  0.00000000000E+00 0. -1.
         -1   -1    0    0    0  501 -0.00000000000E+00 -0.00000000000E+00 -0.41651878701E+02  0.41651878701E+02  0.00000000000E+00 0.  1.
         23    2    1    2    0    0  0.96749714054E+01  0.84619526618E+02  0.14617526871E+03  0.18933778227E+03  0.85014806088E+02 0.  0.
          5    1    1    2  502    0 -0.46045647641E+01 -0.58993218918E+02  0.27170139574E+03  0.27810164103E+03  0.41800000000E+01 0.  1.
         -5    1    1    2    0  502 -0.50704066413E+01 -0.25626307700E+02 -0.64990061449E+01  0.27241992414E+02  0.41800000000E+01 0.  1.
        -11    1    3    3    0    0  0.21453401161E+00  0.66554363165E+02  0.15378724221E+03  0.16757101524E+03  0.00000000000E+00 0. -1.
         11    1    3    3    0    0  0.94604373938E+01  0.18065163454E+02 -0.76119735005E+01  0.21766767028E+02  0.00000000000E+00 0.  1.
</event>
<event>
 7    1  0.6145388E-006  0.1307726E+03  0.7561462E-02  0.1226314E+00
          1   -1    0    0  501    0  0.00000000000E+00  0.00000000000E+00  0.16589713537E+02  0.16589713537E+02  0.00000000000E+00 0. -1.
         -1   -1    0    0    0  501 -0.00000000000E+00 -0.00000000000E+00 -0.11614560117E+04  0.11614560117E+04  0.00000000000E+00 0.  1.
         23    2    1    2    0    0 -0.82123164413E+02 -0.15608911779E+02 -0.41124058395E+03  0.42915361050E+03  0.89811754582E+02 0.  0.
          5    1    1    2  502    0  0.10846733641E+03  0.38612503965E+02 -0.55858812190E+03  0.57034572923E+03  0.41800000000E+01 0. -1.
         -5    1    1    2    0  502 -0.26344171993E+02 -0.23003592186E+02 -0.17503759229E+03  0.17854638547E+03  0.41800000000E+01 0. -1.
        -11    1    3    3    0    0 -0.53760145842E+02  0.26817293629E+02 -0.12858053025E+03  0.14192347684E+03  0.00000000000E+00 0. -1.
         11    1    3    3    0    0 -0.28363018571E+02 -0.42426205409E+02 -0.28266005370E+03  0.28723013366E+03  0.00000000000E+00 0.  1.
</event>
<event>
 7    1  0.6145388E-006  0.1143608E+03  0.7561462E-02  0.1252701E+00
         -1   -1    0    0    0  501 -0.00000000000E+00  0.00000000000E+00  0.87413157728E+02  0.87413157728E+02  0.00000000000E+00 0.  1.
          1   -1    0    0  501    0  0.00000000000E+00 -0.00000000000E+00 -0.25453474310E+03  0.25453474310E+03  0.00000000000E+00 0. -1.
         23    2    1    2    0    0 -0.66256966346E+02 -0.53852245553E+02 -0.14061341055E+03  0.18819393311E+03  0.91404459923E+02 0.  0.
          5    1    1    2  502    0  0.88477523616E+02  0.69966798145E+02 -0.43763914034E+02  0.12106352712E+03  0.41800000000E+01 0. -1.
         -5    1    1    2    0  502 -0.22220557270E+02 -0.16114552592E+02  0.17255739210E+02  0.32690440595E+02  0.41800000000E+01 0. -1.
        -11    1    3    3    0    0 -0.17131692468E+02 -0.30326800999E+01  0.11228614911E+02  0.20706854619E+02  0.00000000000E+00 0.  1.
         11    1    3    3    0    0 -0.49125273877E+02 -0.50819565454E+02 -0.15184202546E+03  0.16748707850E+03  0.00000000000E+00 0. -1.
</event>
<event>
 7    1  0.6145388E-006  0.1673135E+03  0.7561462E-02  0.1180679E+00
         -1   -1    0    0    0  501 -0.00000000000E+00  0.00000000000E+00  0.34913449025E+03  0.34913449025E+03  0.00000000000E+00 0.  1.
          1   -1    0    0  501    0  0.00000000000E+00 -0.00000000000E+00 -0.10422761845E+03  0.10422761845E+03  0.00000000000E+00 0. -1.
         23    2    1    2    0    0  0.13043639413E+03  0.78405511391E+02  0.72411710164E+02  0.19151631695E+03  0.90961347611E+02 0.  0.
          5    1    1    2  502    0  0.14259030711E+02 -0.22595740471E+02 -0.34584924967E+01  0.27263914147E+02  0.41800000000E+01 0. -1.
         -5    1    1    2    0  502 -0.14469542484E+03 -0.55809770920E+02  0.17595365413E+03  0.23458187761E+03  0.41800000000E+01 0. -1.
        -11    1    3    3    0    0  0.48954895471E+02  0.24505238635E+02  0.76105851227E+02  0.93750675209E+02  0.00000000000E+00 0.  1.
         11    1    3    3    0    0  0.81481498660E+02  0.53900272756E+02 -0.36941410629E+01  0.97765641742E+02  0.00000000000E+00 0. -1.
</event>
<event>
 7    1  0.6145388E-006  0.8889691E+02  0.7561462E-02  0.1305545E+00
          2   -1    0    0  501    0  0.00000000000E+00  0.00000000000E+00  0.72521213271E+03  0.72521213271E+03  0.00000000000E+00 0. -1.
         -2   -1    0    0    0  501 -0.00000000000E+00 -0.00000000000E+00 -0.26611753249E+02  0.26611753249E+02  0.00000000000E+00 0.  1.
         23    2    1    2    0    0 -0.25070250231E+01  0.74632917350E+02  0.19912465762E+03  0.23153603017E+03  0.91552970821E+02 0.  0.
          5    1    1    2  502    0  0.18393868874E+02 -0.38897573173E+01  0.41957158228E+01  0.19711444783E+02  0.41800000000E+01 0.  1.
         -5    1    1    2    0  502 -0.15886843851E+02 -0.70743160033E+02  0.49528000602E+03  0.50057641101E+03  0.41800000000E+01 0.  1.
        -11    1    3    3    0    0 -0.22058853209E+02  0.48411668929E+02  0.33850954174E+02  0.63056877435E+02  0.00000000000E+00 0.  1.
         11    1    3    3    0    0  0.19551828186E+02  0.26221248421E+02  0.16527370345E+03  0.16847915273E+03  0.00000000000E+00 0. -1.
</event>
<event>
 7    1  0.6145388E-006  0.1266445E+03  0.7561462E-02  0.1232521E+00
          2   -1    0    0  501    0  0.00000000000E+00  0.00000000000E+00  0.54524313721E+03  0.54524313721E+03  0.00000000000E+00 0. -1.
         -2   -1    0    0    0  501 -0.00000000000E+00 -0.00000000000E+00 -0.44961653550E+02  0.44961653550E+02  0.00000000000E+00 0.  1.
         23    2    1    2    0    0 -0.71108949468E+02  0.62493490602E+02  0.11824434328E+03  0.17721341178E+03  0.91983419893E+02 0.  0.
          5    1    1    2  502    0 -0.22701248497E+02  0.20941434519E+02  0.70430382694E+02  0.77018189861E+02  0.41800000000E+01 0.  1.
         -5    1    1    2    0  502  0.93810197965E+02 -0.83434925120E+02  0.31160675768E+03  0.33597318912E+03  0.41800000000E+01 0.  1.
        -11    1    3    3    0    0 -0.63724193616E+02  0.46484826056E+02  0.13272822159E+03  0.15439686756E+03  0.00000000000E+00 0. -1.
         11    1    3    3    0    0 -0.73847558518E+01  0.16008664545E+02 -0.14483878307E+02  0.22816544224E+02  0.00000000000E+00 0.  1.
</event>
<event>
 7    1  0.6145388E-006  0.9456514E+02  0.7561462E-02  0.1292159E+00
         -1   -1    0    0    0  501 -0.00000000000E+00  0.00000000000E+00  0.53193949724E+03  0.53193949724E+03  0.00000000000E+00 0.  1.
          1   -1    0    0  501    0  0.00000000000E+00 -0.00000000000E+00 -0.74169774259E+02  0.74169774259E+02  0.00000000000E+00 0. -1.
         23    2    1    2    0    0 -0.65081796962E+02  0.57185858013E+02  0.34704544809E+01  0.12700533198E+03  0.92803273884E+02 0.  0.
          5    1    1    2  502    0  0.17974307287E+02 -0.16960597663E+02  0.50285150151E+01  0.25563567020E+02  0.41800000000E+01 0.  1.
         -5    1    1    2    0  502  0.47107489675E+02 -0.40225260350E+02  0.44927075349E+03  0.45354037251E+03  0.41800000000E+01 0.  1.
        -11    1    3    3    0    0 -0.74706547091E+02  0.48972087077E+02 -0.27570042073E+02  0.93484975856E+02  0.00000000000E+00 0. -1.
         11    1    3    3    0    0  0.96247501295E+01  0.82137709357E+01  0.31040496554E+02  0.33520356119E+02  0.00000000000E+00 0.  1.
</event>
<event>
 7    1  0.6145388E-006  0.1175374E+03  0.7561462E-02  0.1247216E+00
         -1   -1    0    0    0  501 -0.00000000000E+00  0.00000000000E+00  0.96706627222E+03  0.96706627222E+03  0.00000000000E+00 0.  1.
          1   -1    0    0  501    0  0.00000000000E+00 -0.00000000000E+00 -0.18366916198E+02  0.18366916198E+02  0.00000000000E+00 0. -1.
         23    2    1    2    0    0  0.42763915455E+02  0.26873360466E+02  0.44875291959E+03  0.46450650611E+03  0.10879421589E+03 0.  0.
          5    1    1    2  502    0 -0.32251056503E+01 -0.65434348065E+02  0.11840175817E+03  0.13538280523E+03  0.41800000000E+01 0. -1.
         -5    1    1    2    0  502 -0.39538809804E+02  0.38560987599E+02  0.38154467826E+03  0.38554387708E+03  0.41800000000E+01 0.  1.
        -11    1    3    3    0    0  0.14345681199E+01  0.60648633103E+02  0.30918948293E+03  0.31508483149E+03  0.00000000000E+00 0.  1.
         11    1    3    3    0    0  0.41329347335E+02 -0.33775272637E+02  0.13956343666E+03  0.14942167462E+03  0.00000000000E+00 0. -1.
</event>
<event>
 7    1  0.6145388E-006  0.1210527E+03  0.7561462E-02  0.1241370E+00
         -1   -1    0    0    0  501 -0.00000000000E+00  0.00000000000E+00  0.10475807420E+04  0.10475807420E+04  0.00000000000E+00 0.  1.
          1   -1    0    0  501    0  0.00000000000E+00 -0.00000000000E+00 -0.25714972820E+02  0.25714972820E+02  0.00000000000E+00 0. -1.
         23    2    1    2    0    0  0.25468257163E+02  0.73049197276E+02  0.16556936146E+03  0.20445963609E+03  0.91682670059E+02 0.  0.
          5    1    1    2  502    0 -0.52140237648E+02 -0.24105578983E+01  0.15786643054E+03  0.16632407361E+03  0.41800000000E+01 0. -1.
         -5    1    1    2    0  502  0.26671980485E+02 -0.70638639378E+02  0.69842997717E+03  0.70251200511E+03  0.41800000000E+01 0. -1.
        -11    1    3    3    0    0 -0.29626329316E+02  0.12214200823E+02  0.78577999188E+02  0.84861110333E+02  0.00000000000E+00 0.  1.
         11    1    3    3    0    0  0.55094586479E+02  0.60834996453E+02  0.86991362272E+02  0.11959852575E+03  0.00000000000E+00 0. -1.
</event>
<event>
 7    1  0.6145388E-006  0.2460098E+03  0.7561462E-02  0.1115853E+00
         -2   -1    0    0    0  501 -0.00000000000E+00  0.00000000000E+00  0.23817666072E+03  0.23817666072E+03  0.00000000000E+00 0.  1.
          2   -1    0    0  501    0  0.00000000000E+00 -0.00000000000E+00 -0.30133769785E+03  0.30133769785E+03  0.00000000000E+00 0. -1.
         23    2    1    2    0    0  0.11249770889E+02 -0.18183907222E+02 -0.70316381166E+02  0.11843969473E+03  0.92878178286E+02 0.  0.
          5    1    1    2  502    0 -0.20401827287E+03  0.16027592022E+02 -0.65653254480E+02  0.21496083735E+03  0.41800000000E+01 0. -1.
         -5    1    1    2    0  502  0.19276850198E+03  0.21563151993E+01  0.72808598514E+02  0.20611382648E+03  0.41800000000E+01 0.  1.
        -11    1    3    3    0    0  0.47596079062E+02 -0.30028075126E+02 -0.49295165581E+02  0.74813671127E+02  0.00000000000E+00 0. -1.
         11    1    3    3    0    0 -0.36346308173E+02  0.11844167904E+02 -0.21021215586E+02  0.43626023608E+02  0.00000000000E+00 0.  1.
</event>
<event>
 7    1  0.6145388E-006  0.1893349E+03  0.7561462E-02  0.1159063E+00
          2   -1    0    0  501    0  0.00000000000E+00  0.00000000000E+00  0.16697559505E+03  0.16697559505E+03  0.00000000000E+00 0.  1.
         -2   -1    0    0    0  501 -0.00000000000E+00 -0.00000000000E+00 -0.30599170067E+03  0.30599170067E+03  0.00000000000E+00 0. -1.
         23    2    1    2    0    0 -0.12201830231E+03 -0.13626438810E+03  0.11883986809E+02  0.20487156774E+03  0.91513280790E+02 0.  0.
          5    1    1    2  502    0  0.84211986260E+02  0.43714065642E+02 -0.10308591623E+02  0.95531762394E+02  0.41800000000E+01 0. -1.
         -5    1    1    2    0  502  0.37806316051E+02  0.92550322459E+02 -0.14059150081E+03  0.17256396559E+03  0.41800000000E+01 0. -1.
        -11    1    3    3    0    0 -0.66297203279E+02 -0.61835671896E+02  0.50981291011E+02  0.10400991066E+03  0.00000000000E+00 0.  1.
         11    1    3    3    0    0 -0.55721099033E+02 -0.74428716205E+02 -0.39097304202E+02  0.10086165708E+03  0.00000000000E+00 0. -1.
</event>
<event>
 7    1  0.6145388E-006  0.1189072E+03  0.7561462E-02  0.1244911E+00
         -1   -1    0    0    0  501 -0.00000000000E+00  0.00000000000E+00  0.43820681902E+02  0.43820681902E+02  0.00000000000E+00 0.  1.
          1   -1    0    0  501    0  0.00000000000E+00 -0.00000000000E+00 -0.45488773267E+03  0.45488773267E+03  0.00000000000E+00 0. -1.
         23    2    1    2    0    0 -0.67184558433E+02 -0.47552710764E+02 -0.20817442132E+03  0.24654032300E+03  0.10329818961E+03 0.  0.
          5    1    1    2  502    0 -0.22295162532E+02 -0.25407136267E+02 -0.41510223288E+02  0.53695138356E+02  0.41800000000E+01 0. -1.
         -5    1    1    2    0  502  0.89479720965E+02  0.72959847031E+02 -0.16138240616E+03  0.19847295322E+03  0.41800000000E+01 0. -1.
        -11    1    3    3    0    0 -0.47379393743E+02 -0.14247191012E+02 -0.18298117607E+02  0.52750455081E+02  0.00000000000E+00 0.  1.
         11    1    3    3    0    0 -0.19805164689E+02 -0.33305519752E+02 -0.18987630372E+03  0.19378986792E+03  0.00000000000E+00 0. -1.
</event>
<event>
 7    1  0.6145388E-006  0.5228286E+02  0.7561462E-02  0.1433403E+00
         -1   -1    0    0    0  501 -0.00000000000E+00  0.00000000000E+00  0.27151141370E+02  0.27151141370E+02  0.00000000000E+00 0.  1.
          1   -1    0    0  501    0  0.00000000000E+00 -0.00000000000E+00 -0.42370008316E+03  0.42370008316E+03  0.00000000000E+00 0. -1.
         23    2    1    2    0    0  0.70855176895E+01  0.11512948141E+02 -0.17169711024E+03  0.19319030005E+03  0.87520522362E+02 0.  0.
          5    1    1    2  502    0  0.21132892949E+02 -0.16813809978E+02 -0.22693232473E+03  0.22857177380E+03  0.41800000000E+01 0. -1.
         -5    1    1    2    0  502 -0.28218410639E+02  0.53008618370E+01  0.20804931807E+01  0.29089150676E+02  0.41800000000E+01 0. -1.
        -11    1    3    3    0    0  0.61547045986E+01 -0.17831940041E+02  0.13833270508E+00  0.18864718663E+02  0.00000000000E+00 0.  1.
         11    1    3    3    0    0  0.93081309093E+00  0.29344888182E+02 -0.17183544294E+03  0.17432558139E+03  0.00000000000E+00 0. -1.
</event>
<event>
 7    1  0.6145388E-006  0.8299599E+02  0.7561462E-02  0.1320758E+00
          2   -1    0    0  501    0  0.00000000000E+00  0.00000000000E+00  0.26824881079E+03  0.26824881079E+03  0.00000000000E+00 0. -1.
         -2   -1    0    0    0  501 -0.00000000000E+00 -0.00000000000E+00 -0.58266096933E+02  0.58266096933E+02  0.00000000000E+00 0.  1.
         23    2    1    2    0    0  0.11042892570E+02  0.95913869387E+01  0.16386536478E+03  0.19239314384E+03  0.99746297380E+02 0.  0.
          5    1    1    2  502    0 -0.33690171465E+02 -0.25922059237E+02 -0.30488863249E+02  0.52478795629E+02  0.41800000000E+01 0.  1.
         -5    1    1    2    0  502  0.22647278895E+02  0.16330672298E+02  0.76606212319E+02  0.81642968252E+02  0.41800000000E+01 0.  1.
        -11    1    3    3    0    0 -0.35500637629E+02 -0.19157221164E+02  0.39182721723E+02  0.56236821357E+02  0.00000000000E+00 0.  1.
         11    1    3    3    0    0  0.46543530198E+02  0.28748608103E+02  0.12468264306E+03  0.13615632248E+03  0.00000000000E+00 0. -1.
</event>
<event>
 7    1  0.6145388E-006  0.9806544E+02  0.7561462E-02  0.1284417E+00
          2   -1    0    0  501    0  0.00000000000E+00  0.00000000000E+00  0.28668970820E+03  0.28668970820E+03  0.00000000000E+00 0. -1.
         -2   -1    0    0    0  501 -0.00000000000E+00 -0.00000000000E+00 -0.15090210803E+03  0.15090210803E+03  0.00000000000E+00 0.  1.
         23    2    1    2    0    0  0.30723930262E+02 -0.43188577457E+02  0.24315486691E+03  0.26443614060E+03  0.89403411798E+02 0.  0.
          5    1    1    2  502    0  0.63550799909E+01  0.54835436313E+02 -0.11993525523E+03  0.13209560918E+03  0.41800000000E+01 0. -1.
         -5    1    1    2    0  502 -0.37079010252E+02 -0.11646858856E+02  0.12567988499E+02  0.41060066456E+02  0.41800000000E+01 0. -1.
        -11    1    3    3    0    0 -0.12668092367E+02 -0.55217965048E+02  0.16208557613E+03  0.17170101402E+03  0.00000000000E+00 0. -1.
         11    1    3    3    0    0  0.43392022628E+02  0.12029387590E+02  0.81069290781E+02  0.92735126577E+02  0.00000000000E+00 0.  1.
</event>
<event>
 7    1  0.6145388E-006  0.1945253E+03  0.7561462E-02  0.1154442E+00
         -2   -1    0    0    0  501 -0.00000000000E+00  0.00000000000E+00  0.18664511576E+03  0.18664511576E+03  0.00000000000E+00 0.  1.
          2   -1    0    0  501    0  0.00000000000E+00 -0.00000000000E+00 -0.24147001409E+03  0.24147001409E+03  0.00000000000E+00 0. -1.
         23    2    1    2    0    0 -0.17534076930E+03  0.10200010252E+02  0.18917128723E+02  0.20022641863E+03  0.94256752382E+02 0.  0.
          5    1    1    2  502    0  0.16041167550E+03 -0.51247545592E+02 -0.41638829810E+02  0.17352083770E+03  0.41800000000E+01 0. -1.
         -5    1    1    2    0  502  0.14929093793E+02  0.41047535340E+02 -0.32103197246E+02  0.54367873532E+02  0.41800000000E+01 0. -1.
        -11    1    3    3    0    0 -0.82993745670E+02 -0.49466832554E+01  0.55266369038E+02  0.99833877227E+02  0.00000000000E+00 0. -1.
         11    1    3    3    0    0 -0.92347023628E+02  0.15146693507E+02 -0.36349240315E+02  0.10039254140E+03  0.00000000000E+00 0.  1.
</event>
<event>
 7    1  0.6145388E-006  0.8817473E+02  0.7561462E-02  0.1307333E+00
         -2   -1    0    0    0  501 -0.00000000000E+00  0.00000000000E+00  0.32486884620E+03  0.32486884620E+03  0.00000000000E+00 0.  1.
          2   -1    0    0  501    0  0.00000000000E+00 -0.00000000000E+00 -0.38165768083E+02  0.38165768083E+02  0.00000000000E+00 0. -1.
         23    2    1    2    0    0  0.12265424348E+02 -0.25041998001E+02  0.12545754863E+03  0.15706065102E+03  0.90282386391E+02 0.  0.
          5    1    1    2  502    0  0.33906985218E+02  0.49908397885E+02  0.13335453229E+03  0.14642894354E+03  0.41800000000E+01 0.  1.
         -5    1    1    2    0  502 -0.46172409565E+02 -0.24866399884E+02  0.27890997195E+02  0.59545019714E+02  0.41800000000E+01 0.  1.
        -11    1    3    3    0    0  0.15359454200E+02  0.15954311223E+02 -0.28485354849E+01  0.22328614698E+02  0.00000000000E+00 0. -1.
         11    1    3    3    0    0 -0.30940298528E+01 -0.40996309224E+02  0.12830608412E+03  0.13473203632E+03  0.00000000000E+00 0.  1.
</event>
<event>
 7    1  0.6145388E-006  0.1098587E+03  0.7561462E-02  0.1260832E+00
          4   -1    0    0  501    0  0.00000000000E+00  0.00000000000E+00  0.59716075436E+02  0.59716075436E+02  0.00000000000E+00 0. -1.
         -4   -1    0    0    0  501 -0.00000000000E+00 -0.00000000000E+00 -0.21706764426E+03  0.21706764426E+03  0.00000000000E+00 0.  1.
         23    2    1    2    0    0 -0.38963962029E+02  0.66075625592E+01 -0.50216206904E+02  0.10744566162E+03  0.86377384455E+02 0.  0.
          5    1    1    2  502    0 -0.32765191053E+02  0.34412870723E+02 -0.30895089091E+02  0.56831174069E+02  0.41800000000E+01 0.  1.
         -5    1    1    2    0  502  0.71729153081E+02 -0.41020433282E+02 -0.76240272833E+02  0.11250688401E+03  0.41800000000E+01 0.  1.
        -11    1    3    3    0    0 -0.63986778186E+02  0.37564953903E+01 -0.51507319736E+02  0.82227872566E+02  0.00000000000E+00 0.  1.
         11    1    3    3    0    0  0.25022816158E+02  0.28510671689E+01  0.12911128323E+01  0.25217789055E+02  0.00000000000E+00 0. -1.
</event>
<event>
 7    1  0.6145388E-006  0.1198943E+03  0.7561462E-02  0.1243272E+00
          4   -1    0    0  501    0  0.00000000000E+00  0.00000000000E+00  0.13364967476E+02  0.13364967476E+02  0.00000000000E+00 0.  1.
         -4   -1    0    0    0  501 -0.00000000000E+00 -0.00000000000E+00 -0.20554775854E+04  0.20554775854E+04  0.00000000000E+00 0. -1.
         23    2    1    2    0    0  0.65400013297E+02  0.83195027523E+02 -0.60306406247E+03  0.62049581296E+03  0.10064897475E+03 0.  0.
          5    1    1    2  502    0 -0.45760280372E+02 -0.60237755545E+02 -0.31864628542E+03  0.32752941557E+03  0.41800000000E+01 0. -1.
         -5    1    1    2    0  502 -0.19639732925E+02 -0.22957271978E+02 -0.11204022700E+04  0.11208173243E+04  0.41800000000E+01 0. -1.
        -11    1    3    3    0    0 -0.17529940320E+02  0.30774845475E+02 -0.69685813693E+02  0.78169703541E+02  0.00000000000E+00 0.  1.
         11    1    3    3    0    0  0.82929953618E+02  0.52420182049E+02 -0.53337824878E+03  0.54232610942E+03  0.00000000000E+00 0. -1.
</event>
<event>
 7    1  0.6145388E-006  0.1234984E+03  0.7561462E-02  0.1237435E+00
          1   -1    0    0  501    0  0.00000000000E+00  0.00000000000E+00  0.13250283671E+03  0.13250283671E+03  0.00000000000E+00 0. -1.
         -1   -1    0    0    0  501 -0.00000000000E+00 -0.00000000000E+00 -0.14751901392E+03  0.14751901392E+03  0.00000000000E+00 0.  1.
         23    2    1    2    0    0 -0.52294749647E+01  0.58871544777E+02  0.57682632158E+02  0.12373427420E+03  0.92139450653E+02 0.  0.
          5    1    1    2  502    0  0.24540994165E+02 -0.94436744070E+02 -0.51679773476E+02  0.11049357634E+03  0.41800000000E+01 0. -1.
         -5    1    1    2    0  502 -0.19311519200E+02  0.35565199293E+02 -0.21019035899E+02  0.45794000095E+02  0.41800000000E+01 0. -1.
        -11    1    3    3    0    0  0.32188469455E+02  0.63255936180E+02  0.30359523708E+02  0.77195282936E+02  0.00000000000E+00 0.  1.
         11    1    3    3    0    0 -0.37417944420E+02 -0.43843914030E+01  0.27323108450E+02  0.46538991265E+02  0.00000000000E+00 0. -1.
</event>
<event>
 7    1  0.6145388E-006  0.1970872E+03  0.7561462E-02  0.1152220E+00
          3   -1    0    0  501    0  0.00000000000E+00  0.00000000000E+00  0.13634017981E+03  0.13634017981E+03  0.00000000000E+00 0. -1.
         -3   -1    0    0    0  501 -0.00000000000E+00 -0.00000000000E+00 -0.36448226804E+03  0.36448226804E+03  0.00000000000E+00 0.  1.
         23    2    1    2    0    0  0.16157862820E+03  0.94253951205E+02 -0.16709390819E+03  0.26765444944E+03  0.93418786872E+02 0.  0.
          5    1    1    2  502    0 -0.97827686748E+02 -0.10066289007E+03 -0.85557238833E+02  0.16444083206E+03  0.41800000000E+01 0. -1.
         -5    1    1    2    0  502 -0.63750941448E+02  0.64089388613E+01  0.24509058797E+02  0.68727166360E+02  0.41800000000E+01 0. -1.
        -11    1    3    3    0    0  0.12858050712E+03  0.59725834623E+02 -0.67125231617E+02  0.15686273889E+03  0.00000000000E+00 0. -1.
         11    1    3    3    0    0  0.32998121074E+02  0.34528116582E+02 -0.99968676574E+02  0.11079171054E+03  0.00000000000E+00 0.  1.
</event>
<event>
 7    1  0.6145388E-006  0.1349438E+03  0.7561462E-02  0.1220299E+00
          2   -1    0    0  501    0  0.00000000000E+00  0.00000000000E+00  0.26243360535E+03  0.26243360535E+03  0.00000000000E+00 0. -1.
         -2   -1    0    0    0  501 -0.00000000000E+00 -0.00000000000E+00 -0.13827251013E+03  0.13827251013E+03  0.00000000000E+00 0.  1.
         23    2    1    2    0    0 -0.13191975620E+02  0.10724646338E+03  0.17516022475E+03  0.22772034844E+03  0.97465997303E+02 0.  0.
          5    1    1    2  502    0 -0.20189277441E+02 -0.13177266080E+02  0.33949359384E+02  0.41848281536E+02  0.41800000000E+01 0.  1.
         -5    1    1    2    0  502  0.33381253061E+02 -0.94069197299E+02 -0.84948488910E+02  0.13113748551E+03  0.41800000000E+01 0.  1.
        -11    1    3    3    0    0 -0.26831487391E+02 -0.91296359245E+01  0.33535642744E+02  0.43908066479E+02  0.00000000000E+00 0.  1.
         11    1    3    3    0    0  0.13639511771E+02  0.11637609930E+03  0.14162458201E+03  0.18381228196E+03  0.00000000000E+00 0. -1.
</event>
<event>
 7    1  0.6145388E-006  0.1346814E+03  0.7561462E-02  0.1220670E+00
         -1   -1    0    0    0  501 -0.00000000000E+00  0.00000000000E+00  0.16524896440E+04  0.16524896440E+04  0.00000000000E+00 0.  1.
          1   -1    0    0  501    0  0.00000000000E+00 -0.00000000000E+00 -0.20961616703E+02  0.20961616703E+02  0.00000000000E+00 0. -1.
         23    2    1    2    0    0 -0.51887683108E+02  0.60728194893E+02  0.20030413798E+03  0.23365212771E+03  0.89951785836E+02 0.  0.
          5    1    1    2  502    0  0.72352167175E+02  0.14562939113E+02  0.51943942541E+03  0.52467294991E+03  0.41800000000E+01 0. -1.
         -5    1    1    2    0  502 -0.20464484066E+02 -0.75291134006E+02  0.91178446389E+03  0.91512618308E+03  0.41800000000E+01 0.  1.
        -11    1    3    3    0    0  0.16064390191E+02 -0.10241181369E+02  0.55337961742E+02  0.58525519543E+02  0.00000000000E+00 0.  1.
         11    1    3    3    0    0 -0.67952073299E+02  0.70969376263E+02  0.14496617624E+03  0.17512660816E+03  0.00000000000E+00 0. -1.
</event>
<event>
 7    1  0.6145388E-006  0.1300298E+03  0.7561462E-02  0.1227411E+00
          1   -1    0    0  501    0  0.00000000000E+00  0.00000000000E+00  0.12418732333E+03  0.12418732333E+03  0.00000000000E+00 0. -1.
         -1   -1    0    0    0  501 -0.00000000000E+00 -0.00000000000E+00 -0.18079828613E+03  0.18079828613E+03  0.00000000000E+00 0.  1.
         23    2    1    2    0    0 -0.90984604426E+02  0.17029930439E+02  0.20993665969E+02  0.13109878314E+03  0.90431964246E+02 0.  0.
          5    1    1    2  502    0  0.10756880426E+03 -0.63386569534E+00 -0.95727340154E+02  0.14405778524E+03  0.41800000000E+01 0. -1.
         -5    1    1    2    0  502 -0.16584199832E+02 -0.16396064744E+02  0.18122711386E+02  0.29829041070E+02  0.41800000000E+01 0. -1.
        -11    1    3    3    0    0 -0.10002578143E+02  0.42626404050E+02  0.13594233075E+02  0.45846101957E+02  0.00000000000E+00 0.  1.
         11    1    3    3    0    0 -0.80982026283E+02 -0.25596473611E+02  0.73994328932E+01  0.85252681185E+02  0.00000000000E+00 0. -1.
</event>
<event>
 7    1  0.6145388E-006  0.1157341E+03  0.7561462E-02  0.1250305E+00
          1   -1    0    0  501    0  0.00000000000E+00  0.00000000000E+00  0.12442361053E+03  0.12442361053E+03  0.00000000000E+00 0. -1.
         -1   -1    0    0    0  501 -0.00000000000E+00 -0.00000000000E+00 -0.11381565029E+03  0.11381565029E+03  0.00000000000E+00 0.  1.
         23    2    1    2    0    0  0.61500492747E+01 -0.48123350558E+02  0.10948599709E+02  0.10406936504E+03  0.91415977424E+02 0.  0.
          5    1    1    2  502    0  0.58099779562E+02  0.14285832951E+02 -0.99710139255E+01  0.60799366172E+02  0.41800000000E+01 0. -1.
         -5    1    1    2    0  502 -0.64249828836E+02  0.33837517607E+02  0.96303744544E+01  0.73370529611E+02  0.41800000000E+01 0. -1.
        -11    1    3    3    0    0 -0.31830616141E+02 -0.51588154041E+02  0.21797702300E+02  0.64417898032E+02  0.00000000000E+00 0. -1.
         11    1    3    3    0    0  0.37980665415E+02  0.34648034828E+01 -0.10849102591E+02  0.39651467004E+02  0.00000000000E+00 0.  1.
</event>
<event>
 7    1  0.6145388E-006  0.9775385E+02  0.7561462E-02  0.1285091E+00
          2   -1    0    0  501    0  0.00000000000E+00  0.00000000000E+00  0.30926738668E+03  0.30926738668E+03  0.00000000000E+00 0. -1.
         -2   -1    0    0    0  501 -0.00000000000E+00 -0.00000000000E+00 -0.53888823900E+02  0.53888823900E+02  0.00000000000E+00 0.  1.
         23    2    1    2    0    0  0.49359544706E+02  0.22622186696E+02  0.17120572844E+03  0.20290572113E+03  0.94399164351E+02 0.  0.
          5    1    1    2  502    0  0.27767683192E+02 -0.46264746266E+02  0.45440748894E+02  0.70666859538E+02  0.41800000000E+01 0. -1.
         -5    1    1    2    0  502 -0.77127227898E+02  0.23642559570E+02  0.38732085446E+02  0.89583629918E+02  0.41800000000E+01 0. -1.
        -11    1    3    3    0    0  0.21499957998E+02  0.24611252875E+02  0.34733235906E+01  0.32863748094E+02  0.00000000000E+00 0.  1.
         11    1    3    3    0    0  0.27859586708E+02 -0.19890661785E+01  0.16773240485E+03  0.17004197303E+03  0.00000000000E+00 0. -1.
</event>
<event>
 7    1  0.6145388E-006  0.1370255E+03  0.7561462E-02  0.1217388E+00
          1   -1    0    0  501    0  0.00000000000E+00  0.00000000000E+00  0.10316003253E+03  0.10316003253E+03  0.00000000000E+00 0. -1.
         -1   -1    0    0    0  501 -0.00000000000E+00 -0.00000000000E+00 -0.23584408487E+03  0.23584408487E+03  0.00000000000E+00 0.  1.
         23    2    1    2    0    0  0.33842914172E+02  0.98051431528E+02 -0.16124719586E+02  0.13902276158E+03  0.91147658175E+02 0.  0.
          5    1    1    2  502    0 -0.45642555668E+02  0.81690420197E+01 -0.68262223276E+02  0.82626749071E+02  0.41800000000E+01 0. -1.
         -5    1    1    2    0  502  0.11799641497E+02 -0.10622047355E+03 -0.48297109484E+02  0.11735460675E+03  0.41800000000E+01 0. -1.
        -11    1    3    3    0    0  0.41966101893E+02  0.28998504844E+02  0.26484678045E+02  0.57476126891E+02  0.00000000000E+00 0. -1.
         11    1    3    3    0    0 -0.81231877214E+01  0.69052926684E+02 -0.42609397630E+02  0.81546634687E+02  0.00000000000E+00 0.  1.
</event>
<event>
 7    1  0.6145388E-006  0.9863094E+02  0.7561462E-02  0.1283202E+00
         -1   -1    0    0    0  501 -0.00000000000E+00  0.00000000000E+00  0.32219175444E+03  0.32219175444E+03  0.00000000000E+00 0.  1.
          1   -1    0    0  501    0  0.00000000000E+00 -0.00000000000E+00 -0.60503828988E+02  0.60503828988E+02  0.00000000000E+00 0. -1.
         23    2    1    2    0    0  0.58080158099E+01  0.56767744455E+02  0.22392620878E+02  0.10671278709E+03  0.87349182032E+02 0.  0.
          5    1    1    2  502    0 -0.18372484244E+01  0.18868010488E+02  0.17634203973E+03  0.17740734110E+03  0.41800000000E+01 0.  1.
         -5    1    1    2    0  502 -0.39707673855E+01 -0.75635754943E+02  0.62953264852E+02  0.98575455236E+02  0.41800000000E+01 0.  1.
        -11    1    3    3    0    0 -0.24473065708E+02  0.65955735384E+02  0.48153082806E+01  0.70514375620E+02  0.00000000000E+00 0. -1.
         11    1    3    3    0    0  0.30281081518E+02 -0.91879909292E+01  0.17577312597E+02  0.36198411475E+02  0.00000000000E+00 0.  1.
</event>
<event>
 7    1  0.6145388E-006  0.1120317E+03  0.7561462E-02  0.1256853E+00
          2   -1    0    0  501    0  0.00000000000E+00  0.00000000000E+00  0.18096730200E+03  0.18096730200E+03  0.00000000000E+00 0. -1.
         -2   -1    0    0    0  501 -0.00000000000E+00 -0.00000000000E+00 -0.11734608685E+03  0.11734608685E+03  0.00000000000E+00 0.  1.
         23    2    1    2    0    0 -0.47515374537E+02  0.65796917394E+02  0.84509645675E+02  0.14774679791E+03  0.90001616231E+02 0.  0.
          5    1    1    2  502    0  0.29878271244E+02 -0.87794037199E+02 -0.53586825757E+02  0.10718919887E+03  0.41800000000E+01 0. -1.
         -5    1    1    2    0  502  0.17637103292E+02  0.21997119804E+02  0.32698395232E+02  0.43377392072E+02  0.41800000000E+01 0. -1.
        -11    1    3    3    0    0  0.33897841590E+01  0.49008234457E+02  0.17645437176E+01  0.49157006578E+02  0.00000000000E+00 0.  1.
         11    1    3    3    0    0 -0.50905158696E+02  0.16788682938E+02  0.82745101957E+02  0.98589791330E+02  0.00000000000E+00 0. -1.
</event>
<event>
 7    1  0.6145388E-006  0.1004216E+03  0.7561462E-02  0.1279412E+00
         -3   -1    0    0    0  501 -0.00000000000E+00  0.00000000000E+00  0.16238052141E+03  0.16238052141E+03  0.00000000000E+00 0.  1.
          3   -1    0    0  501    0  0.00000000000E+00 -0.00000000000E+00 -0.86648945846E+02  0.86648945846E+02  0.00000000000E+00 0. -1.
         23    2    1    2    0    0  0.40114279938E+01 -0.40684540085E+02  0.63478205130E+01  0.10010907514E+03  0.91160346330E+02 0.  0.
          5    1    1    2  502    0  0.41700410320E+01 -0.30315276200E+02 -0.18161869663E+02  0.35829193724E+02  0.41800000000E+01 0.  1.
         -5    1    1    2    0  502 -0.81814690258E+01  0.70999816285E+02  0.87545624710E+02  0.11309119839E+03  0.41800000000E+01 0.  1.
        -11    1    3    3    0    0 -0.34847958472E+01 -0.68993731987E+02  0.12451565823E+02  0.70194874080E+02  0.00000000000E+00 0. -1.
         11    1    3    3    0    0  0.74962238410E+01  0.28309191902E+02 -0.61037453104E+01  0.29914201056E+02  0.00000000000E+00 0.  1.
</event>
<event>
 7    1  0.6145388E-006  0.1207437E+03  0.7561462E-02  0.1241875E+00
         -1   -1    0    0    0  501 -0.00000000000E+00  0.00000000000E+00  0.42436543583E+02  0.42436543583E+02  0.00000000000E+00 0.  1.
          1   -1    0    0  501    0  0.00000000000E+00 -0.00000000000E+00 -0.36414546617E+03  0.36414546617E+03  0.00000000000E+00 0. -1.
         23    2    1    2    0    0 -0.39193677038E+02  0.46393252902E+02 -0.17555529341E+03  0.20484993334E+03  0.86344402898E+02 0.  0.
          5    1    1    2  502    0  0.14343796653E+02  0.42936558724E+02 -0.58311169774E+02  0.73938876769E+02  0.41800000000E+01 0. -1.
         -5    1    1    2    0  502  0.24849880385E+02 -0.89329811626E+02 -0.87842459403E+02  0.12779319964E+03  0.41800000000E+01 0. -1.
        -11    1    3    3    0    0 -0.75579658765E+01  0.65709774748E+02 -0.13209551438E+03  0.14772989631E+03  0.00000000000E+00 0. -1.
         11    1    3    3    0    0 -0.31635711161E+02 -0.19316521845E+02 -0.43459779028E+02  0.57120037027E+02  0.00000000000E+00 0.  1.
</event>
<event>
 7    1  0.6145388E-006  0.1030718E+03  0.7561462E-02  0.1273966E+00
          1   -1    0    0  501    0  0.00000000000E+00  0.00000000000E+00  0.29252701679E+03  0.29252701679E+03  0.00000000000E+00 0. -1.
         -1   -1    0    0    0  501 -0.00000000000E+00 -0.00000000000E+00 -0.44781927746E+02  0.44781927746E+02  0.00000000000E+00 0.  1.
         23    2    1    2    0    0 -0.23219156106E+02 -0.13520114558E+02  0.14430198848E+03  0.17277976072E+03  0.91147458142E+02 0.  0.
          5    1    1    2  502    0  0.58061969990E+02 -0.24214731811E+02  0.19434101343E+02  0.65975012625E+02  0.41800000000E+01 0.  1.
         -5    1    1    2    0  502 -0.34842813885E+02  0.37734846369E+02  0.84008999216E+02  0.98554171191E+02  0.41800000000E+01 0.  1.
        -11    1    3    3    0    0  0.32927717228E+02 -0.13041431253E+02  0.79525341066E+02  0.87055116808E+02  0.00000000000E+00 0. -1.
         11    1    3    3    0    0 -0.56146873333E+02 -0.47868330508E+00  0.64776647417E+02  0.85724643909E+02  0.00000000000E+00 0.  1.
</event>
<event>
 7    1  0.6145388E-006  0.6922295E+02  0.7561462E-02  0.1362756E+00
         -2   -1    0    0    0  501 -0.00000000000E+00  0.00000000000E+00  0.14420414874E+03  0.14420414874E+03  0.00000000000E+00 0. -1.
          2   -1    0    0  501    0  0.00000000000E+00 -0.00000000000E+00 -0.14278004588E+03  0.14278004588E+03  0.00000000000E+00 0.  1.
         23    2    1    2    0    0 -0.22299244352E+02 -0.20145808753E+02 -0.86840758723E+02  0.13096790457E+03  0.93317547888E+02 0.  0.
          5    1    1    2  502    0  0.39897147635E+02  0.20891412742E+02  0.11508760079E+03  0.12365622415E+03  0.41800000000E+01 0.  1.
         -5    1    1    2    0  502 -0.17597903284E+02 -0.74560398871E+00 -0.26822739216E+02  0.32360065889E+02  0.41800000000E+01 0.  1.
        -11    1    3    3    0    0 -0.17415163327E+01  0.25234188814E+02  0.56459747047E+01  0.25916677924E+02  0.00000000000E+00 0. -1.
         11    1    3    3    0    0 -0.20557728019E+02 -0.45379997567E+02 -0.92486733428E+02  0.10505122665E+03  0.00000000000E+00 0.  1.
</event>
<event>
 7    1  0.6145388E-006  0.1069894E+03  0.7561462E-02  0.1266249E+00
         -2   -1    0    0    0  501 -0.00000000000E+00  0.00000000000E+00  0.31747935584E+03  0.31747935584E+03  0.00000000000E+00 0.  1.
          2   -1    0    0  501    0  0.00000000000E+00 -0.00000000000E+00 -0.91895118375E+02  0.91895118375E+02  0.00000000000E+00 0. -1.
         23    2    1    2    0    0  0.13496899632E+02  0.22382066216E+02 -0.16110000074E+02  0.96514654171E+02  0.91500946331E+02 0.  0.
          5    1    1    2  502    0 -0.64842417905E+02 -0.16381197078E+02  0.13920845190E+01  0.67024570694E+02  0.41800000000E+01 0. -1.
         -5    1    1    2    0  502  0.51345518273E+02 -0.60008691383E+01  0.24030215302E+03  0.24583524935E+03  0.41800000000E+01 0.  1.
        -11    1    3    3    0    0  0.52681474276E+02  0.76091934032E+01 -0.73770520103E+01  0.53736937506E+02  0.00000000000E+00 0. -1.
         11    1    3    3    0    0 -0.39184574644E+02  0.14772872813E+02 -0.87329480638E+01  0.42777716665E+02  0.00000000000E+00 0.  1.
</event>
<event>
 7    1  0.6145388E-006  0.1165099E+03  0.7561462E-02  0.1248968E+00
          2   -1    0    0  501    0  0.00000000000E+00  0.00000000000E+00  0.25715954980E+03  0.25715954980E+03  0.00000000000E+00 0.  1.
         -2   -1    0    0    0  501 -0.00000000000E+00 -0.00000000000E+00 -0.58854310777E+02  0.58854310777E+02  0.00000000000E+00 0. -1.
         23    2    1    2    0    0  0.51547639297E+02 -0.26481510021E+02  0.91163661671E+02  0.14141238063E+03  0.91259074596E+02 0.  0.
          5    1    1    2  502    0 -0.16149239880E+02  0.68341686102E+02  0.22853542170E+02  0.73967160265E+02  0.41800000000E+01 0.  1.
         -5    1    1    2    0  502 -0.35398399416E+02 -0.41860176081E+02  0.84288035179E+02  0.10063431968E+03  0.41800000000E+01 0.  1.
        -11    1    3    3    0    0  0.10938910377E+02  0.33508919892E+02  0.35757394913E+02  0.50210544346E+02  0.00000000000E+00 0.  1.
         11    1    3    3    0    0  0.40608728920E+02 -0.59990429912E+02  0.55406266757E+02  0.91201836284E+02  0.00000000000E+00 0. -1.
</event>
<event>
 7    1  0.6145388E-006  0.1634551E+03  0.7561462E-02  0.1184850E+00
          1   -1    0    0  501    0  0.00000000000E+00  0.00000000000E+00  0.75746392016E+03  0.75746392016E+03  0.00000000000E+00 0. -1.
         -1   -1    0    0    0  501 -0.00000000000E+00 -0.00000000000E+00 -0.39898257977E+02  0.39898257977E+02  0.00000000000E+00 0.  1.
         23    2    1    2    0    0 -0.94611333608E+02 -0.79421438314E+02  0.46369228484E+03  0.48855937034E+03  0.91764121590E+02 0.  0.
          5    1    1    2  502    0  0.43458826508E+02 -0.30463111057E+02  0.60957864174E+02  0.80932097103E+02  0.41800000000E+01 0. -1.
         -5    1    1    2    0  502  0.51152507100E+02  0.10988454937E+03  0.19291551316E+03  0.22787071069E+03  0.41800000000E+01 0. -1.
        -11    1    3    3    0    0 -0.37914502728E+02 -0.87276120687E+02  0.32126617241E+03  0.33506206036E+03  0.00000000000E+00 0.  1.
         11    1    3    3    0    0 -0.56696830880E+02  0.78546823730E+01  0.14242611244E+03  0.15349730998E+03  0.00000000000E+00 0. -1.
</event>
<event>
 7    1  0.6145388E-006  0.8283367E+02  0.7561462E-02  0.1321197E+00
          1   -1    0    0  501    0  0.00000000000E+00  0.00000000000E+00  0.33799387073E+03  0.33799387073E+03  0.00000000000E+00 0. -1.
         -1   -1    0    0    0  501 -0.00000000000E+00 -0.00000000000E+00 -0.67797664477E+02  0.67797664477E+02  0.00000000000E+00 0.  1.
         23    2    1    2    0    0 -0.23439762330E+02 -0.54123510547E+02  0.23027955687E+03  0.25615954443E+03  0.95447687444E+02 0.  0.
          5    1    1    2  502    0  0.43524294908E+01  0.38375445316E+00  0.79727563584E+02  0.79956536349E+02  0.41800000000E+01 0.  1.
         -5    1    1    2    0  502  0.19087332839E+02  0.53739756094E+02 -0.39810914201E+02  0.69675454426E+02  0.41800000000E+01 0.  1.
        -11    1    3    3    0    0 -0.19873989875E+02  0.20020036344E+02  0.11967908300E+03  0.12295877454E+03  0.00000000000E+00 0.  1.
         11    1    3    3    0    0 -0.35657724556E+01 -0.74143546891E+02  0.11060047386E+03  0.13320076988E+03  0.00000000000E+00 0. -1.
</event>
<event>
 7    1  0.6145388E-006  0.1053810E+03  0.7561462E-02  0.1269371E+00
          2   -1    0    0  501    0  0.00000000000E+00  0.00000000000E+00  0.35184435954E+02  0.35184435954E+02  0.00000000000E+00 0. -1.
         -2   -1    0    0    0  501 -0.00000000000E+00 -0.00000000000E+00 -0.55892115738E+03  0.55892115738E+03  0.00000000000E+00 0.  1.
         23    2    1    2    0    0 -0.42985718376E+02 -0.14214113952E+02 -0.77322495432E+02  0.12829214821E+03  0.91816632326E+02 0.  0.
          5    1    1    2  502    0 -0.34126696267E+02 -0.28387009729E+02 -0.16352658540E+03  0.16949592990E+03  0.41800000000E+01 0.  1.
         -5    1    1    2    0  502  0.77112414643E+02  0.42601123681E+02 -0.28288764060E+03  0.29631751523E+03  0.41800000000E+01 0.  1.
        -11    1    3    3    0    0 -0.12636932935E+02  0.25225879343E+02 -0.73091001269E+02  0.78347504932E+02  0.00000000000E+00 0.  1.
         11    1    3    3    0    0 -0.30348785441E+02 -0.39439993295E+02 -0.42314941630E+01  0.49944643274E+02  0.00000000000E+00 0. -1.
</event>
<event>
 7    1  0.6145388E-006  0.7103147E+02  0.7561462E-02  0.1356620E+00
          2   -1    0    0  501    0  0.00000000000E+00  0.00000000000E+00  0.64327096063E+03  0.64327096063E+03  0.00000000000E+00 0. -1.
         -2   -1    0    0    0  501 -0.00000000000E+00 -0.00000000000E+00 -0.26171629906E+02  0.26171629906E+02  0.00000000000E+00 0.  1.
         23    2    1    2    0    0 -0.25889461410E+02  0.45845314868E+02  0.40239605584E+03  0.41544163110E+03  0.88865662608E+02 0.  0.
          5    1    1    2  502    0  0.65156221179E+01 -0.77483743498E+01 -0.15969611202E+02  0.19364697741E+02  0.41800000000E+01 0.  1.
         -5    1    1    2    0  502  0.19373839292E+02 -0.38096940518E+02  0.23067288608E+03  0.23463626169E+03  0.41800000000E+01 0.  1.
        -11    1    3    3    0    0 -0.49507674303E+02  0.40469863076E+02  0.36713817558E+03  0.37266507698E+03  0.00000000000E+00 0. -1.
         11    1    3    3    0    0  0.23618212893E+02  0.53754517925E+01  0.35257880260E+02  0.42776554123E+02  0.00000000000E+00 0.  1.
</event>
<event>
 7    1  0.6145388E-006  0.2442016E+03  0.7561462E-02  0.1117025E+00
          2   -1    0    0  501    0  0.00000000000E+00  0.00000000000E+00  0.44347619922E+03  0.44347619922E+03  0.00000000000E+00 0. -1.
         -2   -1    0    0    0  501 -0.00000000000E+00 -0.00000000000E+00 -0.15197301957E+03  0.15197301957E+03  0.00000000000E+00 0.  1.
         23    2    1    2    0    0  0.19532075637E+03 -0.11088697241E+03  0.22423524392E+03  0.32970746534E+03  0.89327764809E+02 0.  0.
          5    1    1    2  502    0  0.94589689372E+01 -0.51972659650E+01  0.23613873803E+02  0.26297739501E+02  0.41800000000E+01 0.  1.
         -5    1    1    2    0  502 -0.20477972530E+03  0.11608423838E+03  0.43654061938E+02  0.23944401395E+03  0.41800000000E+01 0.  1.
        -11    1    3    3    0    0  0.44766986802E+02  0.12790683606E+02  0.36778407597E+02  0.59332419130E+02  0.00000000000E+00 0.  1.
         11    1    3    3    0    0  0.15055376956E+03 -0.12367765602E+03  0.18745683632E+03  0.27037504621E+03  0.00000000000E+00 0. -1.
</event>
<event>
 7    1  0.6145388E-006  0.2273197E+03  0.7561462E-02  0.1128541E+00
         -2   -1    0    0    0  501 -0.00000000000E+00  0.00000000000E+00  0.15552835587E+03  0.15552835587E+03  0.00000000000E+00 0.  1.
          2   -1    0    0  501    0  0.00000000000E+00 -0.00000000000E+00 -0.39578943174E+03  0.39578943174E+03  0.00000000000E+00 0. -1.
         23    2    1    2    0    0  0.87565300061E+02 -0.20370440531E+03 -0.13926220336E+03  0.27743529143E+03  0.91723569104E+02 0.  0.
          5    1    1    2  502    0 -0.77280845688E+01  0.53768469625E+02  0.27327241987E+02  0.60950981711E+02  0.41800000000E+01 0. -1.
         -5    1    1    2    0  502 -0.79837215493E+02  0.14993593569E+03 -0.12832611450E+03  0.21293151446E+03  0.41800000000E+01 0. -1.
        -11    1    3    3    0    0  0.14953855809E+02 -0.11331246150E+03 -0.30107846417E+02  0.11819396833E+03  0.00000000000E+00 0.  1.
         11    1    3    3    0    0  0.72611444252E+02 -0.90391943813E+02 -0.10915435694E+03  0.15924132310E+03  0.00000000000E+00 0. -1.
</event>
<event>
 7    1  0.6145388E-006  0.1533370E+03  0.7561462E-02  0.1196431E+00
          1   -1    0    0  501    0  0.00000000000E+00  0.00000000000E+00  0.18150515594E+03  0.18150515594E+03  0.00000000000E+00 0. -1.
         -1   -1    0    0    0  501 -0.00000000000E+00 -0.00000000000E+00 -0.15659753563E+03  0.15659753563E+03  0.00000000000E+00 0.  1.
         23    2    1    2    0    0  0.73568803228E+02  0.95694739031E+02  0.55719429392E+02  0.16156082161E+03  0.91800829960E+02 0.  0.
          5    1    1    2  502    0 -0.57770527763E+02  0.10421690677E+02  0.13515957510E+02  0.60383764556E+02  0.41800000000E+01 0. -1.
         -5    1    1    2    0  502 -0.15798275466E+02 -0.10611642971E+03 -0.44327766592E+02  0.11615810541E+03  0.41800000000E+01 0. -1.
        -11    1    3    3    0    0  0.42114988412E+02  0.10018984836E+03  0.14694236154E+02  0.10967040868E+03  0.00000000000E+00 0.  1.
         11    1    3    3    0    0  0.31453814816E+02 -0.44951093275E+01  0.41025193238E+02  0.51890412935E+02  0.00000000000E+00 0. -1.
</event>
<event>
 7    1  0.6145388E-006  0.1239507E+03  0.7561462E-02  0.1236718E+00
          1   -1    0    0  501    0  0.00000000000E+00  0.00000000000E+00  0.21121188855E+02  0.21121188855E+02  0.00000000000E+00 0. -1.
         -1   -1    0    0    0  501 -0.00000000000E+00 -0.00000000000E+00 -0.82450096571E+03  0.82450096571E+03  0.00000000000E+00 0.  1.
         23    2    1    2    0    0 -0.35680272664E+02  0.58826113311E+02 -0.27156415735E+03  0.29497802226E+03  0.92365299739E+02 0.  0.
          5    1    1    2  502    0 -0.11561191307E+02 -0.86687572432E+02 -0.31215848868E+03  0.32420485933E+03  0.41800000000E+01 0.  1.
         -5    1    1    2    0  502  0.47241463971E+02  0.27861459121E+02 -0.21965713082E+03  0.22643927297E+03  0.41800000000E+01 0.  1.
        -11    1    3    3    0    0  0.17023552169E+02  0.48811846200E+02 -0.74060176853E+02  0.90317813599E+02  0.00000000000E+00 0. -1.
         11    1    3    3    0    0 -0.52703824833E+02  0.10014267112E+02 -0.19750398050E+03  0.20466020867E+03  0.00000000000E+00 0.  1.
</event>
<event>
 7    1  0.6145388E-006  0.1356304E+03  0.7561462E-02  0.1219332E+00
         -1   -1    0    0    0  501 -0.00000000000E+00  0.00000000000E+00  0.65049647163E+02  0.65049647163E+02  0.00000000000E+00 0.  1.
          1   -1    0    0  501    0  0.00000000000E+00 -0.00000000000E+00 -0.32275271988E+03  0.32275271988E+03  0.00000000000E+00 0. -1.
         23    2    1    2    0    0 -0.33154220076E+02 -0.90144626752E+02 -0.12087339894E+03  0.17900801136E+03  0.90599301971E+02 0.  0.
          5    1    1    2  502    0  0.64514289602E+02  0.11979337455E+02 -0.28880125381E+02  0.71813175189E+02  0.41800000000E+01 0.  1.
         -5    1    1    2    0  502 -0.31360069526E+02  0.78165289296E+02 -0.10794954839E+03  0.13698118050E+03  0.41800000000E+01 0.  1.
        -11    1    3    3    0    0 -0.11082571690E+02 -0.97341393207E+02 -0.12113111318E+03  0.15579126037E+03  0.00000000000E+00 0. -1.
         11    1    3    3    0    0 -0.22071648385E+02  0.71967664556E+01  0.25771423933E+00  0.23216750989E+02  0.00000000000E+00 0.  1.
</event>
<event>
 7    1  0.6145388E-006  0.1163816E+03  0.7561462E-02  0.1249188E+00
         -1   -1    0    0    0  501 -0.00000000000E+00  0.00000000000E+00  0.82524249164E+02  0.82524249164E+02  0.00000000000E+00 0.  1.
          1   -1    0    0  501    0  0.00000000000E+00 -0.00000000000E+00 -0.27295106891E+03  0.27295106891E+03  0.00000000000E+00 0. -1.
         23    2    1    2    0    0  0.77783601503E+02 -0.37683363477E+02 -0.15151199429E+03  0.19852936458E+03  0.94803479045E+02 0.  0.
          5    1    1    2  502    0 -0.25321034951E+02 -0.28705721407E+02 -0.58460061092E+02  0.70001602806E+02  0.41800000000E+01 0.  1.
         -5    1    1    2    0  502 -0.52462566552E+02  0.66389084883E+02  0.19545235640E+02  0.86944350691E+02  0.41800000000E+01 0.  1.
        -11    1    3    3    0    0  0.61452054660E+01  0.17861991755E+02  0.32559648425E+01  0.19168088239E+02  0.00000000000E+00 0.  1.
         11    1    3    3    0    0  0.71638396037E+02 -0.55545355232E+02 -0.15476795914E+03  0.17936127634E+03  0.00000000000E+00 0. -1.
</event>
<event>
 7    1  0.6145388E-006  0.1127774E+03  0.7561462E-02  0.1255511E+00
         -2   -1    0    0    0  501 -0.00000000000E+00  0.00000000000E+00  0.64348438608E+02  0.64348438608E+02  0.00000000000E+00 0.  1.
          2   -1    0    0  501    0  0.00000000000E+00 -0.00000000000E+00 -0.27802894563E+03  0.27802894563E+03  0.00000000000E+00 0. -1.
         23    2    1    2    0    0  0.70247687962E+02 -0.10857467488E+02 -0.14385381265E+03  0.18245380147E+03  0.86849571062E+02 0.  0.
          5    1    1    2  502    0 -0.62384779897E+02  0.48230312550E+02  0.14205557395E+01  0.78977934830E+02  0.41800000000E+01 0. -1.
         -5    1    1    2    0  502 -0.78629080656E+01 -0.37372845061E+02 -0.71247250112E+02  0.80945647936E+02  0.41800000000E+01 0. -1.
        -11    1    3    3    0    0  0.52893837266E+02 -0.45275597478E+02 -0.67763392565E+02  0.97157167103E+02  0.00000000000E+00 0.  1.
         11    1    3    3    0    0  0.17353850697E+02  0.34418129990E+02 -0.76090420085E+02  0.85296634370E+02  0.00000000000E+00 0. -1.
</event>
<event>
 7    1  0.6145388E-006  0.9708166E+02  0.7561462E-02  0.1286555E+00
          2   -1    0    0  501    0  0.00000000000E+00  0.00000000000E+00  0.27891999935E+03  0.27891999935E+03  0.00000000000E+00 0. -1.
         -2   -1    0    0    0  501 -0.00000000000E+00 -0.00000000000E+00 -0.60415614326E+02  0.60415614326E+02  0.00000000000E+00 0.  1.
         23    2    1    2    0    0 -0.45069775446E+02  0.31782089118E+02  0.15205101623E+03  0.18732603174E+03  0.94499443295E+02 0.  0.
          5    1    1    2  502    0  0.55639625059E+02 -0.44363307653E+02 -0.11524963244E+02  0.72209196924E+02  0.41800000000E+01 0. -1.
         -5    1    1    2    0  502 -0.10569849613E+02  0.12581218535E+02  0.77978332041E+02  0.79800385015E+02  0.41800000000E+01 0. -1.
        -11    1    3    3    0    0  0.16450288827E+02 -0.19728444647E+02  0.59673505276E+02  0.64967305336E+02  0.00000000000E+00 0. -1.
         11    1    3    3    0    0 -0.61520064274E+02  0.51510533765E+02  0.92377510953E+02  0.12235872640E+03  0.00000000000E+00 0.  1.
</event>
<event>
 7    1  0.6145388E-006  0.1121573E+03  0.7561462E-02  0.1256626E+00
         -2   -1    0    0    0  501 -0.00000000000E+00  0.00000000000E+00  0.34485469479E+02  0.34485469479E+02  0.00000000000E+00 0.  1.
          2   -1    0    0  501    0  0.00000000000E+00 -0.00000000000E+00 -0.47992502412E+03  0.47992502412E+03  0.00000000000E+00 0. -1.
         23    2    1    2    0    0  0.10506596423E+02 -0.56767363167E+02 -0.27373013281E+03  0.29426547043E+03  0.91274637177E+02 0.  0.
          5    1    1    2  502    0 -0.54528991384E+02  0.65534686221E+02 -0.14349534696E+03  0.16696284916E+03  0.41800000000E+01 0.  1.
         -5    1    1    2    0  502  0.44022394961E+02 -0.87673230542E+01 -0.28214074876E+02  0.53182174013E+02  0.41800000000E+01 0.  1.
        -11    1    3    3    0    0 -0.30510958590E+02 -0.11034538795E+02 -0.17500699395E+03  0.17798912207E+03  0.00000000000E+00 0. -1.
         11    1    3    3    0    0  0.41017555013E+02 -0.45732824372E+02 -0.98723138854E+02  0.11627634837E+03  0.00000000000E+00 0.  1.
</event>
<event>
 7    1  0.6145388E-006  0.1782897E+03  0.7561462E-02  0.1169469E+00
         -1   -1    0    0    0  501 -0.00000000000E+00  0.00000000000E+00  0.20243014669E+03  0.20243014669E+03  0.00000000000E+00 0.  1.
          1   -1    0    0  501    0  0.00000000000E+00 -0.00000000000E+00 -0.19479064763E+03  0.19479064763E+03  0.00000000000E+00 0. -1.
         23    2    1    2    0    0  0.35591107587E+02 -0.14286724602E+03 -0.73721196657E+02  0.18759562102E+03  0.89886179492E+02 0.  0.
          5    1    1    2  502    0  0.42189997345E+02  0.27818565523E+02  0.40227000782E+02  0.64726752241E+02  0.41800000000E+01 0. -1.
         -5    1    1    2    0  502 -0.77781104932E+02  0.11504868050E+03  0.41133694930E+02  0.14489842107E+03  0.41800000000E+01 0. -1.
        -11    1    3    3    0    0 -0.40291930735E+01 -0.12216378551E+03 -0.31772192780E+02  0.12629211029E+03  0.00000000000E+00 0.  1.
         11    1    3    3    0    0  0.39620300661E+02 -0.20703460512E+02 -0.41949003877E+02  0.61303510731E+02  0.00000000000E+00 0. -1.
</event>
<event>
 7    1  0.6145388E-006  0.1342629E+03  0.7561462E-02  0.1221264E+00
          1   -1    0    0  501    0  0.00000000000E+00  0.00000000000E+00  0.12456642350E+03  0.12456642350E+03  0.00000000000E+00 0.  1.
         -1   -1    0    0    0  501 -0.00000000000E+00 -0.00000000000E+00 -0.14805693190E+03  0.14805693190E+03  0.00000000000E+00 0. -1.
         23    2    1    2    0    0 -0.16748171664E+02 -0.78483936639E+02  0.37007652658E+01  0.12153939906E+03  0.91202523515E+02 0.  0.
          5    1    1    2  502    0 -0.64280610692E+01 -0.32709603529E+02  0.22536451102E+01  0.33671790098E+02  0.41800000000E+01 0. -1.
         -5    1    1    2    0  502  0.23176232733E+02  0.11119354017E+03 -0.29444918776E+02  0.11741216624E+03  0.41800000000E+01 0. -1.
        -11    1    3    3    0    0  0.33766560272E+01  0.20237708065E+02 -0.20738649303E+01  0.20622016133E+02  0.00000000000E+00 0.  1.
         11    1    3    3    0    0 -0.20124827691E+02 -0.98721644704E+02  0.57746301961E+01  0.10091738293E+03  0.00000000000E+00 0. -1.
</event>
<event>
 7    1  0.6145388E-006  0.8611120E+02  0.7561462E-02  0.1312552E+00
         -3   -1    0    0    0  501 -0.00000000000E+00  0.00000000000E+00  0.29874850797E+03  0.29874850797E+03  0.00000000000E+00 0.  1.
          3   -1    0    0  501    0  0.00000000000E+00 -0.00000000000E+00 -0.69164493368E+02  0.69164493368E+02  0.00000000000E+00 0. -1.
         23    2    1    2    0    0  0.72330749918E+01 -0.32963716097E+02  0.20786590347E+01  0.95743447881E+02  0.89574343626E+02 0.  0.
          5    1    1    2  502    0 -0.40224463034E+02 -0.34900971963E+02  0.31301883503E+02  0.61914179161E+02  0.41800000000E+01 0. -1.
         -5    1    1    2    0  502  0.32991388043E+02  0.67864688060E+02  0.19620347207E+03  0.21025537430E+03  0.41800000000E+01 0.  1.
        -11    1    3    3    0    0 -0.96101434159E+01 -0.19225432258E+02  0.43749749394E+02  0.48744360433E+02  0.00000000000E+00 0.  1.
         11    1    3    3    0    0  0.16843218408E+02 -0.13738283839E+02 -0.41671090359E+02  0.46999087448E+02  0.00000000000E+00 0. -1.
</event>
<event>
 7    1  0.6145388E-006  0.1129755E+03  0.7561462E-02  0.1255157E+00
          1   -1    0    0  501    0  0.00000000000E+00  0.00000000000E+00  0.82885037479E+03  0.82885037479E+03  0.00000000000E+00 0. -1.
         -1   -1    0    0    0  501 -0.00000000000E+00 -0.00000000000E+00 -0.16352321326E+02  0.16352321326E+02  0.00000000000E+00 0.  1.
         23    2    1    2    0    0  0.27746738202E+02 -0.22043699259E+02  0.43481805340E+03  0.44577124378E+03  0.91593973908E+02 0.  0.
          5    1    1    2  502    0 -0.76501878770E+02  0.35685654025E+01  0.19961426736E+03  0.21384246596E+03  0.41800000000E+01 0.  1.
         -5    1    1    2    0  502  0.48755140568E+02  0.18475133856E+02  0.17806573270E+03  0.18558898638E+03  0.41800000000E+01 0.  1.
        -11    1    3    3    0    0  0.14188524284E+02  0.35287907489E+02  0.20660924034E+03  0.21008076740E+03  0.00000000000E+00 0.  1.
         11    1    3    3    0    0  0.13558213918E+02 -0.57331606748E+02  0.22820881306E+03  0.23569047638E+03  0.00000000000E+00 0. -1.
</event>
<event>
 7    1  0.6145388E-006  0.1290729E+03  0.7561462E-02  0.1228838E+00
         -2   -1    0    0    0  501 -0.00000000000E+00  0.00000000000E+00  0.12256766331E+03  0.12256766331E+03  0.00000000000E+00 0. -1.
          2   -1    0    0  501    0  0.00000000000E+00 -0.00000000000E+00 -0.15359755180E+03  0.15359755180E+03  0.00000000000E+00 0.  1.
         23    2    1    2    0    0  0.25022289117E+02 -0.76107959501E+02 -0.66735108897E+01  0.12563393960E+03  0.96544365864E+02 0.  0.
          5    1    1    2  502    0 -0.65738055437E+01 -0.33858359706E+02  0.51297510065E+01  0.35119655276E+02  0.41800000000E+01 0.  1.
         -5    1    1    2    0  502 -0.18448483573E+02  0.10996631921E+03 -0.29486128603E+02  0.11541162024E+03  0.41800000000E+01 0.  1.
        -11    1    3    3    0    0 -0.24409612790E+02 -0.50636577258E+02  0.25128745903E+02  0.61573907003E+02  0.00000000000E+00 0. -1.
         11    1    3    3    0    0  0.49431901906E+02 -0.25471382243E+02 -0.31802256792E+02  0.64060032598E+02  0.00000000000E+00 0.  1.
</event>
<event>
 7    1  0.6145388E-006  0.1062752E+03  0.7561462E-02  0.1267627E+00
          2   -1    0    0  501    0  0.00000000000E+00  0.00000000000E+00  0.11000803495E+03  0.11000803495E+03  0.00000000000E+00 0. -1.
         -2   -1    0    0    0  501 -0.00000000000E+00 -0.00000000000E+00 -0.17708415018E+03  0.17708415018E+03  0.00000000000E+00 0.  1.
         23    2    1    2    0    0  0.44654873296E+02  0.75214490340E+02 -0.19886708377E+02  0.12623626054E+03  0.88819114159E+02 0.  0.
          5    1    1    2  502    0 -0.11243909726E+01 -0.40914148301E+02  0.40050055296E+02  0.57416993263E+02  0.41800000000E+01 0. -1.
         -5    1    1    2    0  502 -0.43530482324E+02 -0.34300342039E+02 -0.87239462149E+02  0.10343893131E+03  0.41800000000E+01 0.  1.
        -11    1    3    3    0    0  0.49689052585E+01 -0.15787577020E+02 -0.21265728786E+02  0.26947519894E+02  0.00000000000E+00 0.  1.
         11    1    3    3    0    0  0.39685968038E+02  0.91002067359E+02  0.13790204095E+01  0.99288740651E+02  0.00000000000E+00 0. -1.
</event>
<event>
 7    1  0.6145388E-006  0.9214374E+02  0.7561462E-02  0.1297742E+00
          1   -1    0    0  501    0  0.00000000000E+00  0.00000000000E+00  0.53430443120E+03  0.53430443120E+03  0.00000000000E+00 0. -1.
         -1   -1    0    0    0  501 -0.00000000000E+00 -0.00000000000E+00 -0.49405944910E+02  0.49405944910E+02  0.00000000000E+00 0.  1.
         23    2    1    2    0    0  0.74751340781E+02 -0.51818653561E+01  0.39397873360E+03  0.41185579397E+03  0.93762134224E+02 0.  0.
          5    1    1    2  502    0 -0.17367167152E+02  0.20344940833E+02 -0.27957349584E+02  0.38918130840E+02  0.41800000000E+01 0. -1.
         -5    1    1    2    0  502 -0.57384173628E+02 -0.15163075476E+02  0.11887710227E+03  0.13293645130E+03  0.41800000000E+01 0. -1.
        -11    1    3    3    0    0  0.39837060173E+01  0.21661656979E+02  0.18320234838E+02  0.28648355995E+02  0.00000000000E+00 0.  1.
         11    1    3    3    0    0  0.70767634764E+02 -0.26843522335E+02  0.37565849877E+03  0.38320743797E+03  0.00000000000E+00 0. -1.
</event>
<event>
 7    1  0.6145388E-006  0.9638944E+02  0.7561462E-02  0.1288077E+00
          2   -1    0    0  501    0  0.00000000000E+00  0.00000000000E+00  0.18580577060E+03  0.18580577060E+03  0.00000000000E+00 0. -1.
         -2   -1    0    0    0  501 -0.00000000000E+00 -0.00000000000E+00 -0.83108400785E+02  0.83108400785E+02  0.00000000000E+00 0.  1.
         23    2    1    2    0    0 -0.45663786647E+01 -0.43288458264E+01  0.54268981363E+02  0.10623820930E+03  0.91114455809E+02 0.  0.
          5    1    1    2  502    0  0.27573928379E+02 -0.41525324868E+02  0.85628107936E+02  0.99168137021E+02  0.41800000000E+01 0. -1.
         -5    1    1    2    0  502 -0.23007549714E+02  0.45854170695E+02 -0.37199719485E+02  0.63507825059E+02  0.41800000000E+01 0.  1.
        -11    1    3    3    0    0  0.41297031324E+02 -0.15449788129E+02  0.27909432703E+02  0.52183112050E+02  0.00000000000E+00 0.  1.
         11    1    3    3    0    0 -0.45863409989E+02  0.11120942302E+02  0.26359548661E+02  0.54055097254E+02  0.00000000000E+00 0. -1.
</event>
<event>
 7    1  0.6145388E-006  0.1150005E+03  0.7561462E-02  0.1251580E+00
          2   -1    0    0  501    0  0.00000000000E+00  0.00000000000E+00  0.40678752111E+03  0.40678752111E+03  0.00000000000E+00 0. -1.
         -2   -1    0    0    0  501 -0.00000000000E+00 -0.00000000000E+00 -0.37660527408E+02  0.37660527408E+02  0.00000000000E+00 0.  1.
         23    2    1    2    0    0 -0.48239689875E+02 -0.93836817891E+01  0.21270128940E+03  0.23820968732E+03  0.95325208922E+02 0.  0.
          5    1    1    2  502    0 -0.31384629459E+02  0.37095398992E+02  0.44270817005E+02  0.65866844702E+02  0.41800000000E+01 0.  1.
         -5    1    1    2    0  502  0.79624319334E+02 -0.27711717203E+02  0.11215488730E+03  0.14037151650E+03  0.41800000000E+01 0.  1.
        -11    1    3    3    0    0  0.77403891616E+01  0.28297999318E+02  0.24321253544E+02  0.38107922585E+02  0.00000000000E+00 0.  1.
         11    1    3    3    0    0 -0.55980079037E+02 -0.37681681107E+02  0.18838003586E+03  0.20010176473E+03  0.00000000000E+00 0. -1.
</event>
<event>
 7    1  0.6145388E-006  0.1010603E+03  0.7561462E-02  0.1278082E+00
         -1   -1    0    0    0  501 -0.00000000000E+00  0.00000000000E+00  0.42124355685E+02  0.42124355685E+02  0.00000000000E+00 0.  1.
          1   -1    0    0  501    0  0.00000000000E+00 -0.00000000000E+00 -0.32371444716E+03  0.32371444716E+03  0.00000000000E+00 0. -1.
         23    2    1    2    0    0 -0.29436884006E+02  0.31957502181E+02 -0.13007732631E+03  0.16461422466E+03  0.91048998098E+02 0.  0.
          5    1    1    2  502    0 -0.24052075316E+02  0.37397255063E+02 -0.47940813202E+02  0.65519851829E+02  0.41800000000E+01 0. -1.
         -5    1    1    2    0  502  0.53488959322E+02 -0.69354757244E+02 -0.10357195197E+03  0.13570472636E+03  0.41800000000E+01 0. -1.
        -11    1    3    3    0    0  0.16239608164E+02  0.65725278810E+01  0.62609875698E+01  0.18604380168E+02  0.00000000000E+00 0.  1.
         11    1    3    3    0    0 -0.45676492170E+02  0.25384974300E+02 -0.13633831388E+03  0.14600984449E+03  0.00000000000E+00 0. -1.
</event>
<event>
 7    1  0.6145388E-006  0.8948291E+02  0.7561462E-02  0.1304109E+00
         -2   -1    0    0    0  501 -0.00000000000E+00  0.00000000000E+00  0.89701013085E+02  0.89701013085E+02  0.00000000000E+00 0.  1.
          2   -1    0    0  501    0  0.00000000000E+00 -0.00000000000E+00 -0.14191053701E+03  0.14191053701E+03  0.00000000000E+00 0. -1.
         23    2    1    2    0    0  0.87148337824E+01  0.73672469117E+01 -0.56117000621E+02  0.10594023764E+03  0.89129072343E+02 0.  0.
          5    1    1    2  502    0  0.51375278779E+02 -0.27138020157E+02  0.17518304718E+02  0.60829719775E+02  0.41800000000E+01 0.  1.
         -5    1    1    2    0  502 -0.60090112562E+02  0.19770773245E+02 -0.13610828020E+02  0.64841592684E+02  0.41800000000E+01 0.  1.
        -11    1    3    3    0    0  0.18703102453E+02  0.28415489479E+02  0.10309773110E+02  0.35546272734E+02  0.00000000000E+00 0.  1.
         11    1    3    3    0    0 -0.99882686709E+01 -0.21048242568E+02 -0.66426773731E+02  0.70393964901E+02  0.00000000000E+00 0. -1.
</event>
<event>
 7    1  0.6145388E-006  0.1336233E+03  0.7561462E-02  0.1222176E+00
          1   -1    0    0  501    0  0.00000000000E+00  0.00000000000E+00  0.42745508651E+03  0.42745508651E+03  0.00000000000E+00 0. -1.
         -1   -1    0    0    0  501 -0.00000000000E+00 -0.00000000000E+00 -0.49107341021E+02  0.49107341021E+02  0.00000000000E+00 0.  1.
         23    2    1    2    0    0  0.87622788566E+02  0.15961256054E+02  0.22442593190E+03  0.25914375971E+03  0.94106187460E+02 0.  0.
          5    1    1    2  502    0 -0.20653664003E+02  0.45553548607E+02  0.99286024041E+02  0.11125145661E+03  0.41800000000E+01 0. -1.
         -5    1    1    2    0  502 -0.66969124563E+02 -0.61514804661E+02  0.54635789556E+02  0.10616721122E+03  0.41800000000E+01 0. -1.
        -11    1    3    3    0    0  0.13812195902E+02 -0.34132555638E+02  0.40556954271E+02  0.54778414086E+02  0.00000000000E+00 0.  1.
         11    1    3    3    0    0  0.73810592663E+02  0.50093811692E+02  0.18386897763E+03  0.20436534562E+03  0.00000000000E+00 0. -1.
</event>
<event>
 7    1  0.6145388E-006  0.1266916E+03  0.7561462E-02  0.1232449E+00
         -1   -1    0    0    0  501 -0.00000000000E+00  0.00000000000E+00  0.33646708712E+03  0.33646708712E+03  0.00000000000E+00 0.  1.
          1   -1    0    0  501    0  0.00000000000E+00 -0.00000000000E+00 -0.80178939599E+02  0.80178939599E+02  0.00000000000E+00 0. -1.
         23    2    1    2    0    0  0.68964625702E+02 -0.36664353867E+02 -0.16382043692E+01  0.11953531256E+03  0.90474376446E+02 0.  0.
          5    1    1    2  502    0 -0.99397363223E+02  0.52143932969E+02  0.18401931211E+03  0.21559082817E+03  0.41800000000E+01 0.  1.
         -5    1    1    2    0  502  0.30432737521E+02 -0.15479579102E+02  0.73907039787E+02  0.81519885993E+02  0.41800000000E+01 0.  1.
        -11    1    3    3    0    0  0.67978018281E+02 -0.55527190530E+02  0.20800366869E+02  0.90204961723E+02  0.00000000000E+00 0.  1.
         11    1    3    3    0    0  0.98660742126E+00  0.18862836663E+02 -0.22438571238E+02  0.29330350840E+02  0.00000000000E+00 0. -1.
</event>
<event>
 7    1  0.6145388E-006  0.1112364E+03  0.7561462E-02  0.1258297E+00
          2   -1    0    0  501    0  0.00000000000E+00  0.00000000000E+00  0.19906804846E+03  0.19906804846E+03  0.00000000000E+00 0. -1.
         -2   -1    0    0    0  501 -0.00000000000E+00 -0.00000000000E+00 -0.66154861469E+02  0.66154861469E+02  0.00000000000E+00 0.  1.
         23    2    1    2    0    0 -0.31019912436E+02 -0.20780984608E+02  0.50028351047E+02  0.11058895921E+03  0.91285254575E+02 0.  0.
          5    1    1    2  502    0 -0.14358800796E+02 -0.46598804271E+02  0.35910478041E+02  0.60701388394E+02  0.41800000000E+01 0.  1.
         -5    1    1    2    0  502  0.45378713232E+02  0.67379788879E+02  0.46974357905E+02  0.93932562323E+02  0.41800000000E+01 0.  1.
        -11    1    3    3    0    0  0.27527491074E+02 -0.19307877566E+02  0.91842876761E-01  0.33623880443E+02  0.00000000000E+00 0.  1.
         11    1    3    3    0    0 -0.58547403509E+02 -0.14731070418E+01  0.49936508171E+02  0.76965078771E+02  0.00000000000E+00 0. -1.
</event>
<event>
 7    1  0.6145388E-006  0.9797840E+02  0.7561462E-02  0.1284605E+00
          2   -1    0    0  501    0  0.00000000000E+00  0.00000000000E+00  0.88063272159E+03  0.88063272159E+03  0.00000000000E+00 0.  1.
         -2   -1    0    0    0  501 -0.00000000000E+00 -0.00000000000E+00 -0.17279485793E+02  0.17279485793E+02  0.00000000000E+00 0. -1.
         23    2    1    2    0    0  0.19197664272E+02 -0.55066722001E+02  0.37343214615E+03  0.38892135657E+03  0.91691655236E+02 0.  0.
          5    1    1    2  502    0 -0.28291164934E+02 -0.54666831129E+01  0.20576805078E+02  0.35653217874E+02  0.41800000000E+01 0. -1.
         -5    1    1    2    0  502  0.90935006613E+01  0.60533405113E+02  0.46934428458E+03  0.47333763294E+03  0.41800000000E+01 0. -1.
        -11    1    3    3    0    0  0.68417703043E+01 -0.78604555516E+02  0.23304862427E+03  0.24604297844E+03  0.00000000000E+00 0.  1.
         11    1    3    3    0    0  0.12355893968E+02  0.23537833516E+02  0.14038352188E+03  0.14287837813E+03  0.00000000000E+00 0. -1.
</event>
<event>
 7    1  0.6145388E-006  0.8369582E+02  0.7561462E-02  0.1318879E+00
         -3   -1    0    0    0  501 -0.00000000000E+00  0.00000000000E+00  0.21456186442E+03  0.21456186442E+03  0.00000000000E+00 0.  1.
          3   -1    0    0  501    0  0.00000000000E+00 -0.00000000000E+00 -0.60865928585E+02  0.60865928585E+02  0.00000000000E+00 0. -1.
         23    2    1    2    0    0 -0.12088999054E+02  0.23035277332E+02  0.44291921378E+02  0.10721796665E+03  0.94112433686E+02 0.  0.
          5    1    1    2  502    0 -0.53308790998E+02 -0.30599014860E+02  0.57490628882E+02  0.84266076907E+02  0.41800000000E+01 0. -1.
         -5    1    1    2    0  502  0.65397790052E+02  0.75637375283E+01  0.51913385578E+02  0.83943749447E+02  0.41800000000E+01 0. -1.
        -11    1    3    3    0    0 -0.19379675489E+02  0.44942658554E+01  0.71092450941E+02  0.73823484261E+02  0.00000000000E+00 0.  1.
         11    1    3    3    0    0  0.72906764352E+01  0.18541011476E+02 -0.26800529563E+02  0.33394482393E+02  0.00000000000E+00 0. -1.
</event>
<event>
 7    1  0.6145388E-006  0.3778340E+03  0.7561462E-02  0.1051737E+00
         -1   -1    0    0    0  501 -0.00000000000E+00  0.00000000000E+00  0.51954311616E+03  0.51954311616E+03  0.00000000000E+00 0.  1.
          1   -1    0    0  501    0  0.00000000000E+00 -0.00000000000E+00 -0.32993800686E+03  0.32993800686E+03  0.00000000000E+00 0. -1.
         23    2    1    2    0    0  0.89483834775E+02  0.35890360366E+03 -0.60575398617E+02  0.38573885891E+03  0.91136902252E+02 0.  0.
          5    1    1    2  502    0 -0.98200805976E+02 -0.23933539726E+03  0.22103937179E+03  0.34029502929E+03  0.41800000000E+01 0.  1.
         -5    1    1    2    0  502  0.87169712005E+01 -0.11956820640E+03  0.29141136127E+02  0.12344723481E+03  0.41800000000E+01 0.  1.
        -11    1    3    3    0    0  0.47021247522E+02  0.66143407204E+02  0.95596555373E+01  0.81714962211E+02  0.00000000000E+00 0.  1.
         11    1    3    3    0    0  0.42462587253E+02  0.29276019645E+03 -0.70135054154E+02  0.30402389670E+03  0.00000000000E+00 0. -1.
</event>
<event>
 7    1  0.6145388E-006  0.1533255E+03  0.7561462E-02  0.1196445E+00
          2   -1    0    0  501    0  0.00000000000E+00  0.00000000000E+00  0.10424858905E+04  0.10424858905E+04  0.00000000000E+00 0. -1.
         -2   -1    0    0    0  501 -0.00000000000E+00 -0.00000000000E+00 -0.34586505502E+02  0.34586505502E+02  0.00000000000E+00 0.  1.
         23    2    1    2    0    0 -0.13123397008E+03  0.49921418855E+02  0.66380953796E+03  0.68495050162E+03  0.93806097979E+02 0.  0.
          5    1    1    2  502    0  0.36870412428E+02 -0.13989605534E+02  0.70767472944E+01  0.40282615703E+02  0.41800000000E+01 0. -1.
         -5    1    1    2    0  502  0.94363557656E+02 -0.35931813321E+02  0.33701309970E+03  0.35183927864E+03  0.41800000000E+01 0. -1.
        -11    1    3    3    0    0 -0.46099413502E+01  0.38524536876E+02  0.10718490283E+03  0.11399120534E+03  0.00000000000E+00 0.  1.
         11    1    3    3    0    0 -0.12662402873E+03  0.11396881978E+02  0.55662463514E+03  0.57095929628E+03  0.00000000000E+00 0. -1.
</event>
<event>
 7    1  0.6145388E-006  0.8273025E+02  0.7561462E-02  0.1321477E+00
          1   -1    0    0  501    0  0.00000000000E+00  0.00000000000E+00  0.27087233957E+03  0.27087233957E+03  0.00000000000E+00 0. -1.
         -1   -1    0    0    0  501 -0.00000000000E+00 -0.00000000000E+00 -0.55084306505E+02  0.55084306505E+02  0.00000000000E+00 0.  1.
         23    2    1    2    0    0  0.25608619339E+02 -0.14897294837E+02  0.15936390972E+03  0.18556709855E+03  0.90335826604E+02 0.  0.
          5    1    1    2  502    0 -0.48629389214E+02  0.11297711049E+02 -0.24717811777E+02  0.55865001470E+02  0.41800000000E+01 0.  1.
         -5    1    1    2    0  502  0.23020769875E+02  0.35995837879E+01  0.81141935131E+02  0.84524546056E+02  0.41800000000E+01 0.  1.
        -11    1    3    3    0    0 -0.21450836020E+02  0.22864735946E+02  0.79608800832E+02  0.85559895311E+02  0.00000000000E+00 0.  1.
         11    1    3    3    0    0  0.47059455358E+02 -0.37762030782E+02  0.79755108884E+02  0.10000720324E+03  0.00000000000E+00 0. -1.
</event>
<event>
 7    1  0.6145388E-006  0.1248838E+03  0.7561462E-02  0.1235251E+00
         -1   -1    0    0    0  501 -0.00000000000E+00  0.00000000000E+00  0.54086617874E+02  0.54086617874E+02  0.00000000000E+00 0.  1.
          1   -1    0    0  501    0  0.00000000000E+00 -0.00000000000E+00 -0.43333637395E+03  0.43333637395E+03  0.00000000000E+00 0. -1.
         23    2    1    2    0    0  0.23524578579E+02  0.70518500600E+02 -0.30074128421E+03  0.32208211996E+03  0.88120980750E+02 0.  0.
          5    1    1    2  502    0  0.40786036227E+02 -0.59105804782E+02 -0.68125284544E+02  0.99073324887E+02  0.41800000000E+01 0. -1.
         -5    1    1    2    0  502 -0.64310614806E+02 -0.11412695819E+02 -0.10383187320E+02  0.66267546971E+02  0.41800000000E+01 0. -1.
        -11    1    3    3    0    0  0.49375515683E+02  0.71057570617E+02 -0.19696720236E+03  0.21513530323E+03  0.00000000000E+00 0.  1.
         11    1    3    3    0    0 -0.25850937103E+02 -0.53907001637E+00 -0.10377408185E+03  0.10694681673E+03  0.00000000000E+00 0. -1.
</event>
<event>
 7    1  0.6145388E-006  0.8591991E+02  0.7561462E-02  0.1313044E+00
         -2   -1    0    0    0  501 -0.00000000000E+00  0.00000000000E+00  0.38930078964E+03  0.38930078964E+03  0.00000000000E+00 0.  1.
          2   -1    0    0  501    0  0.00000000000E+00 -0.00000000000E+00 -0.32524813405E+02  0.32524813405E+02  0.00000000000E+00 0. -1.
         23    2    1    2    0    0 -0.18007683390E+02  0.14973892261E+02  0.11869542583E+03  0.15186510056E+03  0.91792758669E+02 0.  0.
          5    1    1    2  502    0 -0.45610715171E+02 -0.30613154685E+02  0.15220375943E+03  0.16186710402E+03  0.41800000000E+01 0.  1.
         -5    1    1    2    0  502  0.63618398561E+02  0.15639262424E+02  0.85876790974E+02  0.10809339847E+03  0.41800000000E+01 0.  1.
        -11    1    3    3    0    0  0.15245665553E+02  0.18639822419E+01 -0.99803189939E+01  0.18316973418E+02  0.00000000000E+00 0. -1.
         11    1    3    3    0    0 -0.33253348943E+02  0.13109910019E+02  0.12867574483E+03  0.13354812714E+03  0.00000000000E+00 0.  1.
</event>
<event>
 7    1  0.6145388E-006  0.7101414E+02  0.7561462E-02  0.1356678E+00
         -1   -1    0    0    0  501 -0.00000000000E+00  0.00000000000E+00  0.58717351357E+02  0.58717351357E+02  0.00000000000E+00 0.  1.
          1   -1    0    0  501    0  0.00000000000E+00 -0.00000000000E+00 -0.23160740497E+03  0.23160740497E+03  0.00000000000E+00 0. -1.
         23    2    1    2    0    0  0.21898003462E+02 -0.31251971457E+02 -0.98962916156E+02  0.14009173486E+03  0.91519545058E+02 0.  0.
          5    1    1    2  502    0  0.42100614771E+01 -0.13355338536E+02  0.30399653928E+02  0.33729824251E+02  0.41800000000E+01 0.  1.
         -5    1    1    2    0  502 -0.26108064939E+02  0.44607309993E+02 -0.10432679138E+03  0.11650319721E+03  0.41800000000E+01 0.  1.
        -11    1    3    3    0    0  0.30447054484E+02  0.11059356702E+02 -0.90474434826E+02  0.96098677694E+02  0.00000000000E+00 0.  1.
         11    1    3    3    0    0 -0.85490510224E+01 -0.42311328158E+02 -0.84884813300E+01  0.43993057170E+02  0.00000000000E+00 0. -1.
</event>
<event>
 7    1  0.6145388E-006  0.1907038E+03  0.7561462E-02  0.1157828E+00
          2   -1    0    0  501    0  0.00000000000E+00  0.00000000000E+00  0.55278020895E+03  0.55278020895E+03  0.00000000000E+00 0. -1.
         -2   -1    0    0    0  501 -0.00000000000E+00 -0.00000000000E+00 -0.94650582999E+02  0.94650582999E+02  0.00000000000E+00 0.  1.
         23    2    1    2    0    0  0.15040432849E+03 -0.84480868187E+02  0.36677620321E+03  0.41558794941E+03  0.91815474359E+02 0.  0.
          5    1    1    2  502    0 -0.15389788733E+03  0.53608249075E+02  0.34071647273E+02  0.16654354879E+03  0.41800000000E+01 0. -1.
         -5    1    1    2    0  502  0.34935588421E+01  0.30872619112E+02  0.57281775466E+02  0.65299293754E+02  0.41800000000E+01 0. -1.
        -11    1    3    3    0    0 -0.27878870280E+01 -0.21046764545E+02  0.13026772362E+02  0.24908540906E+02  0.00000000000E+00 0.  1.
         11    1    3    3    0    0  0.15319221552E+03 -0.63434103642E+02  0.35374943085E+03  0.39067940850E+03  0.00000000000E+00 0. -1.
</event>
<event>
 7    1  0.6145388E-006  0.1015940E+03  0.7561462E-02  0.1276979E+00
         -1   -1    0    0    0  501 -0.00000000000E+00  0.00000000000E+00  0.79329114234E+03  0.79329114234E+03  0.00000000000E+00 0.  1.
          1   -1    0    0  501    0  0.00000000000E+00 -0.00000000000E+00 -0.16058224873E+02  0.16058224873E+02  0.00000000000E+00 0. -1.
         23    2    1    2    0    0  0.10846053479E+02  0.86868307177E+01  0.21032725657E+03  0.22864038570E+03  0.88576369381E+02 0.  0.
          5    1    1    2  502    0 -0.26471573220E+02 -0.58375053856E+02  0.41787224404E+03  0.42278017437E+03  0.41800000000E+01 0. -1.
         -5    1    1    2    0  502  0.15625519740E+02  0.49688223138E+02  0.14903341685E+03  0.15792880714E+03  0.41800000000E+01 0. -1.
        -11    1    3    3    0    0  0.29964625608E+02  0.40020160418E+02  0.14904332614E+03  0.15720497796E+03  0.00000000000E+00 0.  1.
         11    1    3    3    0    0 -0.19118572129E+02 -0.31333329700E+02  0.61283930431E+02  0.71435407743E+02  0.00000000000E+00 0. -1.
</event>
<event>
 7    1  0.6145388E-006  0.1406771E+03  0.7561462E-02  0.1212421E+00
         -1   -1    0    0    0  501 -0.00000000000E+00  0.00000000000E+00  0.40706936829E+02  0.40706936829E+02  0.00000000000E+00 0.  1.
          1   -1    0    0  501    0  0.00000000000E+00 -0.00000000000E+00 -0.51903356087E+03  0.51903356087E+03  0.00000000000E+00 0. -1.
         23    2    1    2    0    0 -0.24322324212E+02 -0.91598232659E+02 -0.18400629709E+03  0.22619099532E+03  0.91226297272E+02 0.  0.
          5    1    1    2  502    0  0.33881764215E+02 -0.20182810124E+02 -0.11833765362E+03  0.12480621954E+03  0.41800000000E+01 0. -1.
         -5    1    1    2    0  502 -0.95594400024E+01  0.11178104278E+03 -0.17598267333E+03  0.20874328284E+03  0.41800000000E+01 0. -1.
        -11    1    3    3    0    0 -0.20620698421E+02  0.13252929008E+02 -0.52663067297E+02  0.58088311972E+02  0.00000000000E+00 0.  1.
         11    1    3    3    0    0 -0.37016257917E+01 -0.10485116167E+03 -0.13134322980E+03  0.16810268335E+03  0.00000000000E+00 0. -1.
</event>
<event>
 7    1  0.6145388E-006  0.2506125E+03  0.7561462E-02  0.1112918E+00
          2   -1    0    0  501    0  0.00000000000E+00  0.00000000000E+00  0.13673975220E+04  0.13673975220E+04  0.00000000000E+00 0. -1.
         -2   -1    0    0    0  501 -0.00000000000E+00 -0.00000000000E+00 -0.47732868062E+02  0.47732868062E+02  0.00000000000E+00 0.  1.
         23    2    1    2    0    0  0.21956859881E+03  0.66066374166E+02  0.72746188520E+03  0.76788549667E+03  0.88725454038E+02 0.  0.
          5    1    1    2  502    0 -0.46803446522E+02  0.36898964941E+02  0.14861345772E+03  0.16017343237E+03  0.41800000000E+01 0.  1.
         -5    1    1    2    0  502 -0.17276515229E+03 -0.10296533911E+03  0.44358931105E+03  0.48707146106E+03  0.41800000000E+01 0.  1.
        -11    1    3    3    0    0  0.13667384402E+03  0.76725817905E+02  0.54693862722E+03  0.56895382301E+03  0.00000000000E+00 0.  1.
         11    1    3    3    0    0  0.82894754790E+02 -0.10659443738E+02  0.18052325798E+03  0.19893167366E+03  0.00000000000E+00 0. -1.
</event>
<event>
 7    1  0.6145388E-006  0.1005055E+03  0.7561462E-02  0.1279236E+00
         -2   -1    0    0    0  501 -0.00000000000E+00  0.00000000000E+00  0.71502898775E+02  0.71502898775E+02  0.00000000000E+00 0.  1.
          2   -1    0    0  501    0  0.00000000000E+00 -0.00000000000E+00 -0.22070598073E+03  0.22070598073E+03  0.00000000000E+00 0. -1.
         23    2    1    2    0    0 -0.55458557396E+02  0.35376708011E+02 -0.66227346566E+02  0.13071665104E+03  0.91507477114E+02 0.  0.
          5    1    1    2  502    0  0.62049081171E+02 -0.67570343242E+02 -0.88929996955E+02  0.12783527103E+03  0.41800000000E+01 0. -1.
         -5    1    1    2    0  502 -0.65905237749E+01  0.32193635231E+02  0.59542615682E+01  0.33656957436E+02  0.41800000000E+01 0.  1.
        -11    1    3    3    0    0  0.36501993346E+01  0.11907365208E+02 -0.65952844635E+02  0.67118455113E+02  0.00000000000E+00 0. -1.
         11    1    3    3    0    0 -0.59108756731E+02  0.23469342803E+02 -0.27450193158E+00  0.63598195927E+02  0.00000000000E+00 0.  1.
</event>
<event>
 7    1  0.6145388E-006  0.1586157E+03  0.7561462E-02  0.1190269E+00
         -2   -1    0    0    0  501 -0.00000000000E+00  0.00000000000E+00  0.13646490299E+03  0.13646490299E+03  0.00000000000E+00 0.  1.
          2   -1    0    0  501    0  0.00000000000E+00 -0.00000000000E+00 -0.21619334351E+03  0.21619334351E+03  0.00000000000E+00 0. -1.
         23    2    1    2    0    0 -0.85839654988E+02  0.10075951083E+03 -0.58898099005E+02  0.16935588841E+03  0.87701228514E+02 0.  0.
          5    1    1    2  502    0  0.67956384823E+02 -0.11801127160E+03  0.17571779733E+02  0.13737165030E+03  0.41800000000E+01 0. -1.
         -5    1    1    2    0  502  0.17883270165E+02  0.17251760776E+02 -0.38402121244E+02  0.45930707785E+02  0.41800000000E+01 0. -1.
        -11    1    3    3    0    0 -0.32885267221E+02  0.97318745080E+02 -0.54029208203E+02  0.11606693880E+03  0.00000000000E+00 0.  1.
         11    1    3    3    0    0 -0.52954387766E+02  0.34407657453E+01 -0.48688908019E+01  0.53288949607E+02  0.00000000000E+00 0. -1.
</event>
<event>
 7    1  0.6145388E-006  0.1405666E+03  0.7561462E-02  0.1212569E+00
         -3   -1    0    0    0  501 -0.00000000000E+00  0.00000000000E+00  0.38427886072E+02  0.38427886072E+02  0.00000000000E+00 0.  1.
          3   -1    0    0  501    0  0.00000000000E+00 -0.00000000000E+00 -0.67352646788E+03  0.67352646788E+03  0.00000000000E+00 0. -1.
         23    2    1    2    0    0 -0.76377632043E+02 -0.59670496458E+02 -0.41704100772E+03  0.44252894102E+03  0.11186845263E+03 0.  0.
          5    1    1    2  502    0  0.89806183999E+02 -0.69294914120E+01 -0.12325167655E+03  0.15271416669E+03  0.41800000000E+01 0.  1.
         -5    1    1    2    0  502 -0.13428551956E+02  0.66599987870E+02 -0.94805897535E+02  0.11671124624E+03  0.41800000000E+01 0.  1.
        -11    1    3    3    0    0 -0.80028607252E+02 -0.19252610058E+02 -0.37564936501E+03  0.38456168089E+03  0.00000000000E+00 0. -1.
         11    1    3    3    0    0  0.36509752091E+01 -0.40417886400E+02 -0.41391642708E+02  0.57967260131E+02  0.00000000000E+00 0.  1.
</event>
<event>
 7    1  0.6145388E-006  0.1241802E+03  0.7561462E-02  0.1236356E+00
         -2   -1    0    0    0  501 -0.00000000000E+00  0.00000000000E+00  0.15915058977E+02  0.15915058977E+02  0.00000000000E+00 0. -1.
          2   -1    0    0  501    0  0.00000000000E+00 -0.00000000000E+00 -0.11231507820E+04  0.11231507820E+04  0.00000000000E+00 0.  1.
         23    2    1    2    0    0 -0.95666481421E+01  0.73943945120E+02 -0.54163258735E+03  0.55501625694E+03  0.95487999281E+02 0.  0.
          5    1    1    2  502    0 -0.19412819401E+02 -0.91257268539E+02 -0.51282510222E+03  0.52125982435E+03  0.41800000000E+01 0. -1.
         -5    1    1    2    0  502  0.28979467543E+02  0.17313323419E+02 -0.52778033469E+02  0.62789759704E+02  0.41800000000E+01 0. -1.
        -11    1    3    3    0    0  0.28884790469E+02 -0.83929971505E+01 -0.12145427353E+03  0.12512359522E+03  0.00000000000E+00 0. -1.
         11    1    3    3    0    0 -0.38451438612E+02  0.82336942270E+02 -0.42017831382E+03  0.42989266171E+03  0.00000000000E+00 0.  1.
</event>
<event>
 7    1  0.6145388E-006  0.7121144E+02  0.7561462E-02  0.1356021E+00
          1   -1    0    0  501    0  0.00000000000E+00  0.00000000000E+00  0.38664717681E+03  0.38664717681E+03  0.00000000000E+00 0. -1.
         -1   -1    0    0    0  501 -0.00000000000E+00 -0.00000000000E+00 -0.50098151885E+02  0.50098151885E+02  0.00000000000E+00 0.  1.
         23    2    1    2    0    0 -0.41734113393E+02 -0.40203438644E+02  0.23120887889E+03  0.26915657902E+03  0.12501866120E+03 0.  0.
          5    1    1    2  502    0  0.15629676078E+02  0.21162262641E+02  0.12614850862E+03  0.12893039503E+03  0.41800000000E+01 0. -1.
         -5    1    1    2    0  502  0.26104437316E+02  0.19041176002E+02 -0.20808362586E+02  0.38658354655E+02  0.41800000000E+01 0.  1.
        -11    1    3    3    0    0 -0.69923350668E+01 -0.47241932256E+02  0.22868602165E+03  0.23361932586E+03  0.00000000000E+00 0.  1.
         11    1    3    3    0    0 -0.34741778327E+02  0.70384936119E+01  0.25228572394E+01  0.35537253162E+02  0.00000000000E+00 0. -1.
</event>
<event>
 7    1  0.6145388E-006  0.1209191E+03  0.7561462E-02  0.1241589E+00
         -3   -1    0    0    0  501 -0.00000000000E+00  0.00000000000E+00  0.14021306536E+03  0.14021306536E+03  0.00000000000E+00 0.  1.
          3   -1    0    0  501    0  0.00000000000E+00 -0.00000000000E+00 -0.17843339072E+03  0.17843339072E+03  0.00000000000E+00 0. -1.
         23    2    1    2    0    0 -0.31436834954E+02 -0.54572917960E+02 -0.11459042839E+03  0.15912382825E+03  0.90680474585E+02 0.  0.
          5    1    1    2  502    0 -0.17827275391E+02  0.78358005388E+02  0.24744352879E+02  0.84187553449E+02  0.41800000000E+01 0. -1.
         -5    1    1    2    0  502  0.49264110345E+02 -0.23785087429E+02  0.51625750155E+02  0.75335074375E+02  0.41800000000E+01 0. -1.
        -11    1    3    3    0    0  0.29902980514E+02 -0.14484483318E+02 -0.56780511316E+02  0.65787650558E+02  0.00000000000E+00 0.  1.
         11    1    3    3    0    0 -0.61339815468E+02 -0.40088434642E+02 -0.57809917076E+02  0.93336177691E+02  0.00000000000E+00 0. -1.
</event>
<event>
 7    1  0.6145388E-006  0.2853820E+03  0.7561462E-02  0.1092785E+00
          1   -1    0    0  501    0  0.00000000000E+00  0.00000000000E+00  0.83806036596E+03  0.83806036596E+03  0.00000000000E+00 0. -1.
         -1   -1    0    0    0  501 -0.00000000000E+00 -0.00000000000E+00 -0.16076304663E+03  0.16076304663E+03  0.00000000000E+00 0.  1.
         23    2    1    2    0    0 -0.35799488624E+02 -0.27235193537E+03  0.62986390192E+03  0.69328472419E+03  0.91967351677E+02 0.  0.
          5    1    1    2  502    0  0.54861347253E+02  0.27047478466E+03  0.27177327669E+02  0.27734897891E+03  0.41800000000E+01 0.  1.
         -5    1    1    2    0  502 -0.19061858630E+02  0.18771507099E+01  0.20256089743E+02  0.28189709485E+02  0.41800000000E+01 0.  1.
        -11    1    3    3    0    0 -0.96650220817E+01 -0.13387927726E+03  0.19962453696E+03  0.24055566776E+03  0.00000000000E+00 0.  1.
         11    1    3    3    0    0 -0.26134466542E+02 -0.13847265811E+03  0.43023936496E+03  0.45272905644E+03  0.00000000000E+00 0. -1.
</event>
<event>
 7    1  0.6145388E-006  0.3871717E+03  0.7561462E-02  0.1048314E+00
          2   -1    0    0  501    0  0.00000000000E+00  0.00000000000E+00  0.29996158540E+03  0.29996158540E+03  0.00000000000E+00 0. -1.
         -2   -1    0    0    0  501 -0.00000000000E+00 -0.00000000000E+00 -0.81103930764E+03  0.81103930764E+03  0.00000000000E+00 0.  1.
         23    2    1    2    0    0  0.29920370544E+03  0.19081211933E+03  0.35042163586E+02  0.36844634435E+03  0.92696457329E+02 0.  0.
          5    1    1    2  502    0 -0.23086021636E+03 -0.23787130987E+02 -0.84716408938E+02  0.24709635659E+03  0.41800000000E+01 0. -1.
         -5    1    1    2    0  502 -0.68343489087E+02 -0.16702498834E+03 -0.46140347689E+03  0.49545819210E+03  0.41800000000E+01 0.  1.
        -11    1    3    3    0    0  0.28145874760E+03  0.15398192930E+03  0.10991406757E+02  0.32101444232E+03  0.00000000000E+00 0.  1.
         11    1    3    3    0    0  0.17744957839E+02  0.36830190028E+02  0.24050756830E+02  0.47431902031E+02  0.00000000000E+00 0. -1.
</event>
<event>
 7    1  0.6145388E-006  0.1285571E+03  0.7561462E-02  0.1229613E+00
          2   -1    0    0  501    0  0.00000000000E+00  0.00000000000E+00  0.21214965807E+03  0.21214965807E+03  0.00000000000E+00 0. -1.
         -2   -1    0    0    0  501 -0.00000000000E+00 -0.00000000000E+00 -0.11026870283E+03  0.11026870283E+03  0.00000000000E+00 0.  1.
         23    2    1    2    0    0 -0.12934104697E+02  0.97081317690E+02  0.91445687013E+02  0.16320381141E+03  0.93172405130E+02 0.  0.
          5    1    1    2  502    0  0.50838232705E+02 -0.10714922858E+03  0.14548477081E+02  0.11956008396E+03  0.41800000000E+01 0.  1.
         -5    1    1    2    0  502 -0.37904128008E+02  0.10067910894E+02 -0.41132088538E+01  0.39654465536E+02  0.41800000000E+01 0.  1.
        -11    1    3    3    0    0  0.32106339871E+01  0.18964836591E+02  0.80407736544E+02  0.82676340591E+02  0.00000000000E+00 0. -1.
         11    1    3    3    0    0 -0.16144738684E+02  0.78116481099E+02  0.11037950470E+02  0.80527470822E+02  0.00000000000E+00 0.  1.
</event>
<event>
 7    1  0.6145388E-006  0.1234998E+03  0.7561462E-02  0.1237433E+00
         -2   -1    0    0    0  501 -0.00000000000E+00  0.00000000000E+00  0.22522107513E+02  0.22522107513E+02  0.00000000000E+00 0.  1.
          2   -1    0    0  501    0  0.00000000000E+00 -0.00000000000E+00 -0.72304051909E+03  0.72304051909E+03  0.00000000000E+00 0. -1.
         23    2    1    2    0    0 -0.58064011718E+02 -0.26720811085E+02 -0.36305265239E+03  0.38002719011E+03  0.92347201439E+02 0.  0.
          5    1    1    2  502    0  0.42240299871E+02  0.75837812951E+02 -0.18221007820E+03  0.20187521344E+03  0.41800000000E+01 0. -1.
         -5    1    1    2    0  502  0.15823711847E+02 -0.49117001866E+02 -0.15525568098E+03  0.16366022304E+03  0.41800000000E+01 0. -1.
        -11    1    3    3    0    0 -0.79805301922E+02 -0.90782460181E+01 -0.21866703785E+03  0.23295187102E+03  0.00000000000E+00 0.  1.
         11    1    3    3    0    0  0.21741290204E+02 -0.17642565067E+02 -0.14438561454E+03  0.14707531909E+03  0.00000000000E+00 0. -1.
</event>
<event>
 7    1  0.6145388E-006  0.1332665E+03  0.7561462E-02  0.1222688E+00
          2   -1    0    0  501    0  0.00000000000E+00  0.00000000000E+00  0.28081686689E+03  0.28081686689E+03  0.00000000000E+00 0. -1.
         -2   -1    0    0    0  501 -0.00000000000E+00 -0.00000000000E+00 -0.93448154497E+02  0.93448154497E+02  0.00000000000E+00 0.  1.
         23    2    1    2    0    0  0.42901563385E+02 -0.82201452418E+02  0.17246118863E+03  0.21784412441E+03  0.95475536311E+02 0.  0.
          5    1    1    2  502    0 -0.71036147891E+02  0.99496418473E+02  0.13968198830E+02  0.12311886360E+03  0.41800000000E+01 0. -1.
         -5    1    1    2    0  502  0.28134584506E+02 -0.17294966055E+02  0.93932493761E+00  0.33302033384E+02  0.41800000000E+01 0. -1.
        -11    1    3    3    0    0  0.31773663892E+02 -0.41081833808E+01  0.11727930961E+03  0.12157663982E+03  0.00000000000E+00 0. -1.
         11    1    3    3    0    0  0.11127899494E+02 -0.78093269038E+02  0.55181879023E+02  0.96267484586E+02  0.00000000000E+00 0.  1.
</event>
<event>
 7    1  0.6145388E-006  0.8910429E+02  0.7561462E-02  0.1305035E+00
          4   -1    0    0  501    0  0.00000000000E+00  0.00000000000E+00  0.75193780178E+03  0.75193780178E+03  0.00000000000E+00 0. -1.
         -4   -1    0    0    0  501 -0.00000000000E+00 -0.00000000000E+00 -0.16302059637E+02  0.16302059637E+02  0.00000000000E+00 0.  1.
         23    2    1    2    0    0  0.14844629603E+02 -0.68197512521E+01  0.26602665009E+03  0.28198342833E+03  0.92073901073E+02 0.  0.
          5    1    1    2  502    0  0.21417025732E+02  0.40882892534E+02  0.38676137549E+03  0.38952783451E+03  0.41800000000E+01 0.  1.
         -5    1    1    2    0  502 -0.36261655335E+02 -0.34063141282E+02  0.82847716566E+02  0.96728598573E+02  0.41800000000E+01 0.  1.
        -11    1    3    3    0    0 -0.27147072165E+02 -0.24319947321E+02  0.18935864066E+03  0.19283443198E+03  0.00000000000E+00 0. -1.
         11    1    3    3    0    0  0.41991701768E+02  0.17500196069E+02  0.76668009427E+02  0.89148996345E+02  0.00000000000E+00 0.  1.
</event>
<event>
 7    1  0.6145388E-006  0.1978176E+03  0.7561462E-02  0.1151593E+00
         -1   -1    0    0    0  501 -0.00000000000E+00  0.00000000000E+00  0.18175334313E+04  0.18175334313E+04  0.00000000000E+00 0.  1.
          1   -1    0    0  501    0  0.00000000000E+00 -0.00000000000E+00 -0.27028298306E+02  0.27028298306E+02  0.00000000000E+00 0. -1.
         23    2    1    2    0    0 -0.12106640831E+02  0.18841641882E+03  0.72721958818E+03  0.75742288628E+03  0.95884209338E+02 0.  0.
          5    1    1    2  502    0  0.43616039671E+02 -0.72427393117E+02  0.22737295845E+03  0.24261908586E+03  0.41800000000E+01 0.  1.
         -5    1    1    2    0  502 -0.31509398840E+02 -0.11598902570E+03  0.83591258635E+03  0.84451975745E+03  0.41800000000E+01 0.  1.
        -11    1    3    3    0    0 -0.16272384562E+02  0.58060070804E+02  0.99881347929E+02  0.11667067320E+03  0.00000000000E+00 0. -1.
         11    1    3    3    0    0  0.41657437318E+01  0.13035634802E+03  0.62733824025E+03  0.64075221308E+03  0.00000000000E+00 0.  1.
</event>
<event>
 7    1  0.6145388E-006  0.3233591E+03  0.7561462E-02  0.1074114E+00
         -1   -1    0    0    0  501 -0.00000000000E+00  0.00000000000E+00  0.30193631428E+03  0.30193631428E+03  0.00000000000E+00 0.  1.
          1   -1    0    0  501    0  0.00000000000E+00 -0.00000000000E+00 -0.51496641775E+03  0.51496641775E+03  0.00000000000E+00 0. -1.
         23    2    1    2    0    0  0.21612482405E+03 -0.22563733235E+03 -0.31858437307E+03  0.45541821680E+03  0.91036279081E+02 0.  0.
          5    1    1    2  502    0 -0.21072309714E+03  0.18612502881E+03  0.39126885624E+02  0.28389282413E+03  0.41800000000E+01 0. -1.
         -5    1    1    2    0  502 -0.54017269070E+01  0.39512303539E+02  0.66427383984E+02  0.77591691099E+02  0.41800000000E+01 0.  1.
        -11    1    3    3    0    0  0.21143424976E+03 -0.17466485413E+03 -0.26798420801E+03  0.38344202819E+03  0.00000000000E+00 0.  1.
         11    1    3    3    0    0  0.46905742890E+01 -0.50972478211E+02 -0.50600165057E+02  0.71976188604E+02  0.00000000000E+00 0. -1.
</event>
<event>
 7    1  0.6145388E-006  0.1104569E+03  0.7561462E-02  0.1259726E+00
         -3   -1    0    0    0  501 -0.00000000000E+00  0.00000000000E+00  0.32805888517E+02  0.32805888517E+02  0.00000000000E+00 0.  1.
          3   -1    0    0  501    0  0.00000000000E+00 -0.00000000000E+00 -0.43058090846E+03  0.43058090846E+03  0.00000000000E+00 0. -1.
         23    2    1    2    0    0  0.45613460356E+02 -0.15575449886E+02 -0.18897792859E+03  0.21526046594E+03  0.91111076713E+02 0.  0.
          5    1    1    2  502    0  0.16543672202E+02 -0.38902459201E+02 -0.11729790238E+03  0.12475321528E+03  0.41800000000E+01 0. -1.
         -5    1    1    2    0  502 -0.62157132558E+02  0.54477909087E+02 -0.91499188981E+02  0.12337311575E+03  0.41800000000E+01 0. -1.
        -11    1    3    3    0    0  0.30607398218E+02 -0.49716478021E+02 -0.73239071780E+02  0.93661639147E+02  0.00000000000E+00 0.  1.
         11    1    3    3    0    0  0.15006062138E+02  0.34141028135E+02 -0.11573885681E+03  0.12159882679E+03  0.00000000000E+00 0. -1.
</event>
<event>
 7    1  0.6145388E-006  0.1109120E+03  0.7561462E-02  0.1258890E+00
          2   -1    0    0  501    0  0.00000000000E+00  0.00000000000E+00  0.76027844909E+03  0.76027844909E+03  0.00000000000E+00 0. -1.
         -2   -1    0    0    0  501 -0.00000000000E+00 -0.00000000000E+00 -0.27621768144E+02  0.27621768144E+02  0.00000000000E+00 0.  1.
         23    2    1    2    0    0  0.17577691661E+02 -0.97392111143E+02  0.35787082763E+03  0.38058395639E+03  0.83536938160E+02 0.  0.
          5    1    1    2  502    0  0.15285017446E+02  0.23020326259E+01  0.23224102593E+03  0.23279239171E+03  0.41800000000E+01 0. -1.
         -5    1    1    2    0  502 -0.32862709107E+02  0.95090078517E+02  0.14254482738E+03  0.17452386913E+03  0.41800000000E+01 0. -1.
        -11    1    3    3    0    0  0.27487294232E+02 -0.53840099293E+02  0.30696686401E+03  0.31286253090E+03  0.00000000000E+00 0.  1.
         11    1    3    3    0    0 -0.99096025703E+01 -0.43552011851E+02  0.50903963615E+02  0.67721425495E+02  0.00000000000E+00 0. -1.
</event>
<event>
 7    1  0.6145388E-006  0.1060492E+03  0.7561462E-02  0.1268066E+00
          3   -1    0    0  501    0  0.00000000000E+00  0.00000000000E+00  0.20593138368E+03  0.20593138368E+03  0.00000000000E+00 0. -1.
         -3   -1    0    0    0  501 -0.00000000000E+00 -0.00000000000E+00 -0.87804137522E+02  0.87804137522E+02  0.00000000000E+00 0.  1.
         23    2    1    2    0    0  0.15479964683E+02 -0.32485491682E+02  0.13210795432E+03  0.16282231248E+03  0.88111618820E+02 0.  0.
          5    1    1    2  502    0 -0.35383322618E+02 -0.34855670359E+02  0.18843788728E+02  0.53286565373E+02  0.41800000000E+01 0.  1.
         -5    1    1    2    0  502  0.19903357935E+02  0.67341162040E+02 -0.32824496885E+02  0.77626643350E+02  0.41800000000E+01 0.  1.
        -11    1    3    3    0    0 -0.35011951669E+02 -0.85969077236E+01  0.32096602001E+02  0.48269404824E+02  0.00000000000E+00 0.  1.
         11    1    3    3    0    0  0.50491916352E+02 -0.23888583958E+02  0.10001135232E+03  0.11455290766E+03  0.00000000000E+00 0. -1.
</event>
<event>
 7    1  0.6145388E-006  0.1308827E+03  0.7561462E-02  0.1226152E+00
          2   -1    0    0  501    0  0.00000000000E+00  0.00000000000E+00  0.27775449766E+03  0.27775449766E+03  0.00000000000E+00 0. -1.
         -2   -1    0    0    0  501 -0.00000000000E+00 -0.00000000000E+00 -0.12322327878E+03  0.12322327878E+03  0.00000000000E+00 0.  1.
         23    2    1    2    0    0  0.12077589392E+03 -0.69160984184E+00  0.16903154300E+03  0.22647771784E+03  0.90184251786E+02 0.  0.
          5    1    1    2  502    0 -0.35542700854E+02 -0.44984855236E+01  0.54007398466E+02  0.64944525906E+02  0.41800000000E+01 0. -1.
         -5    1    1    2    0  502 -0.85233193070E+02  0.51900953655E+01 -0.68507722589E+02  0.10955553270E+03  0.41800000000E+01 0. -1.
        -11    1    3    3    0    0  0.67838746977E+02 -0.35776599669E+02  0.49970104916E+02  0.91537271429E+02  0.00000000000E+00 0.  1.
         11    1    3    3    0    0  0.52937146948E+02  0.35084989828E+02  0.11906143809E+03  0.13494044641E+03  0.00000000000E+00 0. -1.
</event>
<event>
 7    1  0.6145388E-006  0.1409950E+03  0.7561462E-02  0.1211996E+00
          2   -1    0    0  501    0  0.00000000000E+00  0.00000000000E+00  0.82827785684E+03  0.82827785684E+03  0.00000000000E+00 0. -1.
         -2   -1    0    0    0  501 -0.00000000000E+00 -0.00000000000E+00 -0.36144709269E+02  0.36144709269E+02  0.00000000000E+00 0.  1.
         23    2    1    2    0    0 -0.87698761200E+02 -0.50685786383E+02  0.39728628989E+03  0.42115631646E+03  0.96312642489E+02 0.  0.
          5    1    1    2  502    0 -0.46970803696E+01 -0.41995310912E+02  0.22413828473E+03  0.22812521076E+03  0.41800000000E+01 0. -1.
         -5    1    1    2    0  502  0.92395841569E+02  0.92681097295E+02  0.17070857295E+03  0.21514103889E+03  0.41800000000E+01 0.  1.
        -11    1    3    3    0    0 -0.25580962971E+02 -0.37001646689E+02  0.46680054690E+02  0.64826962215E+02  0.00000000000E+00 0.  1.
         11    1    3    3    0    0 -0.62117798229E+02 -0.13684139694E+02  0.35060623520E+03  0.35632935425E+03  0.00000000000E+00 0. -1.
</event>
<event>
 7    1  0.6145388E-006  0.7422333E+02  0.7561462E-02  0.1346293E+00
          1   -1    0    0  501    0  0.00000000000E+00  0.00000000000E+00  0.15152738665E+03  0.15152738665E+03  0.00000000000E+00 0.  1.
         -1   -1    0    0    0  501 -0.00000000000E+00 -0.00000000000E+00 -0.93904804554E+02  0.93904804554E+02  0.00000000000E+00 0. -1.
         23    2    1    2    0    0 -0.40321407982E+02  0.90373110258E+01  0.46513039377E+02  0.11321865975E+03  0.94591295329E+02 0.  0.
          5    1    1    2  502    0  0.15440054604E+02 -0.45430866039E+02  0.52747332215E+02  0.71429072030E+02  0.41800000000E+01 0. -1.
         -5    1    1    2    0  502  0.24881353378E+02  0.36393555013E+02 -0.41637789499E+02  0.60784459418E+02  0.41800000000E+01 0. -1.
        -11    1    3    3    0    0 -0.10295948817E+02  0.21227504224E+02  0.69560741125E+02  0.73452775328E+02  0.00000000000E+00 0.  1.
         11    1    3    3    0    0 -0.30025459165E+02 -0.12190193198E+02 -0.23047701748E+02  0.39765884425E+02  0.00000000000E+00 0. -1.
</event>
<event>
 7    1  0.6145388E-006  0.9381780E+02  0.7561462E-02  0.1293861E+00
         -1   -1    0    0    0  501 -0.00000000000E+00  0.00000000000E+00  0.10679371620E+03  0.10679371620E+03  0.00000000000E+00 0.  1.
          1   -1    0    0  501    0  0.00000000000E+00 -0.00000000000E+00 -0.14724341549E+03  0.14724341549E+03  0.00000000000E+00 0. -1.
         23    2    1    2    0    0  0.31572602702E+02 -0.32479418752E+02 -0.61833686176E+02  0.11928403380E+03  0.91397670048E+02 0.  0.
          5    1    1    2  502    0 -0.30515427514E+02 -0.34692932415E+02  0.43806023662E+02  0.63806198641E+02  0.41800000000E+01 0. -1.
         -5    1    1    2    0  502 -0.10571751871E+01  0.67172351167E+02 -0.22422036774E+02  0.70946899254E+02  0.41800000000E+01 0. -1.
        -11    1    3    3    0    0  0.42357341427E+02 -0.29093511366E+01 -0.74182333151E+02  0.85472962091E+02  0.00000000000E+00 0. -1.
         11    1    3    3    0    0 -0.10784738726E+02 -0.29570067615E+02  0.12348646975E+02  0.33811071711E+02  0.00000000000E+00 0.  1.
</event>
<event>
 7    1  0.6145388E-006  0.1779723E+03  0.7561462E-02  0.1169780E+00
         -1   -1    0    0    0  501 -0.00000000000E+00  0.00000000000E+00  0.37012802406E+02  0.37012802406E+02  0.00000000000E+00 0.  1.
          1   -1    0    0  501    0  0.00000000000E+00 -0.00000000000E+00 -0.94136021498E+03  0.94136021498E+03  0.00000000000E+00 0. -1.
         23    2    1    2    0    0  0.85179078483E+02 -0.12518861378E+03 -0.45883022600E+03  0.49148503047E+03  0.90026076547E+02 0.  0.
          5    1    1    2  502    0 -0.44476701568E+02  0.13785977171E+03 -0.27238785469E+03  0.30853866763E+03  0.41800000000E+01 0. -1.
         -5    1    1    2    0  502 -0.40702376916E+02 -0.12671157930E+02 -0.17312933189E+03  0.17834931929E+03  0.41800000000E+01 0. -1.
        -11    1    3    3    0    0  0.52092952315E+02 -0.16595865446E+02 -0.87375800335E+02  0.10307098969E+03  0.00000000000E+00 0.  1.
         11    1    3    3    0    0  0.33086126168E+02 -0.10859274834E+03 -0.37145442566E+03  0.38841404079E+03  0.00000000000E+00 0. -1.
</event>
<event>
 7    1  0.6145388E-006  0.1031776E+03  0.7561462E-02  0.1273752E+00
          4   -1    0    0  501    0  0.00000000000E+00  0.00000000000E+00  0.66546730009E+02  0.66546730009E+02  0.00000000000E+00 0. -1.
         -4   -1    0    0    0  501 -0.00000000000E+00 -0.00000000000E+00 -0.31474136720E+03  0.31474136720E+03  0.00000000000E+00 0.  1.
         23    2    1    2    0    0 -0.84375466588E+02 -0.61511568162E+01 -0.54848978933E+02  0.13595645178E+03  0.91206853908E+02 0.  0.
          5    1    1    2  502    0  0.72497128347E+02  0.10236166774E+02 -0.21093355443E+03  0.22331826954E+03  0.41800000000E+01 0.  1.
         -5    1    1    2    0  502  0.11878338242E+02 -0.40850099577E+01  0.17587896173E+02  0.22013375877E+02  0.41800000000E+01 0.  1.
        -11    1    3    3    0    0 -0.31531593888E+01 -0.33826805479E+02 -0.33106695399E+02  0.47436783863E+02  0.00000000000E+00 0.  1.
         11    1    3    3    0    0 -0.81222307199E+02  0.27675648663E+02 -0.21742283535E+02  0.88519667922E+02  0.00000000000E+00 0. -1.
</event>
<event>
 7    1  0.6145388E-006  0.1137662E+03  0.7561462E-02  0.1253750E+00
         -3   -1    0    0    0  501 -0.00000000000E+00  0.00000000000E+00  0.17303829372E+03  0.17303829372E+03  0.00000000000E+00 0.  1.
          3   -1    0    0  501    0  0.00000000000E+00 -0.00000000000E+00 -0.97841799730E+02  0.97841799730E+02  0.00000000000E+00 0. -1.
         23    2    1    2    0    0  0.52965224490E+02  0.43699226632E+02  0.19923529446E+02  0.11785128914E+03  0.93685868261E+02 0.  0.
          5    1    1    2  502    0 -0.41371770181E+02 -0.80269399094E+02  0.67194730586E+02  0.11263837720E+03  0.41800000000E+01 0.  1.
         -5    1    1    2    0  502 -0.11593454309E+02  0.36570172462E+02 -0.11921766047E+02  0.40390427114E+02  0.41800000000E+01 0.  1.
        -11    1    3    3    0    0  0.55634015176E+02  0.60115820457E+02  0.40515476752E+02  0.91381395099E+02  0.00000000000E+00 0.  1.
         11    1    3    3    0    0 -0.26687906856E+01 -0.16416593825E+02 -0.20591947305E+02  0.26469894037E+02  0.00000000000E+00 0. -1.
</event>
<event>
 7    1  0.6145388E-006  0.1437818E+03  0.7561462E-02  0.1208329E+00
         -2   -1    0    0    0  501 -0.00000000000E+00  0.00000000000E+00  0.19912010042E+02  0.19912010042E+02  0.00000000000E+00 0.  1.
          2   -1    0    0  501    0  0.00000000000E+00 -0.00000000000E+00 -0.12518294123E+04  0.12518294123E+04  0.00000000000E+00 0. -1.
         23    2    1    2    0    0 -0.11006673032E+03  0.19261030095E+02 -0.67371515252E+03  0.68888313520E+03  0.90455485330E+02 0.  0.
          5    1    1    2  502    0  0.12503661506E+01  0.26665877948E+02 -0.27022851502E+03  0.27157605784E+03  0.41800000000E+01 0. -1.
         -5    1    1    2    0  502  0.10881636417E+03 -0.45926908043E+02 -0.28797373476E+03  0.31128222934E+03  0.41800000000E+01 0. -1.
        -11    1    3    3    0    0 -0.50846103217E+02  0.53617575465E+02 -0.39745978525E+03  0.40427027037E+03  0.00000000000E+00 0.  1.
         11    1    3    3    0    0 -0.59220627099E+02 -0.34356545370E+02 -0.27625536727E+03  0.28461286483E+03  0.00000000000E+00 0. -1.
</event>
<event>
 7    1  0.6145388E-006  0.1150354E+03  0.7561462E-02  0.1251519E+00
          2   -1    0    0  501    0  0.00000000000E+00  0.00000000000E+00  0.13676430314E+03  0.13676430314E+03  0.00000000000E+00 0. -1.
         -2   -1    0    0    0  501 -0.00000000000E+00 -0.00000000000E+00 -0.10719496079E+03  0.10719496079E+03  0.00000000000E+00 0.  1.
         23    2    1    2    0    0  0.43898662689E+02 -0.82066018080E+00  0.39742445314E+02  0.11098683488E+03  0.93866125346E+02 0.  0.
          5    1    1    2  502    0 -0.84849339672E+02  0.11597760274E+02  0.91740088653E+01  0.86229654556E+02  0.41800000000E+01 0. -1.
         -5    1    1    2    0  502  0.40950676983E+02 -0.10777100093E+02 -0.19347111821E+02  0.46742774496E+02  0.41800000000E+01 0. -1.
        -11    1    3    3    0    0 -0.24301997441E+02 -0.19397586371E+02  0.22055533995E+02  0.38122172242E+02  0.00000000000E+00 0.  1.
         11    1    3    3    0    0  0.68200660131E+02  0.18576926190E+02  0.17686911319E+02  0.72864662635E+02  0.00000000000E+00 0. -1.
</event>
<event>
 7    1  0.6145388E-006  0.1256638E+03  0.7561462E-02  0.1234035E+00
         -1   -1    0    0    0  501 -0.00000000000E+00  0.00000000000E+00  0.18741867649E+03  0.18741867649E+03  0.00000000000E+00 0.  1.
          1   -1    0    0  501    0  0.00000000000E+00 -0.00000000000E+00 -0.10596718743E+03  0.10596718743E+03  0.00000000000E+00 0. -1.
         23    2    1    2    0    0 -0.50445362866E+02 -0.43010952478E+02 -0.26120189631E+02  0.11558511645E+03  0.91010868424E+02 0.  0.
          5    1    1    2  502    0 -0.40967516752E+02  0.18900208114E+02  0.47855915417E+02  0.65903082902E+02  0.41800000000E+01 0.  1.
         -5    1    1    2    0  502  0.91412879618E+02  0.24110744364E+02  0.59715763273E+02  0.11189766457E+03  0.41800000000E+01 0.  1.
        -11    1    3    3    0    0 -0.73616237265E+02 -0.15167959401E+02 -0.25454309406E+02  0.79355776405E+02  0.00000000000E+00 0. -1.
         11    1    3    3    0    0  0.23170874398E+02 -0.27842993077E+02 -0.66588022487E+00  0.36229340048E+02  0.00000000000E+00 0.  1.
</event>
<event>
 7    1  0.6145388E-006  0.9232767E+02  0.7561462E-02  0.1297311E+00
          3   -1    0    0  501    0  0.00000000000E+00  0.00000000000E+00  0.13137222333E+04  0.13137222333E+04  0.00000000000E+00 0. -1.
         -3   -1    0    0    0  501 -0.00000000000E+00 -0.00000000000E+00 -0.12373836997E+02  0.12373836997E+02  0.00000000000E+00 0.  1.
         23    2    1    2    0    0 -0.65241064282E+02  0.24126655587E+02  0.59904702237E+03  0.60935693645E+03  0.87292892110E+02 0.  0.
          5    1    1    2  502    0  0.33372777508E+02 -0.38145631188E+00  0.36103883863E+02  0.49344205511E+02  0.41800000000E+01 0.  1.
         -5    1    1    2    0  502  0.31868286775E+02 -0.23745199275E+02  0.66619749011E+03  0.66739492837E+03  0.41800000000E+01 0.  1.
        -11    1    3    3    0    0  0.81423744079E+01  0.35833649281E+02  0.17053880695E+03  0.17445295456E+03  0.00000000000E+00 0.  1.
         11    1    3    3    0    0 -0.73383438690E+02 -0.11706993694E+02  0.42850821543E+03  0.43490398189E+03  0.00000000000E+00 0. -1.
</event>
<event>
 6    1  0.6145388E-006  0.1259776E+03  0.7561462E-02  0.1233549E+00
          2   -1    0    0  501    0  0.00000000000E+00  0.00000000000E+00  0.46369402209E+03  0.46369402209E+03  0.00000000000E+00 0. -1.
         -2   -1    0    0    0  501 -0.00000000000E+00 -0.00000000000E+00 -0.51849318428E+02  0.51849318428E+02  0.00000000000E+00 0.  1.
          5    1    1    2  502    0 -0.44348761767E+02  0.10465679714E+03  0.12905872423E+03  0.17202756918E+03  0.41800000000E+01 0. -1.
         -5    1    1    2    0  502  0.26585813344E+02 -0.77153492487E+02  0.34253202657E+02  0.88601473839E+02  0.41800000000E+01 0.  1.
        -11    1    1    2    0    0 -0.86015607533E+01  0.83560815559E+01  0.44873510340E+02  0.46448281740E+02  0.00000000000E+00 0. -1.
         11    1    1    2    0    0  0.26364509176E+02 -0.35859386205E+02  0.20365926643E+03  0.20846601576E+03  0.00000000000E+00 0.  1.
</event>
<event>
 7    1  0.6145388E-006  0.9451889E+02  0.7561462E-02  0.1292263E+00
          1   -1    0    0  501    0  0.00000000000E+00  0.00000000000E+00  0.67836044709E+02  0.67836044709E+02  0.00000000000E+00 0. -1.
         -1   -1    0    0    0  501 -0.00000000000E+00 -0.00000000000E+00 -0.17952944455E+03  0.17952944455E+03  0.00000000000E+00 0.  1.
         23    2    1    2    0    0 -0.15527379069E+02 -0.55177979154E+01 -0.25456340893E+02  0.94535800244E+02  0.89540195675E+02 0.  0.
          5    1    1    2  502    0  0.94274838934E+01  0.63410951926E+02 -0.63093594446E+02  0.90044990626E+02  0.41800000000E+01 0. -1.
         -5    1    1    2    0  502  0.60998951761E+01 -0.57893154011E+02 -0.23143464499E+02  0.62784698387E+02  0.41800000000E+01 0. -1.
        -11    1    3    3    0    0 -0.19085655688E+02 -0.33321198940E+02  0.18326426928E+02  0.42549059635E+02  0.00000000000E+00 0. -1.
         11    1    3    3    0    0  0.35582766184E+01  0.27803401025E+02 -0.43782767821E+02  0.51986740609E+02  0.00000000000E+00 0.  1.
</event>
<event>
 7    1  0.6145388E-006  0.9921770E+02  0.7561462E-02  0.1281950E+00
          2   -1    0    0  501    0  0.00000000000E+00  0.00000000000E+00  0.73266636897E+03  0.73266636897E+03  0.00000000000E+00 0.  1.
         -2   -1    0    0    0  501 -0.00000000000E+00 -0.00000000000E+00 -0.19023446590E+02  0.19023446590E+02  0.00000000000E+00 0. -1.
         23    2    1    2    0    0  0.23041173878E+02  0.23952106881E+02  0.41530848221E+03  0.42648827759E+03  0.91140092234E+02 0.  0.
          5    1    1    2  502    0 -0.10019777731E+02 -0.61965504593E+02  0.26633823523E+03  0.27366703793E+03  0.41800000000E+01 0. -1.
         -5    1    1    2    0  502 -0.13021396147E+02  0.38013397712E+02  0.31996204946E+02  0.51534500039E+02  0.41800000000E+01 0. -1.
        -11    1    3    3    0    0  0.50257840839E+02 -0.10377384963E+02  0.26510558164E+03  0.27002686922E+03  0.00000000000E+00 0.  1.
         11    1    3    3    0    0 -0.27216666961E+02  0.34329491844E+02  0.15020290057E+03  0.15646140837E+03  0.00000000000E+00 0. -1.
</event>
<event>
 7    1  0.6145388E-006  0.1656824E+03  0.7561462E-02  0.1182427E+00
          2   -1    0    0  501    0  0.00000000000E+00  0.00000000000E+00  0.44885664159E+03  0.44885664159E+03  0.00000000000E+00 0. -1.
         -2   -1    0    0    0  501 -0.00000000000E+00 -0.00000000000E+00 -0.66940303967E+02  0.66940303967E+02  0.00000000000E+00 0.  1.
         23    2    1    2    0    0 -0.49901286508E+02  0.11587937149E+03  0.24984369993E+03  0.29442055319E+03  0.91342326530E+02 0.  0.
          5    1    1    2  502    0 -0.63651616044E+01 -0.11976807080E+03  0.10095408640E+03  0.15682508099E+03  0.41800000000E+01 0. -1.
         -5    1    1    2    0  502  0.56266448112E+02  0.38886993128E+01  0.31118551292E+02  0.64551311373E+02  0.41800000000E+01 0. -1.
        -11    1    3    3    0    0 -0.35427038966E+02 -0.25220423753E+01  0.71926250010E+02  0.80217337453E+02  0.00000000000E+00 0. -1.
         11    1    3    3    0    0 -0.14474247542E+02  0.11840141387E+03  0.17791744992E+03  0.21420321574E+03  0.00000000000E+00 0.  1.
</event>
<event>
 7    1  0.6145388E-006  0.7372569E+02  0.7561462E-02  0.1347863E+00
          2   -1    0    0  501    0  0.00000000000E+00  0.00000000000E+00  0.22984288896E+02  0.22984288896E+02  0.00000000000E+00 0. -1.
         -2   -1    0    0    0  501 -0.00000000000E+00 -0.00000000000E+00 -0.90240833916E+03  0.90240833916E+03  0.00000000000E+00 0.  1.
         23    2    1    2    0    0 -0.36307232617E+01 -0.44533625845E+02 -0.12671988328E+03  0.16229898515E+03  0.91030795775E+02 0.  0.
          5    1    1    2  502    0  0.16046948771E+02  0.31162401189E+02 -0.56387219489E+02  0.66525113562E+02  0.41800000000E+01 0. -1.
         -5    1    1    2    0  502 -0.12416225509E+02  0.13371224656E+02 -0.69631694749E+03  0.69656852934E+03  0.41800000000E+01 0.  1.
        -11    1    3    3    0    0  0.26881537367E+02 -0.54964632997E+02 -0.49790879337E+02  0.78885103771E+02  0.00000000000E+00 0. -1.
         11    1    3    3    0    0 -0.30512260629E+02  0.10431007153E+02 -0.76929003941E+02  0.83413881376E+02  0.00000000000E+00 0.  1.
</event>
<event>
 7    1  0.6145388E-006  0.1189223E+03  0.7561462E-02  0.1244886E+00
         -1   -1    0    0    0  501 -0.00000000000E+00  0.00000000000E+00  0.64144247307E+02  0.64144247307E+02  0.00000000000E+00 0.  1.
          1   -1    0    0  501    0  0.00000000000E+00 -0.00000000000E+00 -0.29855806240E+03  0.29855806240E+03  0.00000000000E+00 0. -1.
         23    2    1    2    0    0  0.35210326612E+02  0.36746004125E+02 -0.19653141677E+03  0.22244300839E+03  0.90918965496E+02 0.  0.
          5    1    1    2  502    0 -0.27694871415E+02  0.44697969342E+02 -0.20141939228E+02  0.56463124974E+02  0.41800000000E+01 0.  1.
         -5    1    1    2    0  502 -0.75154551971E+01 -0.81443973467E+02 -0.17740459102E+02  0.83796176345E+02  0.41800000000E+01 0.  1.
        -11    1    3    3    0    0 -0.16100052546E+02 -0.20667954504E+02 -0.64192190875E+02  0.69332628717E+02  0.00000000000E+00 0. -1.
         11    1    3    3    0    0  0.51310379158E+02  0.57413958629E+02 -0.13233922589E+03  0.15311037967E+03  0.00000000000E+00 0.  1.
</event>
<event>
 7    1  0.6145388E-006  0.1513241E+03  0.7561462E-02  0.1198855E+00
          1   -1    0    0  501    0  0.00000000000E+00  0.00000000000E+00  0.95680522647E+02  0.95680522647E+02  0.00000000000E+00 0. -1.
         -1   -1    0    0    0  501 -0.00000000000E+00 -0.00000000000E+00 -0.31951792974E+03  0.31951792974E+03  0.00000000000E+00 0.  1.
         23    2    1    2    0    0  0.11270207711E+03  0.59151424727E+01 -0.15481766999E+02  0.14725136567E+03  0.93308801762E+02 0.  0.
          5    1    1    2  502    0 -0.68526113938E+02 -0.58986618585E+02 -0.15903168490E+03  0.18298578815E+03  0.41800000000E+01 0. -1.
         -5    1    1    2    0  502 -0.44175963170E+02  0.53071476112E+02 -0.49323955194E+02  0.84961298570E+02  0.41800000000E+01 0. -1.
        -11    1    3    3    0    0  0.15482540701E+02  0.37633532362E+02 -0.19037254851E+02  0.44926705831E+02  0.00000000000E+00 0.  1.
         11    1    3    3    0    0  0.97219536408E+02 -0.31718389889E+02  0.35554878518E+01  0.10232465983E+03  0.00000000000E+00 0. -1.
</event>
<event>
 7    1  0.6145388E-006  0.1607538E+03  0.7561462E-02  0.1187848E+00
         -2   -1    0    0    0  501 -0.00000000000E+00  0.00000000000E+00  0.39930471081E+02  0.39930471081E+02  0.00000000000E+00 0.  1.
          2   -1    0    0  501    0  0.00000000000E+00 -0.00000000000E+00 -0.67301550312E+03  0.67301550312E+03  0.00000000000E+00 0. -1.
         23    2    1    2    0    0  0.99274767968E+02 -0.65508946937E+02 -0.34857150650E+03  0.38016600123E+03  0.94218849827E+02 0.  0.
          5    1    1    2  502    0  0.29745154374E+02  0.68241894187E+01 -0.51945380741E+02  0.60391545354E+02  0.41800000000E+01 0.  1.
         -5    1    1    2    0  502 -0.12901992234E+03  0.58684757519E+02 -0.23256814480E+03  0.27238842762E+03  0.41800000000E+01 0.  1.
        -11    1    3    3    0    0  0.62599309467E+02  0.11463619929E+02 -0.18609998593E+03  0.19668068764E+03  0.00000000000E+00 0. -1.
         11    1    3    3    0    0  0.36675458501E+02 -0.76972566866E+02 -0.16247152057E+03  0.18348531359E+03  0.00000000000E+00 0.  1.
</event>
<event>
 7    1  0.6145388E-006  0.1782415E+03  0.7561462E-02  0.1169516E+00
          2   -1    0    0  501    0  0.00000000000E+00  0.00000000000E+00  0.12794825446E+04  0.12794825446E+04  0.00000000000E+00 0. -1.
         -2   -1    0    0    0  501 -0.00000000000E+00 -0.00000000000E+00 -0.29288021185E+02  0.29288021185E+02  0.00000000000E+00 0.  1.
         23    2    1    2    0    0 -0.65968843269E+02  0.13766338161E+03  0.43794486699E+03  0.47288765492E+03  0.92325146807E+02 0.  0.
          5    1    1    2  502    0  0.10314187969E+03 -0.10637722788E+03  0.58849673540E+03  0.60687745216E+03  0.41800000000E+01 0.  1.
         -5    1    1    2    0  502 -0.37173036423E+02 -0.31286153734E+02  0.22375292105E+03  0.22900545873E+03  0.41800000000E+01 0.  1.
        -11    1    3    3    0    0 -0.39489355294E+02  0.32805295841E+02  0.25706808023E+03  0.26214422460E+03  0.00000000000E+00 0. -1.
         11    1    3    3    0    0 -0.26479487975E+02  0.10485808577E+03  0.18087678676E+03  0.21074343033E+03  0.00000000000E+00 0.  1.
</event>
<event>
 7    1  0.6145388E-006  0.1455652E+03  0.7561462E-02  0.1206031E+00
         -1   -1    0    0    0  501 -0.00000000000E+00  0.00000000000E+00  0.34413836701E+02  0.34413836701E+02  0.00000000000E+00 0.  1.
          1   -1    0    0  501    0  0.00000000000E+00 -0.00000000000E+00 -0.80691556590E+03  0.80691556590E+03  0.00000000000E+00 0. -1.
         23    2    1    2    0    0 -0.71837267497E+02 -0.90264248034E+02 -0.48872628341E+03  0.51044576167E+03  0.91614780683E+02 0.  0.
          5    1    1    2  502    0 -0.16411895171E+02  0.43553962356E+02 -0.18332946951E+03  0.18919160852E+03  0.41800000000E+01 0. -1.
         -5    1    1    2    0  502  0.88249162668E+02  0.46710285678E+02 -0.10044597628E+03  0.14169203242E+03  0.41800000000E+01 0. -1.
        -11    1    3    3    0    0  0.20295182918E+02 -0.12007690576E+02 -0.48568177938E+02  0.53990249035E+02  0.00000000000E+00 0.  1.
         11    1    3    3    0    0 -0.92132450416E+02 -0.78256557458E+02 -0.44015810547E+03  0.45645551264E+03  0.00000000000E+00 0. -1.
</event>
<event>
 7    1  0.6145388E-006  0.5166316E+02  0.7561462E-02  0.1436572E+00
         -3   -1    0    0    0  501 -0.00000000000E+00  0.00000000000E+00  0.23946167719E+03  0.23946167719E+03  0.00000000000E+00 0. -1.
          3   -1    0    0  501    0  0.00000000000E+00 -0.00000000000E+00 -0.46539814492E+02  0.46539814492E+02  0.00000000000E+00 0.  1.
         23    2    1    2    0    0 -0.31746143335E+02 -0.99204690429E+01  0.77260117790E+02  0.11241674506E+03  0.74579926564E+02 0.  0.
          5    1    1    2  502    0 -0.83529530268E+01  0.22461123041E+02  0.12744800522E+03  0.12974875840E+03  0.41800000000E+01 0. -1.
         -5    1    1    2    0  502  0.40099096362E+02 -0.12540653998E+02 -0.11786260306E+02  0.43835988225E+02  0.41800000000E+01 0. -1.
        -11    1    3    3    0    0 -0.22233255426E+02  0.10501593507E+01 -0.96803606626E+01  0.24271997529E+02  0.00000000000E+00 0.  1.
         11    1    3    3    0    0 -0.95128879088E+01 -0.10970628394E+02  0.86940478453E+02  0.88144747531E+02  0.00000000000E+00 0. -1.
</event>
<event>
 7    1  0.6145388E-006  0.1170364E+03  0.7561462E-02  0.1248068E+00
         -1   -1    0    0    0  501 -0.00000000000E+00  0.00000000000E+00  0.20667542034E+02  0.20667542034E+02  0.00000000000E+00 0.  1.
          1   -1    0    0  501    0  0.00000000000E+00 -0.00000000000E+00 -0.73913215374E+03  0.73913215374E+03  0.00000000000E+00 0. -1.
         23    2    1    2    0    0 -0.56988386961E+02 -0.25606156878E+02 -0.31748412349E+03  0.33513941287E+03  0.87286344155E+02 0.  0.
          5    1    1    2  502    0 -0.16064102895E+02  0.47536233783E+02 -0.78531488107E+02  0.93286740475E+02  0.41800000000E+01 0. -1.
         -5    1    1    2    0  502  0.73052489855E+02 -0.21930076905E+02 -0.32244900012E+03  0.33137354243E+03  0.41800000000E+01 0. -1.
        -11    1    3    3    0    0  0.23108776507E+02 -0.12171415013E+02 -0.78972076549E+02  0.83179010390E+02  0.00000000000E+00 0.  1.
         11    1    3    3    0    0 -0.80097163467E+02 -0.13434741865E+02 -0.23851204694E+03  0.25196040248E+03  0.00000000000E+00 0. -1.
</event>
<event>
 7    1  0.6145388E-006  0.2012320E+03  0.7561462E-02  0.1148704E+00
          2   -1    0    0  501    0  0.00000000000E+00  0.00000000000E+00  0.58967243136E+03  0.58967243136E+03  0.00000000000E+00 0. -1.
         -2   -1    0    0    0  501 -0.00000000000E+00 -0.00000000000E+00 -0.85317617570E+02  0.85317617570E+02  0.00000000000E+00 0.  1.
         23    2    1    2    0    0  0.17952252738E+03  0.65828025915E+02  0.26928360792E+03  0.34254483057E+03  0.90893523543E+02 0.  0.
          5    1    1    2  502    0 -0.88820503300E+01 -0.73076921235E+01  0.11512088915E+03  0.11576953270E+03  0.41800000000E+01 0. -1.
         -5    1    1    2    0  502 -0.17064047705E+03 -0.58520333791E+02  0.11995031671E+03  0.21667568566E+03  0.41800000000E+01 0.  1.
        -11    1    3    3    0    0  0.15085916534E+03  0.15226612302E+02  0.21426475125E+03  0.26248756374E+03  0.00000000000E+00 0. -1.
         11    1    3    3    0    0  0.28663362042E+02  0.50601413612E+02  0.55018856667E+02  0.80057266829E+02  0.00000000000E+00 0.  1.
</event>
<event>
 7    1  0.6145388E-006  0.7299937E+02  0.7561462E-02  0.1350181E+00
         -1   -1    0    0    0  501 -0.00000000000E+00  0.00000000000E+00  0.23788627802E+02  0.23788627802E+02  0.00000000000E+00 0.  1.
          1   -1    0    0  501    0  0.00000000000E+00 -0.00000000000E+00 -0.54398812338E+03  0.54398812338E+03  0.00000000000E+00 0. -1.
         23    2    1    2    0    0 -0.26350396002E+02 -0.22563817206E+02 -0.24836339191E+03  0.26652928130E+03  0.90277428724E+02 0.  0.
          5    1    1    2  502    0 -0.16507322101E+02 -0.20413060396E+02 -0.43581171320E+01  0.26937897145E+02  0.41800000000E+01 0. -1.
         -5    1    1    2    0  502  0.42857718103E+02  0.42976877602E+02 -0.26747798654E+03  0.27430957273E+03  0.41800000000E+01 0. -1.
        -11    1    3    3    0    0 -0.51183127930E+01  0.14768331097E+02 -0.12151959861E+01  0.15677290280E+02  0.00000000000E+00 0.  1.
         11    1    3    3    0    0 -0.21232083209E+02 -0.37332148303E+02 -0.24714819592E+03  0.25085199102E+03  0.00000000000E+00 0. -1.
</event>
<event>
 7    1  0.6145388E-006  0.9406957E+02  0.7561462E-02  0.1293285E+00
         -2   -1    0    0    0  501 -0.00000000000E+00  0.00000000000E+00  0.39306915551E+02  0.39306915551E+02  0.00000000000E+00 0.  1.
          2   -1    0    0  501    0  0.00000000000E+00 -0.00000000000E+00 -0.31785738777E+03  0.31785738777E+03  0.00000000000E+00 0. -1.
         23    2    1    2    0    0 -0.15359809076E+02  0.26802163649E+01 -0.16268318840E+03  0.18595225208E+03  0.88709148183E+02 0.  0.
          5    1    1    2  502    0 -0.33791779776E+02  0.36469282777E+02 -0.14645800696E+02  0.51998700414E+02  0.41800000000E+01 0.  1.
         -5    1    1    2    0  502  0.49151588851E+02 -0.39149499142E+02 -0.10122148312E+03  0.11921335082E+03  0.41800000000E+01 0.  1.
        -11    1    3    3    0    0 -0.30162981514E+02  0.31038039913E+02 -0.14052376331E+03  0.14703772792E+03  0.00000000000E+00 0. -1.
         11    1    3    3    0    0  0.14803172439E+02 -0.28357823548E+02 -0.22159425086E+02  0.38914524162E+02  0.00000000000E+00 0.  1.
</event>
<event>
 7    1  0.6145388E-006  0.1112049E+03  0.7561462E-02  0.1258355E+00
          2   -1    0    0  501    0  0.00000000000E+00  0.00000000000E+00  0.62897448358E+03  0.62897448358E+03  0.00000000000E+00 0.  1.
         -2   -1    0    0    0  501 -0.00000000000E+00 -0.00000000000E+00 -0.20478238943E+02  0.20478238943E+02  0.00000000000E+00 0. -1.
         23    2    1    2    0    0 -0.88533891861E+01 -0.22556997145E+02  0.31546713626E+03  0.32992073808E+03  0.93493201544E+02 0.  0.
          5    1    1    2  502    0 -0.19756981141E+02 -0.46692404421E+02  0.95052103521E+02  0.10780952517E+03  0.41800000000E+01 0. -1.
         -5    1    1    2    0  502  0.28610370327E+02  0.69249401567E+02  0.19797700486E+03  0.21172245927E+03  0.41800000000E+01 0. -1.
        -11    1    3    3    0    0  0.33218283159E+02  0.18234570281E+02  0.11705735670E+03  0.12303811867E+03  0.00000000000E+00 0.  1.
         11    1    3    3    0    0 -0.42071672345E+02 -0.40791567426E+02  0.19840977956E+03  0.20688261941E+03  0.00000000000E+00 0. -1.
</event>
<event>
 7    1  0.6145388E-006  0.1057545E+03  0.7561462E-02  0.1268640E+00
         -3   -1    0    0    0  501 -0.00000000000E+00  0.00000000000E+00  0.12028346134E+03  0.12028346134E+03  0.00000000000E+00 0.  1.
          3   -1    0    0  501    0  0.00000000000E+00 -0.00000000000E+00 -0.16712780083E+03  0.16712780083E+03  0.00000000000E+00 0. -1.
         23    2    1    2    0    0 -0.88057579398E+02  0.12595278779E+02 -0.42094774689E+02  0.13384416187E+03  0.90716653778E+02 0.  0.
          5    1    1    2  502    0  0.15878573002E+02  0.68905037406E+01  0.54974460376E+02  0.57786432803E+02  0.41800000000E+01 0. -1.
         -5    1    1    2    0  502  0.72179006395E+02 -0.19485782520E+02 -0.59724025172E+02  0.95780667503E+02  0.41800000000E+01 0. -1.
        -11    1    3    3    0    0 -0.75521871851E+02  0.42314060652E+02 -0.80423059511E+01  0.86940850823E+02  0.00000000000E+00 0.  1.
         11    1    3    3    0    0 -0.12535707547E+02 -0.29718781873E+02 -0.34052468738E+02  0.46903311044E+02  0.00000000000E+00 0. -1.
</event>
<event>
 7    1  0.6145388E-006  0.1008414E+03  0.7561462E-02  0.1278536E+00
         -1   -1    0    0    0  501 -0.00000000000E+00  0.00000000000E+00  0.49885649608E+02  0.49885649608E+02  0.00000000000E+00 0.  1.
          1   -1    0    0  501    0  0.00000000000E+00 -0.00000000000E+00 -0.37882598064E+03  0.37882598064E+03  0.00000000000E+00 0. -1.
         23    2    1    2    0    0  0.11973841205E+02 -0.70149055415E+02 -0.22032225822E+03  0.24840214254E+03  0.89985910567E+02 0.  0.
          5    1    1    2  502    0 -0.20285805925E+02  0.78265931149E+02 -0.10755866934E+02  0.81671482013E+02  0.41800000000E+01 0. -1.
         -5    1    1    2    0  502  0.83119647197E+01 -0.81168757340E+01 -0.97862205879E+02  0.98638005701E+02  0.41800000000E+01 0. -1.
        -11    1    3    3    0    0 -0.23847906536E+02 -0.68481802187E+02 -0.18201833780E+03  0.19593150633E+03  0.00000000000E+00 0. -1.
         11    1    3    3    0    0  0.35821747740E+02 -0.16672532284E+01 -0.38303920424E+02  0.52470636211E+02  0.00000000000E+00 0.  1.
</event>
<event>
 7    1  0.6145388E-006  0.9752469E+02  0.7561462E-02  0.1285589E+00
          1   -1    0    0  501    0  0.00000000000E+00  0.00000000000E+00  0.14612226300E+03  0.14612226300E+03  0.00000000000E+00 0. -1.
         -1   -1    0    0    0  501 -0.00000000000E+00 -0.00000000000E+00 -0.11374101657E+03  0.11374101657E+03  0.00000000000E+00 0.  1.
         23    2    1    2    0    0 -0.35987844246E+02 -0.29312738395E+02  0.74494189204E+02  0.11994858733E+03  0.81755231091E+02 0.  0.
          5    1    1    2  502    0 -0.27596523562E+02 -0.14769932820E+02  0.22705722053E+02  0.38893974368E+02  0.41800000000E+01 0.  1.
         -5    1    1    2    0  502  0.63584367808E+02  0.44082671214E+02 -0.64818664829E+02  0.10102071788E+03  0.41800000000E+01 0.  1.
        -11    1    3    3    0    0 -0.35560435730E+02  0.17179740531E+02  0.10531584318E+02  0.40873002609E+02  0.00000000000E+00 0.  1.
         11    1    3    3    0    0 -0.42740851624E+00 -0.46492478925E+02  0.63962604886E+02  0.79075584718E+02  0.00000000000E+00 0. -1.
</event>
<event>
 7    1  0.6145388E-006  0.2107241E+03  0.7561462E-02  0.1140994E+00
         -2   -1    0    0    0  501 -0.00000000000E+00  0.00000000000E+00  0.38318675878E+03  0.38318675878E+03  0.00000000000E+00 0.  1.
          2   -1    0    0  501    0  0.00000000000E+00 -0.00000000000E+00 -0.19548992399E+03  0.19548992399E+03  0.00000000000E+00 0. -1.
         23    2    1    2    0    0 -0.54282232220E+02  0.66636072183E+02 -0.16514784140E+02  0.12702886658E+03  0.92068822082E+02 0.  0.
          5    1    1    2  502    0  0.78267279171E+02  0.10893972087E+03 -0.48731598174E+02  0.14277909802E+03  0.41800000000E+01 0. -1.
         -5    1    1    2    0  502 -0.23985046951E+02 -0.17557579305E+03  0.25294321711E+03  0.30886871817E+03  0.41800000000E+01 0.  1.
        -11    1    3    3    0    0 -0.59451381919E+02  0.19499029665E+02 -0.39848345121E+02  0.74179306945E+02  0.00000000000E+00 0. -1.
         11    1    3    3    0    0  0.51691496989E+01  0.47137042518E+02  0.23333560981E+02  0.52849559638E+02  0.00000000000E+00 0.  1.
</event>
<event>
 7    1  0.6145388E-006  0.1662499E+03  0.7561462E-02  0.1181816E+00
         -1   -1    0    0    0  501 -0.00000000000E+00  0.00000000000E+00  0.19083848154E+04  0.19083848154E+04  0.00000000000E+00 0.  1.
          1   -1    0    0  501    0  0.00000000000E+00 -0.00000000000E+00 -0.15809620988E+02  0.15809620988E+02  0.00000000000E+00 0. -1.
         23    2    1    2    0    0  0.82601073408E+02 -0.10003735623E+03  0.70760406228E+03  0.72559752345E+03  0.94645903851E+02 0.  0.
          5    1    1    2  502    0  0.26167929556E+02 -0.36414924100E+00  0.31498041877E+03  0.31609338770E+03  0.41800000000E+01 0.  1.
         -5    1    1    2    0  502 -0.10876900296E+03  0.10040150547E+03  0.86999071336E+03  0.88250352523E+03  0.41800000000E+01 0.  1.
        -11    1    3    3    0    0 -0.88927090339E+01 -0.55406188217E+02  0.19163427611E+03  0.19968130044E+03  0.00000000000E+00 0. -1.
         11    1    3    3    0    0  0.91493782442E+02 -0.44631168017E+02  0.51596978617E+03  0.52591622301E+03  0.00000000000E+00 0.  1.
</event>
<event>
 7    1  0.6145388E-006  0.3568795E+03  0.7561462E-02  0.1059826E+00
         -1   -1    0    0    0  501 -0.00000000000E+00  0.00000000000E+00  0.65822814736E+03  0.65822814736E+03  0.00000000000E+00 0.  1.
          1   -1    0    0  501    0  0.00000000000E+00 -0.00000000000E+00 -0.25724335379E+03  0.25724335379E+03  0.00000000000E+00 0. -1.
         23    2    1    2    0    0  0.25887161270E+03  0.23981896743E+03 -0.59206233213E+00  0.36643788764E+03  0.98735636734E+02 0.  0.
          5    1    1    2  502    0 -0.24944893657E+03 -0.22368611669E+03  0.40879375856E+03  0.52857360906E+03  0.41800000000E+01 0.  1.
         -5    1    1    2    0  502 -0.94226761316E+01 -0.16132850731E+02 -0.72169026578E+01  0.20460004452E+02  0.41800000000E+01 0.  1.
        -11    1    3    3    0    0  0.10756208037E+03  0.55409462936E+02  0.33320082290E+02  0.12549915378E+03  0.00000000000E+00 0.  1.
         11    1    3    3    0    0  0.15130953233E+03  0.18440950449E+03 -0.33912144622E+02  0.24093873386E+03  0.00000000000E+00 0. -1.
</event>
<event>
 7    1  0.6145388E-006  0.1861749E+03  0.7561462E-02  0.1161957E+00
          2   -1    0    0  501    0  0.00000000000E+00  0.00000000000E+00  0.31736811450E+03  0.31736811450E+03  0.00000000000E+00 0. -1.
         -2   -1    0    0    0  501 -0.00000000000E+00 -0.00000000000E+00 -0.13840254901E+03  0.13840254901E+03  0.00000000000E+00 0.  1.
         23    2    1    2    0    0  0.44573261514E+02 -0.15897274622E+03  0.16284107569E+03  0.24800933397E+03  0.87933521035E+02 0.  0.
          5    1    1    2  502    0  0.26506814023E+02  0.35201778377E+02 -0.34649398174E+02  0.56212361491E+02  0.41800000000E+01 0.  1.
         -5    1    1    2    0  502 -0.71080075537E+02  0.12377096784E+03  0.50773887975E+02  0.15154896806E+03  0.41800000000E+01 0.  1.
        -11    1    3    3    0    0 -0.13418748335E+02 -0.10570286689E+03  0.76609268495E+02  0.13123314709E+03  0.00000000000E+00 0. -1.
         11    1    3    3    0    0  0.57992009849E+02 -0.53269879328E+02  0.86231807192E+02  0.11677618688E+03  0.00000000000E+00 0.  1.
</event>
<event>
 7    1  0.6145388E-006  0.1157545E+03  0.7561462E-02  0.1250270E+00
         -3   -1    0    0    0  501 -0.00000000000E+00  0.00000000000E+00  0.38118015115E+02  0.38118015115E+02  0.00000000000E+00 0.  1.
          3   -1    0    0  501    0  0.00000000000E+00 -0.00000000000E+00 -0.53153923725E+03  0.53153923725E+03  0.00000000000E+00 0. -1.
         23    2    1    2    0    0  0.19455612190E+02  0.60937362456E+02 -0.35676351464E+03  0.37366930348E+03  0.90866165321E+02 0.  0.
          5    1    1    2  502    0 -0.38223831149E+02 -0.82800066468E+02 -0.13951829172E+03  0.16673253551E+03  0.41800000000E+01 0.  1.
         -5    1    1    2    0  502  0.18768218960E+02  0.21862704011E+02  0.28605842159E+01  0.29255413374E+02  0.41800000000E+01 0.  1.
        -11    1    3    3    0    0  0.25565844359E+02 -0.18418923013E+02 -0.10464192193E+03  0.10928312289E+03  0.00000000000E+00 0. -1.
         11    1    3    3    0    0 -0.61102321695E+01  0.79356285470E+02 -0.25212159270E+03  0.26438618059E+03  0.00000000000E+00 0.  1.
</event>
<event>
 7    1  0.6145388E-006  0.8705704E+02  0.7561462E-02  0.1310139E+00
         -1   -1    0    0    0  501 -0.00000000000E+00  0.00000000000E+00  0.21793367159E+03  0.21793367159E+03  0.00000000000E+00 0.  1.
          1   -1    0    0  501    0  0.00000000000E+00 -0.00000000000E+00 -0.58824355161E+02  0.58824355161E+02  0.00000000000E+00 0. -1.
         23    2    1    2    0    0  0.16178614364E+02  0.28911409862E+02  0.41977240618E+02  0.10221533237E+03  0.87110666728E+02 0.  0.
          5    1    1    2  502    0  0.40690374313E+02  0.13187094571E+02  0.87954254294E+02  0.97892948027E+02  0.41800000000E+01 0.  1.
         -5    1    1    2    0  502 -0.56868988677E+02 -0.42098504432E+02  0.29177821520E+02  0.76649746361E+02  0.41800000000E+01 0.  1.
        -11    1    3    3    0    0  0.16685640724E+01 -0.14443111276E+02  0.53190723114E+02  0.55142003906E+02  0.00000000000E+00 0.  1.
         11    1    3    3    0    0  0.14510050291E+02  0.43354521138E+02 -0.11213482496E+02  0.47073328459E+02  0.00000000000E+00 0. -1.
</event>
<event>
 7    1  0.6145388E-006  0.1093495E+03  0.7561462E-02  0.1261779E+00
         -1   -1    0    0    0  501 -0.00000000000E+00  0.00000000000E+00  0.51941639344E+03  0.51941639344E+03  0.00000000000E+00 0.  1.
          1   -1    0    0  501    0  0.00000000000E+00 -0.00000000000E+00 -0.32362710266E+02  0.32362710266E+02  0.00000000000E+00 0. -1.
         23    2    1    2    0    0  0.11379318041E+02  0.26051852076E+02  0.77140429856E+02  0.12226236216E+03  0.90494482737E+02 0.  0.
          5    1    1    2  502    0 -0.46091241274E+02  0.32369698245E+02  0.13582622696E+03  0.14710008911E+03  0.41800000000E+01 0. -1.
         -5    1    1    2    0  502  0.34711923233E+02 -0.58421550320E+02  0.27408702636E+03  0.28241665244E+03  0.41800000000E+01 0. -1.
        -11    1    3    3    0    0  0.33398356379E+02 -0.22877162023E+02  0.40685271495E+02  0.57394303443E+02  0.00000000000E+00 0.  1.
         11    1    3    3    0    0 -0.22019038338E+02  0.48929014099E+02  0.36455158360E+02  0.64868058712E+02  0.00000000000E+00 0. -1.
</event>
<event>
 7    1  0.6145388E-006  0.3712066E+03  0.7561462E-02  0.1054233E+00
         -2   -1    0    0    0  501 -0.00000000000E+00  0.00000000000E+00  0.12133516874E+03  0.12133516874E+03  0.00000000000E+00 0.  1.
          2   -1    0    0  501    0  0.00000000000E+00 -0.00000000000E+00 -0.12225314463E+04  0.12225314463E+04  0.00000000000E+00 0. -1.
         23    2    1    2    0    0  0.36649723775E+03 -0.19356982333E+02 -0.46801922456E+03  0.60139397198E+03  0.89094314789E+02 0.  0.
          5    1    1    2  502    0 -0.57179621002E+02  0.31285173368E+02 -0.50121610773E+02  0.82328120330E+02  0.41800000000E+01 0.  1.
         -5    1    1    2    0  502 -0.30931761675E+03 -0.11928191036E+02 -0.58305544221E+03  0.66014452271E+03  0.41800000000E+01 0.  1.
        -11    1    3    3    0    0  0.23722084160E+03 -0.31974126027E+01 -0.36488958756E+03  0.43523368694E+03  0.00000000000E+00 0. -1.
         11    1    3    3    0    0  0.12927639615E+03 -0.16159569730E+02 -0.10312963700E+03  0.16616028504E+03  0.00000000000E+00 0.  1.
</event>
<event>
 7    1  0.6145388E-006  0.1630469E+03  0.7561462E-02  0.1185299E+00
          1   -1    0    0  501    0  0.00000000000E+00  0.00000000000E+00  0.88899153352E+03  0.88899153352E+03  0.00000000000E+00 0. -1.
         -1   -1    0    0    0  501 -0.00000000000E+00 -0.00000000000E+00 -0.38443024668E+02  0.38443024668E+02  0.00000000000E+00 0.  1.
         23    2    1    2    0    0  0.11380652136E+03  0.71388404046E+02  0.56626591627E+03  0.58903731995E+03  0.90882604679E+02 0.  0.
          5    1    1    2  502    0 -0.12284643928E+03 -0.85748320254E+02  0.18743806298E+03  0.23998858708E+03  0.41800000000E+01 0. -1.
         -5    1    1    2    0  502  0.90399179205E+01  0.14359916208E+02  0.96844529607E+02  0.98408651166E+02  0.41800000000E+01 0. -1.
        -11    1    3    3    0    0  0.91202937877E+02  0.90988190300E+02  0.40422902285E+03  0.42426162867E+03  0.00000000000E+00 0.  1.
         11    1    3    3    0    0  0.22603583487E+02 -0.19599786254E+02  0.16203689342E+03  0.16477569128E+03  0.00000000000E+00 0. -1.
</event>
<event>
 7    1  0.6145388E-006  0.1014089E+03  0.7561462E-02  0.1277361E+00
          1   -1    0    0  501    0  0.00000000000E+00  0.00000000000E+00  0.26482615328E+02  0.26482615328E+02  0.00000000000E+00 0. -1.
         -1   -1    0    0    0  501 -0.00000000000E+00 -0.00000000000E+00 -0.12244299831E+04  0.12244299831E+04  0.00000000000E+00 0.  1.
         23    2    1    2    0    0 -0.82016169838E+02 -0.56749127580E+01 -0.14873585220E+03  0.19217030572E+03  0.89711849400E+02 0.  0.
          5    1    1    2  502    0  0.10987824366E+02 -0.24718655933E+00 -0.62058713621E+01  0.13295812305E+02  0.41800000000E+01 0. -1.
         -5    1    1    2    0  502  0.71028345472E+02  0.59220993173E+01 -0.10430056442E+04  0.10454464804E+04  0.41800000000E+01 0.  1.
        -11    1    3    3    0    0 -0.40014465984E+02  0.40712373210E+02 -0.53639646297E+02  0.78331771812E+02  0.00000000000E+00 0.  1.
         11    1    3    3    0    0 -0.42001703854E+02 -0.46387285968E+02 -0.95096205899E+02  0.11383853391E+03  0.00000000000E+00 0. -1.
</event>
<event>
 7    1  0.6145388E-006  0.1168216E+03  0.7561462E-02  0.1248434E+00
          2   -1    0    0  501    0  0.00000000000E+00  0.00000000000E+00  0.14349901281E+04  0.14349901281E+04  0.00000000000E+00 0. -1.
         -2   -1    0    0    0  501 -0.00000000000E+00 -0.00000000000E+00 -0.10079585373E+02  0.10079585373E+02  0.00000000000E+00 0.  1.
         23    2    1    2    0    0  0.45016577101E+02  0.80401538057E+01  0.49820271622E+03  0.50883987546E+03  0.92848996342E+02 0.  0.
          5    1    1    2  502    0 -0.79998217217E+02 -0.36054272396E+02  0.58084504263E+03  0.58745047558E+03  0.41800000000E+01 0.  1.
         -5    1    1    2    0  502  0.34981640116E+02  0.28014118590E+02  0.34586278388E+03  0.34877936243E+03  0.41800000000E+01 0.  1.
        -11    1    3    3    0    0  0.62353956694E+02  0.32881136048E+02  0.39665152516E+03  0.40286674898E+03  0.00000000000E+00 0. -1.
         11    1    3    3    0    0 -0.17337379593E+02 -0.24840982242E+02  0.10155119106E+03  0.10597312648E+03  0.00000000000E+00 0.  1.
</event>
<event>
 7    1  0.6145388E-006  0.1035631E+03  0.7561462E-02  0.1272977E+00
         -1   -1    0    0    0  501 -0.00000000000E+00  0.00000000000E+00  0.43087540532E+03  0.43087540532E+03  0.00000000000E+00 0.  1.
          1   -1    0    0  501    0  0.00000000000E+00 -0.00000000000E+00 -0.29727486688E+02  0.29727486688E+02  0.00000000000E+00 0. -1.
         23    2    1    2    0    0  0.17555872291E+02  0.28329777685E+02  0.18982950891E+03  0.21276645101E+03  0.90130656636E+02 0.  0.
          5    1    1    2  502    0 -0.14372454483E+01  0.42085652168E+02  0.13993649603E+03  0.14619494901E+03  0.41800000000E+01 0. -1.
         -5    1    1    2    0  502 -0.16118626843E+02 -0.70415429853E+02  0.71381913685E+02  0.10164149199E+03  0.41800000000E+01 0. -1.
        -11    1    3    3    0    0  0.94737402779E+01 -0.31081330783E+02  0.96623137506E+02  0.10194033343E+03  0.00000000000E+00 0.  1.
         11    1    3    3    0    0  0.80821320131E+01  0.59411108468E+02  0.93206371405E+02  0.11082611758E+03  0.00000000000E+00 0. -1.
</event>
<event>
 7    1  0.6145388E-006  0.1775149E+03  0.7561462E-02  0.1170230E+00
          1   -1    0    0  501    0  0.00000000000E+00  0.00000000000E+00  0.31820497564E+03  0.31820497564E+03  0.00000000000E+00 0. -1.
         -1   -1    0    0    0  501 -0.00000000000E+00 -0.00000000000E+00 -0.11023686166E+03  0.11023686166E+03  0.00000000000E+00 0.  1.
         23    2    1    2    0    0  0.98092596247E+02  0.10969641206E+03  0.14490878131E+03  0.22526917346E+03  0.89956574833E+02 0.  0.
          5    1    1    2  502    0 -0.62794721023E+02  0.13227691886E+02  0.12091214965E+02  0.65435607282E+02  0.41800000000E+01 0.  1.
         -5    1    1    2    0  502 -0.35297875224E+02 -0.12292410394E+03  0.50968117703E+02  0.13773705655E+03  0.41800000000E+01 0.  1.
        -11    1    3    3    0    0  0.10361158924E+03  0.75699607096E+02  0.14093267573E+03  0.19059855987E+03  0.00000000000E+00 0. -1.
         11    1    3    3    0    0 -0.55189929878E+01  0.33996804961E+02  0.39761055834E+01  0.34670613591E+02  0.00000000000E+00 0.  1.
</event>
<event>
 7    1  0.6145388E-006  0.2581633E+03  0.7561462E-02  0.1108252E+00
          2   -1    0    0  501    0  0.00000000000E+00  0.00000000000E+00  0.20018888614E+03  0.20018888614E+03  0.00000000000E+00 0. -1.
         -2   -1    0    0    0  501 -0.00000000000E+00 -0.00000000000E+00 -0.46363468318E+03  0.46363468318E+03  0.00000000000E+00 0.  1.
         23    2    1    2    0    0  0.56281731546E+02 -0.24338661464E+03  0.19148454340E+02  0.26644364160E+03  0.90669031936E+02 0.  0.
          5    1    1    2  502    0  0.74800026375E+00  0.21139306917E+02  0.11426989271E+02  0.24402423755E+02  0.41800000000E+01 0. -1.
         -5    1    1    2    0  502 -0.57029731810E+02  0.22224730773E+03 -0.29402124065E+03  0.37297750396E+03  0.41800000000E+01 0. -1.
        -11    1    3    3    0    0 -0.79556569881E+01 -0.15912708705E+03  0.36900431116E+01  0.15936856255E+03  0.00000000000E+00 0.  1.
         11    1    3    3    0    0  0.64237388534E+02 -0.84259527595E+02  0.15458411229E+02  0.10707507905E+03  0.00000000000E+00 0. -1.
</event>
<event>
 7    1  0.6145388E-006  0.7605264E+02  0.7561462E-02  0.1340642E+00
          2   -1    0    0  501    0  0.00000000000E+00  0.00000000000E+00  0.67621779242E+02  0.67621779242E+02  0.00000000000E+00 0. -1.
         -2   -1    0    0    0  501 -0.00000000000E+00 -0.00000000000E+00 -0.25130313043E+03  0.25130313043E+03  0.00000000000E+00 0.  1.
         23    2    1    2    0    0  0.17686245614E+02  0.96898868384E+01  0.13380803166E+01  0.94678224279E+02  0.92495829651E+02 0.  0.
          5    1    1    2  502    0 -0.46245134602E+02 -0.37050058414E+01 -0.11151176769E+02  0.47897397486E+02  0.41800000000E+01 0.  1.
         -5    1    1    2    0  502  0.28558888987E+02 -0.59848809970E+01 -0.17386825474E+03  0.17634928791E+03  0.41800000000E+01 0.  1.
        -11    1    3    3    0    0  0.23346873575E+02 -0.28838793312E+02  0.28847616555E+02  0.46999334956E+02  0.00000000000E+00 0. -1.
         11    1    3    3    0    0 -0.56606279611E+01  0.38528680150E+02 -0.27509536238E+02  0.47678889323E+02  0.00000000000E+00 0.  1.
</event>
<event>
 7    1  0.6145388E-006  0.1474387E+03  0.7561462E-02  0.1203656E+00
          3   -1    0    0  501    0  0.00000000000E+00  0.00000000000E+00  0.24910078391E+03  0.24910078391E+03  0.00000000000E+00 0. -1.
         -3   -1    0    0    0  501 -0.00000000000E+00 -0.00000000000E+00 -0.11231691400E+03  0.11231691400E+03  0.00000000000E+00 0.  1.
         23    2    1    2    0    0 -0.10084262306E+03 -0.19545266528E+02  0.14495779144E+03  0.19934966377E+03  0.90422757521E+02 0.  0.
          5    1    1    2  502    0 -0.16564014323E+02  0.38523826289E+02  0.45453633299E+01  0.42386135590E+02  0.41800000000E+01 0. -1.
         -5    1    1    2    0  502  0.11740663738E+03 -0.18978559761E+02 -0.12719284859E+02  0.11968189855E+03  0.41800000000E+01 0. -1.
        -11    1    3    3    0    0 -0.72130721008E+02 -0.53100953686E+02  0.11593361955E+03  0.14650309327E+03  0.00000000000E+00 0. -1.
         11    1    3    3    0    0 -0.28711902051E+02  0.33555687157E+02  0.29024171889E+02  0.52846570502E+02  0.00000000000E+00 0.  1.
</event>
<event>
 7    1  0.6145388E-006  0.2213966E+03  0.7561462E-02  0.1132846E+00
          2   -1    0    0  501    0  0.00000000000E+00  0.00000000000E+00  0.44460386814E+03  0.44460386814E+03  0.00000000000E+00 0. -1.
         -2   -1    0    0    0  501 -0.00000000000E+00 -0.00000000000E+00 -0.11699801204E+03  0.11699801204E+03  0.00000000000E+00 0.  1.
         23    2    1    2    0    0 -0.14798596008E+03 -0.13641529498E+03  0.16098286628E+03  0.27191392885E+03  0.86675973486E+02 0.  0.
          5    1    1    2  502    0  0.39258622195E+02 -0.18626223402E+02  0.53563322104E+02  0.69099041163E+02  0.41800000000E+01 0.  1.
         -5    1    1    2    0  502  0.10872733789E+03  0.15504151838E+03  0.11305966771E+03  0.22058891017E+03  0.41800000000E+01 0.  1.
        -11    1    3    3    0    0 -0.80336015971E+01 -0.37492359969E+02  0.65043771776E+02  0.75504357871E+02  0.00000000000E+00 0.  1.
         11    1    3    3    0    0 -0.13995235849E+03 -0.98922935012E+02  0.95939094501E+02  0.19640957098E+03  0.00000000000E+00 0. -1.
</event>
<event>
 6    1  0.6145388E-006  0.8062203E+02  0.7561462E-02  0.1327295E+00
         -3   -1    0    0    0  501 -0.00000000000E+00  0.00000000000E+00  0.12089248159E+03  0.12089248159E+03  0.00000000000E+00 0.  1.
          3   -1    0    0  501    0  0.00000000000E+00 -0.00000000000E+00 -0.91621720913E+02  0.91621720913E+02  0.00000000000E+00 0. -1.
          5    1    1    2  502    0  0.51021775841E+02  0.31487538241E+02  0.16256160524E+01  0.60123220988E+02  0.41800000000E+01 0.  1.
         -5    1    1    2    0  502 -0.51607067033E+02 -0.13459060879E+01  0.70192233499E+02  0.87232579203E+02  0.41800000000E+01 0.  1.
        -11    1    1    2    0    0  0.44630954636E+01  0.89842152552E+01 -0.85884056455E+01  0.13205909904E+02  0.00000000000E+00 0.  1.
         11    1    1    2    0    0 -0.38778042719E+01 -0.39125847408E+02 -0.33958683225E+02  0.51952492411E+02  0.00000000000E+00 0. -1.
</event>
<event>
 7    1  0.6145388E-006  0.8773787E+02  0.7561462E-02  0.1308424E+00
          2   -1    0    0  501    0  0.00000000000E+00  0.00000000000E+00  0.55124130600E+02  0.55124130600E+02  0.00000000000E+00 0. -1.
         -2   -1    0    0    0  501 -0.00000000000E+00 -0.00000000000E+00 -0.53032574189E+03  0.53032574189E+03  0.00000000000E+00 0.  1.
         23    2    1    2    0    0 -0.28417044114E+02  0.36089890454E+00 -0.13576208840E+01  0.94548646178E+02  0.90166206061E+02 0.  0.
          5    1    1    2  502    0 -0.26251957627E+01 -0.55283775637E+02 -0.31648373476E+03  0.32131388745E+03  0.41800000000E+01 0. -1.
         -5    1    1    2    0  502  0.31042239877E+02  0.54922876732E+02 -0.15736025565E+03  0.16958733887E+03  0.41800000000E+01 0. -1.
        -11    1    3    3    0    0  0.50453193775E+01 -0.17918838992E+02 -0.37591635136E+02  0.41948433471E+02  0.00000000000E+00 0.  1.
         11    1    3    3    0    0 -0.33462363492E+02  0.18279737897E+02  0.36234014252E+02  0.52600212707E+02  0.00000000000E+00 0. -1.
</event>
<event>
 7    1  0.6145388E-006  0.1040213E+03  0.7561462E-02  0.1272060E+00
         -2   -1    0    0    0  501 -0.00000000000E+00  0.00000000000E+00  0.10640603265E+03  0.10640603265E+03  0.00000000000E+00 0. -1.
          2   -1    0    0  501    0  0.00000000000E+00 -0.00000000000E+00 -0.13051409384E+03  0.13051409384E+03  0.00000000000E+00 0.  1.
         23    2    1    2    0    0  0.56572685303E+02 -0.31901441824E+00 -0.33462457218E+02  0.99312947120E+02  0.74449680524E+02 0.  0.
          5    1    1    2  502    0 -0.80014153553E+02  0.23934291392E+02 -0.27262761489E+02  0.87953656190E+02  0.41800000000E+01 0. -1.
         -5    1    1    2    0  502  0.23441468250E+02 -0.23615276974E+02  0.36617157516E+02  0.49653523186E+02  0.41800000000E+01 0. -1.
        -11    1    3    3    0    0  0.40745964966E+02  0.34015684280E+02 -0.30904283808E+02  0.61419664569E+02  0.00000000000E+00 0. -1.
         11    1    3    3    0    0  0.15826720337E+02 -0.34334698699E+02 -0.25581734105E+01  0.37893282552E+02  0.00000000000E+00 0.  1.
</event>
<event>
 7    1  0.6145388E-006  0.7636361E+02  0.7561462E-02  0.1339700E+00
         -1   -1    0    0    0  501 -0.00000000000E+00  0.00000000000E+00  0.26037473254E+03  0.26037473254E+03  0.00000000000E+00 0.  1.
          1   -1    0    0  501    0  0.00000000000E+00 -0.00000000000E+00 -0.51052918597E+02  0.51052918597E+02  0.00000000000E+00 0. -1.
         23    2    1    2    0    0  0.17325595370E+02 -0.21573316142E+02  0.95015866954E+02  0.13966361624E+03  0.98551136490E+02 0.  0.
          5    1    1    2  502    0 -0.46429943393E+01 -0.24430829048E+02  0.12081692990E+03  0.12342052404E+03  0.41800000000E+01 0.  1.
         -5    1    1    2    0  502 -0.12682601031E+02  0.46004145190E+02 -0.65109829109E+01  0.48343510858E+02  0.41800000000E+01 0.  1.
        -11    1    3    3    0    0  0.45512885601E+02 -0.25164505918E+01  0.80620286328E+01  0.46289864820E+02  0.00000000000E+00 0. -1.
         11    1    3    3    0    0 -0.28187290231E+02 -0.19056865550E+02  0.86953838321E+02  0.93373751419E+02  0.00000000000E+00 0.  1.
</event>
<event>
 7    1  0.6145388E-006  0.1583229E+03  0.7561462E-02  0.1190603E+00
         -2   -1    0    0    0  501 -0.00000000000E+00  0.00000000000E+00  0.39217675697E+03  0.39217675697E+03  0.00000000000E+00 0.  1.
          2   -1    0    0  501    0  0.00000000000E+00 -0.00000000000E+00 -0.81916077920E+02  0.81916077920E+02  0.00000000000E+00 0. -1.
         23    2    1    2    0    0  0.11613884720E+03  0.70739401558E+02  0.85984543824E+02  0.18350740872E+03  0.88257195271E+02 0.  0.
          5    1    1    2  502    0  0.16867485308E+02 -0.28129187585E+02  0.95784085285E+01  0.34423561186E+02  0.41800000000E+01 0.  1.
         -5    1    1    2    0  502 -0.13300633251E+03 -0.42610213973E+02  0.21469772670E+03  0.25616186499E+03  0.41800000000E+01 0.  1.
        -11    1    3    3    0    0  0.32091346300E+02  0.46283767402E+02 -0.58680295186E+01  0.56625748584E+02  0.00000000000E+00 0.  1.
         11    1    3    3    0    0  0.84047500900E+02  0.24455634156E+02  0.91852573342E+02  0.12688166014E+03  0.00000000000E+00 0. -1.
</event>
<event>
 7    1  0.6145388E-006  0.2042882E+03  0.7561462E-02  0.1146171E+00
         -1   -1    0    0    0  501 -0.00000000000E+00  0.00000000000E+00  0.40552995239E+02  0.40552995239E+02  0.00000000000E+00 0.  1.
          1   -1    0    0  501    0  0.00000000000E+00 -0.00000000000E+00 -0.12694533265E+04  0.12694533265E+04  0.00000000000E+00 0. -1.
         23    2    1    2    0    0  0.14945823301E+03  0.88046495024E+02 -0.87376813505E+03  0.89545141157E+03  0.90953438356E+02 0.  0.
          5    1    1    2  502    0 -0.34850290440E+02 -0.91474943048E+02 -0.14234040881E+03  0.17280182965E+03  0.41800000000E+01 0. -1.
         -5    1    1    2    0  502 -0.11460794257E+03  0.34284480238E+01 -0.21279178738E+03  0.24175308051E+03  0.41800000000E+01 0. -1.
        -11    1    3    3    0    0  0.22770819296E+02 -0.19270885087E+02 -0.13250297233E+03  0.13581942019E+03  0.00000000000E+00 0.  1.
         11    1    3    3    0    0  0.12668741372E+03  0.10731738011E+03 -0.74126516272E+03  0.75963199138E+03  0.00000000000E+00 0. -1.
</event>
<event>
 7    1  0.6145388E-006  0.8897293E+02  0.7561462E-02  0.1305358E+00
          1   -1    0    0  501    0  0.00000000000E+00  0.00000000000E+00  0.91467245680E+02  0.91467245680E+02  0.00000000000E+00 0.  1.
         -1   -1    0    0    0  501 -0.00000000000E+00 -0.00000000000E+00 -0.14115433474E+03  0.14115433474E+03  0.00000000000E+00 0. -1.
         23    2    1    2    0    0  0.56927735846E+00 -0.40466810507E+02 -0.33277070031E+02  0.10013152866E+03  0.85329202578E+02 0.  0.
          5    1    1    2  502    0 -0.33743097809E+02  0.56413305741E+02 -0.49834581852E+02  0.82595494203E+02  0.41800000000E+01 0.  1.
         -5    1    1    2    0  502  0.33173820450E+02 -0.15946495234E+02  0.33424562824E+02  0.49894557554E+02  0.41800000000E+01 0.  1.
        -11    1    3    3    0    0 -0.29585239875E+02 -0.78393299199E+01  0.15370976469E+02  0.34249210643E+02  0.00000000000E+00 0.  1.
         11    1    3    3    0    0  0.30154517234E+02 -0.32627480587E+02 -0.48648046500E+02  0.65882318017E+02  0.00000000000E+00 0. -1.
</event>
<event>
 7    1  0.6145388E-006  0.1617386E+03  0.7561462E-02  0.1186748E+00
         -1   -1    0    0    0  501 -0.00000000000E+00  0.00000000000E+00  0.41513282889E+02  0.41513282889E+02  0.00000000000E+00 0.  1.
          1   -1    0    0  501    0  0.00000000000E+00 -0.00000000000E+00 -0.71155799185E+03  0.71155799185E+03  0.00000000000E+00 0. -1.
         23    2    1    2    0    0  0.63423402310E+02  0.91857407944E+02 -0.33674996510E+03  0.36677263012E+03  0.93066169242E+02 0.  0.
          5    1    1    2  502    0 -0.10822506310E+03 -0.46561827318E+02 -0.14160371297E+03  0.18425458467E+03  0.41800000000E+01 0. -1.
         -5    1    1    2    0  502  0.44801660792E+02 -0.45295580626E+02 -0.19169103090E+03  0.20204405995E+03  0.41800000000E+01 0.  1.
        -11    1    3    3    0    0  0.79186500467E+02  0.42382617797E+02 -0.25030737522E+03  0.26593339436E+03  0.00000000000E+00 0. -1.
         11    1    3    3    0    0 -0.15763098157E+02  0.49474790147E+02 -0.86442589882E+02  0.10083923576E+03  0.00000000000E+00 0.  1.
</event>
<event>
 7    1  0.6145388E-006  0.7343489E+02  0.7561462E-02  0.1348787E+00
         -1   -1    0    0    0  501 -0.00000000000E+00  0.00000000000E+00  0.47287661565E+03  0.47287661565E+03  0.00000000000E+00 0.  1.
          1   -1    0    0  501    0  0.00000000000E+00 -0.00000000000E+00 -0.28770940020E+02  0.28770940020E+02  0.00000000000E+00 0. -1.
         23    2    1    2    0    0  0.11772079301E+02 -0.17086401897E+02  0.10964576315E+03  0.14395881165E+03  0.90947342425E+02 0.  0.
          5    1    1    2  502    0 -0.40449781573E+02  0.45429869194E+02  0.83030958862E+02  0.10301296216E+03  0.41800000000E+01 0. -1.
         -5    1    1    2    0  502  0.28677702272E+02 -0.28343467296E+02  0.25142895362E+03  0.25467578185E+03  0.41800000000E+01 0. -1.
        -11    1    3    3    0    0  0.23133552513E+02 -0.22941233406E+02  0.12194421764E+03  0.12622144690E+03  0.00000000000E+00 0.  1.
         11    1    3    3    0    0 -0.11361473212E+02  0.58548315089E+01 -0.12298454488E+02  0.17737364751E+02  0.00000000000E+00 0. -1.
</event>
<event>
 7    1  0.6145388E-006  0.1579091E+03  0.7561462E-02  0.1191078E+00
         -1   -1    0    0    0  501 -0.00000000000E+00  0.00000000000E+00  0.91614022553E+02  0.91614022553E+02  0.00000000000E+00 0.  1.
          1   -1    0    0  501    0  0.00000000000E+00 -0.00000000000E+00 -0.42784609989E+03  0.42784609989E+03  0.00000000000E+00 0. -1.
         23    2    1    2    0    0 -0.97859716597E+02 -0.61210197656E+02 -0.31583165097E+03  0.34803955374E+03  0.89770188723E+02 0.  0.
          5    1    1    2  502    0  0.12781775198E+03  0.55526142181E+02 -0.16235049770E+02  0.14036231484E+03  0.41800000000E+01 0. -1.
         -5    1    1    2    0  502 -0.29958035384E+02  0.56840554749E+01 -0.41653765985E+01  0.31058253862E+02  0.41800000000E+01 0. -1.
        -11    1    3    3    0    0 -0.82578517486E+02 -0.48628344427E-01 -0.16325155551E+03  0.18294885703E+03  0.00000000000E+00 0.  1.
         11    1    3    3    0    0 -0.15281199111E+02 -0.61161569312E+02 -0.15258009547E+03  0.16509069671E+03  0.00000000000E+00 0. -1.
</event>
<event>
 7    1  0.6145388E-006  0.1224387E+03  0.7561462E-02  0.1239127E+00
          1   -1    0    0  501    0  0.00000000000E+00  0.00000000000E+00  0.13970910456E+03  0.13970910456E+03  0.00000000000E+00 0. -1.
         -1   -1    0    0    0  501 -0.00000000000E+00 -0.00000000000E+00 -0.11595777296E+03  0.11595777296E+03  0.00000000000E+00 0.  1.
         23    2    1    2    0    0  0.60373583473E+02 -0.64744160637E+01  0.39148386220E+02  0.11576574299E+03  0.90455643619E+02 0.  0.
          5    1    1    2  502    0 -0.95331121081E+02  0.25844176483E+02 -0.11605179550E+02  0.99539422829E+02  0.41800000000E+01 0. -1.
         -5    1    1    2    0  502  0.34957537608E+02 -0.19369760419E+02 -0.37918750710E+01  0.40361711694E+02  0.41800000000E+01 0. -1.
        -11    1    3    3    0    0  0.15802902520E+02 -0.44514784750E+02  0.31251882821E+02  0.56639014550E+02  0.00000000000E+00 0.  1.
         11    1    3    3    0    0  0.44570680954E+02  0.38040368687E+02  0.78965033989E+01  0.59126728443E+02  0.00000000000E+00 0. -1.
</event>
<event>
 7    1  0.6145388E-006  0.1269572E+03  0.7561462E-02  0.1232042E+00
         -2   -1    0    0    0  501 -0.00000000000E+00  0.00000000000E+00  0.33558874501E+03  0.33558874501E+03  0.00000000000E+00 0. -1.
          2   -1    0    0  501    0  0.00000000000E+00 -0.00000000000E+00 -0.72569463577E+02  0.72569463577E+02  0.00000000000E+00 0.  1.
         23    2    1    2    0    0 -0.10177403347E+03 -0.35453734054E+02  0.16192940077E+03  0.21455789084E+03  0.90548531407E+02 0.  0.
          5    1    1    2  502    0  0.10043341130E+03  0.19710675121E+02  0.12687937780E+03  0.16306817509E+03  0.41800000000E+01 0. -1.
         -5    1    1    2    0  502  0.13406221702E+01  0.15743058933E+02 -0.25789497138E+02  0.30532142653E+02  0.41800000000E+01 0. -1.
        -11    1    3    3    0    0 -0.61734175279E+02  0.21626627392E+02  0.10859644495E+03  0.12677542059E+03  0.00000000000E+00 0.  1.
         11    1    3    3    0    0 -0.40039858187E+02 -0.57080361446E+02  0.53332955829E+02  0.87782470254E+02  0.00000000000E+00 0. -1.
</event>
<event>
 7    1  0.6145388E-006  0.1130787E+03  0.7561462E-02  0.1254973E+00
         -2   -1    0    0    0  501 -0.00000000000E+00  0.00000000000E+00  0.37404589238E+03  0.37404589238E+03  0.00000000000E+00 0.  1.
          2   -1    0    0  501    0  0.00000000000E+00 -0.00000000000E+00 -0.57173403399E+02  0.57173403399E+02  0.00000000000E+00 0. -1.
         23    2    1    2    0    0 -0.29250861924E+01 -0.40782822439E+02  0.12426343464E+02  0.99546945090E+02  0.89907650005E+02 0.  0.
          5    1    1    2  502    0  0.60119955460E+02  0.39468151417E+02  0.19892696116E+03  0.21156926123E+03  0.41800000000E+01 0. -1.
         -5    1    1    2    0  502 -0.57194869268E+02  0.13146710223E+01  0.10551918435E+03  0.12010308946E+03  0.41800000000E+01 0. -1.
        -11    1    3    3    0    0  0.61033781190E+01 -0.67900752790E+02  0.17811086339E+02  0.70462743705E+02  0.00000000000E+00 0. -1.
         11    1    3    3    0    0 -0.90284643114E+01  0.27117930351E+02 -0.53847428754E+01  0.29084201384E+02  0.00000000000E+00 0.  1.
</event>
<event>
 7    1  0.6145388E-006  0.2378273E+03  0.7561462E-02  0.1121249E+00
          2   -1    0    0  501    0  0.00000000000E+00  0.00000000000E+00  0.68813215182E+03  0.68813215182E+03  0.00000000000E+00 0. -1.
         -2   -1    0    0    0  501 -0.00000000000E+00 -0.00000000000E+00 -0.11968994728E+03  0.11968994728E+03  0.00000000000E+00 0.  1.
         23    2    1    2    0    0 -0.12976977272E+03 -0.17014611649E+03  0.49673811776E+03  0.54979381360E+03  0.98664000354E+02 0.  0.
          5    1    1    2  502    0 -0.24583085365E+02  0.16875825868E+02  0.12076385024E+02  0.32441224700E+02  0.41800000000E+01 0.  1.
         -5    1    1    2    0  502  0.15435285809E+03  0.15327029062E+03  0.59627701754E+02  0.22558706080E+03  0.41800000000E+01 0.  1.
        -11    1    3    3    0    0 -0.91915835307E+02 -0.55789400287E+02  0.30457176103E+03  0.32299370827E+03  0.00000000000E+00 0.  1.
         11    1    3    3    0    0 -0.37853937415E+02 -0.11435671620E+03  0.19216635673E+03  0.22680010533E+03  0.00000000000E+00 0. -1.
</event>
<event>
 7    1  0.6145388E-006  0.1647512E+03  0.7561462E-02  0.1183435E+00
         -1   -1    0    0    0  501 -0.00000000000E+00  0.00000000000E+00  0.59650144364E+03  0.59650144364E+03  0.00000000000E+00 0.  1.
          1   -1    0    0  501    0  0.00000000000E+00 -0.00000000000E+00 -0.55245626599E+02  0.55245626599E+02  0.00000000000E+00 0. -1.
         23    2    1    2    0    0 -0.12921932247E+03 -0.41856236842E+02  0.16534261555E+03  0.23292941267E+03  0.92023654067E+02 0.  0.
          5    1    1    2  502    0  0.46796388399E+02  0.77837863668E+02  0.14710128707E+03  0.17293032136E+03  0.41800000000E+01 0.  1.
         -5    1    1    2    0  502  0.82422934066E+02 -0.35981626826E+02  0.22881191442E+03  0.24588733621E+03  0.41800000000E+01 0.  1.
        -11    1    3    3    0    0 -0.94483487643E+02 -0.57340541935E+02  0.16009374352E+03  0.19453810398E+03  0.00000000000E+00 0.  1.
         11    1    3    3    0    0 -0.34735834822E+02  0.15484305092E+02  0.52488720296E+01  0.38391308685E+02  0.00000000000E+00 0. -1.
</event>
<event>
 7    1  0.6145388E-006  0.1230025E+03  0.7561462E-02  0.1238224E+00
          3   -1    0    0  501    0  0.00000000000E+00  0.00000000000E+00  0.29623656309E+03  0.29623656309E+03  0.00000000000E+00 0. -1.
         -3   -1    0    0    0  501 -0.00000000000E+00 -0.00000000000E+00 -0.72447709024E+02  0.72447709024E+02  0.00000000000E+00 0.  1.
         23    2    1    2    0    0  0.60013514241E+02 -0.22869859445E+02  0.19588013590E+03  0.22532811720E+03  0.90989452112E+02 0.  0.
          5    1    1    2  502    0 -0.86809663410E+02  0.51549601658E+02  0.22405254605E+02  0.10350240058E+03  0.41800000000E+01 0.  1.
         -5    1    1    2    0  502  0.26796149169E+02 -0.28679742213E+02  0.55034635623E+01  0.39853754339E+02  0.41800000000E+01 0.  1.
        -11    1    3    3    0    0 -0.19558988730E+02 -0.16621010750E+02  0.21252638006E+02  0.33323965261E+02  0.00000000000E+00 0.  1.
         11    1    3    3    0    0  0.79572502971E+02 -0.62488486951E+01  0.17462749790E+03  0.19200415194E+03  0.00000000000E+00 0. -1.
</event>
<event>
 7    1  0.6145388E-006  0.9365457E+02  0.7561462E-02  0.1294235E+00
         -3   -1    0    0    0  501 -0.00000000000E+00  0.00000000000E+00  0.18867847215E+03  0.18867847215E+03  0.00000000000E+00 0.  1.
          3   -1    0    0  501    0  0.00000000000E+00 -0.00000000000E+00 -0.91856247148E+02  0.91856247148E+02  0.00000000000E+00 0. -1.
         23    2    1    2    0    0  0.38125317757E+02 -0.36456970430E+02 -0.94343778117E+01  0.10813848826E+03  0.93926964235E+02 0.  0.
          5    1    1    2  502    0 -0.58721533637E+02  0.45430997542E+02  0.11895126695E+02  0.75307107828E+02  0.41800000000E+01 0. -1.
         -5    1    1    2    0  502  0.20596215880E+02 -0.89740271119E+01  0.94361476116E+02  0.97089123212E+02  0.41800000000E+01 0. -1.
        -11    1    3    3    0    0  0.55027305135E+02 -0.61183275797E+01  0.23619534546E+02  0.60194025077E+02  0.00000000000E+00 0.  1.
         11    1    3    3    0    0 -0.16901987378E+02 -0.30338642850E+02 -0.33053912358E+02  0.47944463179E+02  0.00000000000E+00 0. -1.
</event>
<event>
 7    1  0.6145388E-006  0.1546607E+03  0.7561462E-02  0.1194860E+00
          1   -1    0    0  501    0  0.00000000000E+00  0.00000000000E+00  0.48998115437E+03  0.48998115437E+03  0.00000000000E+00 0. -1.
         -1   -1    0    0    0  501 -0.00000000000E+00 -0.00000000000E+00 -0.68853708569E+02  0.68853708569E+02  0.00000000000E+00 0.  1.
         23    2    1    2    0    0 -0.11675891665E+03  0.74118124058E+02  0.28245525042E+03  0.32644840478E+03  0.87529718178E+02 0.  0.
          5    1    1    2  502    0  0.83423262718E+02 -0.26167787657E+02  0.14912099226E+03  0.17291251142E+03  0.41800000000E+01 0.  1.
         -5    1    1    2    0  502  0.33335653931E+02 -0.47950336400E+02 -0.10448796881E+02  0.59473946734E+02  0.41800000000E+01 0.  1.
        -11    1    3    3    0    0 -0.29642983088E+02 -0.19405308177E+02  0.51986986303E+02  0.62911995491E+02  0.00000000000E+00 0.  1.
         11    1    3    3    0    0 -0.87115933561E+02  0.93523432235E+02  0.23046826412E+03  0.26353640929E+03  0.00000000000E+00 0. -1.
</event>
<event>
 7    1  0.6145388E-006  0.1172695E+03  0.7561462E-02  0.1247671E+00
          2   -1    0    0  501    0  0.00000000000E+00  0.00000000000E+00  0.22389542130E+03  0.22389542130E+03  0.00000000000E+00 0. -1.
         -2   -1    0    0    0  501 -0.00000000000E+00 -0.00000000000E+00 -0.69939891126E+02  0.69939891126E+02  0.00000000000E+00 0.  1.
         23    2    1    2    0    0 -0.32948701400E+02 -0.49675325661E+02  0.10051419368E+03  0.14531731311E+03  0.86375711022E+02 0.  0.
          5    1    1    2  502    0 -0.33132026769E+02  0.61358002875E+02  0.38033268458E+02  0.79539534976E+02  0.41800000000E+01 0. -1.
         -5    1    1    2    0  502  0.66080728168E+02 -0.11682677214E+02  0.15408068036E+02  0.68978464340E+02  0.41800000000E+01 0. -1.
        -11    1    3    3    0    0  0.19728470659E+02  0.61756723146E+01  0.48110237916E+02  0.52363598763E+02  0.00000000000E+00 0. -1.
         11    1    3    3    0    0 -0.52677172059E+02 -0.55850997976E+02  0.52403955764E+02  0.92953714346E+02  0.00000000000E+00 0.  1.
</event>
<event>
 7    1  0.6145388E-006  0.9976434E+02  0.7561462E-02  0.1280792E+00
          2   -1    0    0  501    0  0.00000000000E+00  0.00000000000E+00  0.33889795603E+02  0.33889795603E+02  0.00000000000E+00 0. -1.
         -2   -1    0    0    0  501 -0.00000000000E+00 -0.00000000000E+00 -0.35855441057E+03  0.35855441057E+03  0.00000000000E+00 0.  1.
         23    2    1    2    0    0 -0.14646425881E+01 -0.11891829918E+02 -0.94865874496E+02  0.13053119005E+03  0.88855481738E+02 0.  0.
          5    1    1    2  502    0  0.53649712723E+02 -0.98333382621E+01 -0.17391648565E+03  0.18231676445E+03  0.41800000000E+01 0.  1.
         -5    1    1    2    0  502 -0.52185070135E+02  0.21725168180E+02 -0.55882254814E+02  0.79596251674E+02  0.41800000000E+01 0.  1.
        -11    1    3    3    0    0  0.39261728497E+02 -0.23548917334E+02 -0.61151884099E+02  0.76391018851E+02  0.00000000000E+00 0.  1.
         11    1    3    3    0    0 -0.40726371085E+02  0.11657087416E+02 -0.33713990397E+02  0.54140171198E+02  0.00000000000E+00 0. -1.
</event>
<event>
 7    1  0.6145388E-006  0.1060601E+03  0.7561462E-02  0.1268045E+00
         -2   -1    0    0    0  501 -0.00000000000E+00  0.00000000000E+00  0.46112068069E+03  0.46112068069E+03  0.00000000000E+00 0.  1.
          2   -1    0    0  501    0  0.00000000000E+00 -0.00000000000E+00 -0.28431161689E+02  0.28431161689E+02  0.00000000000E+00 0. -1.
         23    2    1    2    0    0  0.23234662915E+02 -0.25969766008E+02  0.14835347902E+03  0.17696671682E+03  0.89967693178E+02 0.  0.
          5    1    1    2  502    0  0.17975350183E+02 -0.39038947795E+02  0.50887788008E+02  0.66739733499E+02  0.41800000000E+01 0.  1.
         -5    1    1    2    0  502 -0.41210013097E+02  0.65008713804E+02  0.23344825197E+03  0.24584539206E+03  0.41800000000E+01 0.  1.
        -11    1    3    3    0    0  0.49628789819E+02 -0.38333014505E+02  0.12412073011E+03  0.13906254860E+03  0.00000000000E+00 0.  1.
         11    1    3    3    0    0 -0.26394126905E+02  0.12363248497E+02  0.24232748914E+02  0.37904168219E+02  0.00000000000E+00 0. -1.
</event>
<event>
 7    1  0.6145388E-006  0.9747288E+02  0.7561462E-02  0.1285702E+00
          2   -1    0    0  501    0  0.00000000000E+00  0.00000000000E+00  0.24047269953E+02  0.24047269953E+02  0.00000000000E+00 0. -1.
         -2   -1    0    0    0  501 -0.00000000000E+00 -0.00000000000E+00 -0.47850199834E+03  0.47850199834E+03  0.00000000000E+00 0.  1.
         23    2    1    2    0    0  0.70050994187E+01  0.29636259992E+01 -0.17587324915E+03  0.19707870311E+03  0.88604519961E+02 0.  0.
          5    1    1    2  502    0 -0.18908808978E+02 -0.52826378043E+02 -0.65867760773E+02  0.86626806379E+02  0.41800000000E+01 0. -1.
         -5    1    1    2    0  502  0.11903709560E+02  0.49862752044E+02 -0.21271371847E+03  0.21884375880E+03  0.41800000000E+01 0. -1.
        -11    1    3    3    0    0 -0.21504214137E+02 -0.34205787274E+02 -0.62660608949E+02  0.74557488038E+02  0.00000000000E+00 0. -1.
         11    1    3    3    0    0  0.28509313556E+02  0.37169413273E+02 -0.11321264020E+03  0.12252121507E+03  0.00000000000E+00 0.  1.
</event>
<event>
 7    1  0.6145388E-006  0.8970625E+02  0.7561462E-02  0.1303565E+00
          1   -1    0    0  501    0  0.00000000000E+00  0.00000000000E+00  0.32305008035E+02  0.32305008035E+02  0.00000000000E+00 0. -1.
         -1   -1    0    0    0  501 -0.00000000000E+00 -0.00000000000E+00 -0.49124946739E+03  0.49124946739E+03  0.00000000000E+00 0.  1.
         23    2    1    2    0    0 -0.10119972682E+02 -0.45702174821E+01 -0.70288053326E+02  0.11511241998E+03  0.90482915841E+02 0.  0.
          5    1    1    2  502    0 -0.64059573262E+01  0.44731609847E+02 -0.52198796973E+02  0.69167478010E+02  0.41800000000E+01 0.  1.
         -5    1    1    2    0  502  0.16525930008E+02 -0.40161392365E+02 -0.33645760906E+03  0.33927457743E+03  0.41800000000E+01 0.  1.
        -11    1    3    3    0    0  0.27528399503E+02 -0.33182809139E+02 -0.26143129776E+02  0.50421967792E+02  0.00000000000E+00 0.  1.
         11    1    3    3    0    0 -0.37648372185E+02  0.28612591657E+02 -0.44144923549E+02  0.64690452191E+02  0.00000000000E+00 0. -1.
</event>
<event>
 7    1  0.6145388E-006  0.1321350E+03  0.7561462E-02  0.1224322E+00
         -1   -1    0    0    0  501 -0.00000000000E+00  0.00000000000E+00  0.94472798392E+03  0.94472798392E+03  0.00000000000E+00 0.  1.
          1   -1    0    0  501    0  0.00000000000E+00 -0.00000000000E+00 -0.20993559513E+02  0.20993559513E+02  0.00000000000E+00 0. -1.
         23    2    1    2    0    0 -0.75503493171E+02  0.36570073557E+02  0.35827525049E+03  0.38054826240E+03  0.97044717229E+02 0.  0.
          5    1    1    2  502    0 -0.30149821459E+02 -0.12441588950E+02  0.62162044901E+02  0.70323517374E+02  0.41800000000E+01 0.  1.
         -5    1    1    2    0  502  0.10565331463E+03 -0.24128484606E+02  0.50329712902E+03  0.51484976366E+03  0.41800000000E+01 0.  1.
        -11    1    3    3    0    0 -0.18891879162E+02  0.59067498090E+02  0.23496643906E+03  0.24301255094E+03  0.00000000000E+00 0.  1.
         11    1    3    3    0    0 -0.56611614009E+02 -0.22497424533E+02  0.12330881142E+03  0.13753571146E+03  0.00000000000E+00 0. -1.
</event>
<event>
 7    1  0.6145388E-006  0.1072393E+03  0.7561462E-02  0.1265769E+00
         -1   -1    0    0    0  501 -0.00000000000E+00  0.00000000000E+00  0.65046310835E+03  0.65046310835E+03  0.00000000000E+00 0.  1.
          1   -1    0    0  501    0  0.00000000000E+00 -0.00000000000E+00 -0.22442013852E+02  0.22442013852E+02  0.00000000000E+00 0. -1.
         23    2    1    2    0    0  0.13115031706E+02  0.49598445339E+02  0.22487521917E+03  0.24769173315E+03  0.90279126269E+02 0.  0.
          5    1    1    2  502    0 -0.23005361594E+02  0.38209702116E+02  0.17141083459E+03  0.17716764550E+03  0.41800000000E+01 0. -1.
         -5    1    1    2    0  502  0.98903298887E+01 -0.87808147455E+02  0.23173504074E+03  0.24804574355E+03  0.41800000000E+01 0. -1.
        -11    1    3    3    0    0  0.19139284374E+02  0.63365463920E+02  0.22291728445E+03  0.23253733019E+03  0.00000000000E+00 0.  1.
         11    1    3    3    0    0 -0.60242526688E+01 -0.13767018581E+02  0.19579347153E+01  0.15154402963E+02  0.00000000000E+00 0. -1.
</event>
<event>
 7    1  0.6145388E-006  0.1628766E+03  0.7561462E-02  0.1185487E+00
          3   -1    0    0  501    0  0.00000000000E+00  0.00000000000E+00  0.57437133066E+03  0.57437133066E+03  0.00000000000E+00 0. -1.
         -3   -1    0    0    0  501 -0.00000000000E+00 -0.00000000000E+00 -0.53127652080E+02  0.53127652080E+02  0.00000000000E+00 0.  1.
         23    2    1    2    0    0 -0.65136534298E+02  0.10527657497E+03  0.34194902782E+03  0.37626259374E+03  0.96532256170E+02 0.  0.
          5    1    1    2  502    0  0.74793194227E+02 -0.13022738526E+02  0.11660055472E+03  0.13920048628E+03  0.41800000000E+01 0.  1.
         -5    1    1    2    0  502 -0.96566599296E+01 -0.92253836441E+02  0.62694096039E+02  0.11203590272E+03  0.41800000000E+01 0.  1.
        -11    1    3    3    0    0  0.13890356517E+00  0.89777207524E+02  0.20287202792E+03  0.22184910638E+03  0.00000000000E+00 0.  1.
         11    1    3    3    0    0 -0.65275437863E+02  0.15499367443E+02  0.13907699990E+03  0.15441348736E+03  0.00000000000E+00 0. -1.
</event>
<event>
 7    1  0.6145388E-006  0.1772300E+03  0.7561462E-02  0.1170511E+00
          1   -1    0    0  501    0  0.00000000000E+00  0.00000000000E+00  0.69683183587E+03  0.69683183587E+03  0.00000000000E+00 0. -1.
         -1   -1    0    0    0  501 -0.00000000000E+00 -0.00000000000E+00 -0.98749969331E+02  0.98749969331E+02  0.00000000000E+00 0.  1.
         23    2    1    2    0    0  0.14748841294E+03  0.47635690330E+02  0.57226702442E+03  0.59994811691E+03  0.91794361471E+02 0.  0.
          5    1    1    2  502    0 -0.15018524854E+01 -0.26900480928E+02 -0.27555865868E+02  0.38764540224E+02  0.41800000000E+01 0. -1.
         -5    1    1    2    0  502 -0.14598656046E+03 -0.20735209402E+02  0.53370707978E+02  0.15686914806E+03  0.41800000000E+01 0.  1.
        -11    1    3    3    0    0  0.63786672097E+02 -0.25341508842E+02  0.23951868741E+03  0.24915885139E+03  0.00000000000E+00 0.  1.
         11    1    3    3    0    0  0.83701740846E+02  0.72977199172E+02  0.33274833701E+03  0.35078926552E+03  0.00000000000E+00 0. -1.
</event>
<event>
 7    1  0.6145388E-006  0.7860330E+02  0.7561462E-02  0.1333062E+00
         -1   -1    0    0    0  501 -0.00000000000E+00  0.00000000000E+00  0.12536823257E+03  0.12536823257E+03  0.00000000000E+00 0.  1.
          1   -1    0    0  501    0  0.00000000000E+00 -0.00000000000E+00 -0.13011377723E+03  0.13011377723E+03  0.00000000000E+00 0. -1.
         23    2    1    2    0    0 -0.89211172419E+01 -0.25466995930E+02 -0.63006910167E+02  0.11487785293E+03  0.92189457918E+02 0.  0.
          5    1    1    2  502    0  0.19637357832E+02  0.57050420622E+02  0.80212546908E+02  0.10045845608E+03  0.41800000000E+01 0.  1.
         -5    1    1    2    0  502 -0.10716240590E+02 -0.31583424692E+02 -0.21951181399E+02  0.40145700796E+02  0.41800000000E+01 0.  1.
        -11    1    3    3    0    0 -0.20771862781E+02  0.11881611944E+02  0.14534741233E+02  0.27998244383E+02  0.00000000000E+00 0.  1.
         11    1    3    3    0    0  0.11850745539E+02 -0.37348607874E+02 -0.77541651400E+02  0.86879608550E+02  0.00000000000E+00 0. -1.
</event>
<event>
 7    1  0.6145388E-006  0.9701338E+02  0.7561462E-02  0.1286705E+00
          2   -1    0    0  501    0  0.00000000000E+00  0.00000000000E+00  0.39256460186E+03  0.39256460186E+03  0.00000000000E+00 0. -1.
         -2   -1    0    0    0  501 -0.00000000000E+00 -0.00000000000E+00 -0.36026726797E+02  0.36026726797E+02  0.00000000000E+00 0.  1.
         23    2    1    2    0    0 -0.45533832683E+02  0.79152290573E+01  0.19454641880E+03  0.21910754486E+03  0.89575813558E+02 0.  0.
          5    1    1    2  502    0  0.29302311867E+02 -0.44560059369E+02  0.16047788105E+03  0.16915923586E+03  0.41800000000E+01 0. -1.
         -5    1    1    2    0  502  0.16231520817E+02  0.36644830311E+02  0.15135752139E+01  0.40324547939E+02  0.41800000000E+01 0. -1.
        -11    1    3    3    0    0 -0.28645210603E+02  0.48471807894E+02  0.12059116658E+03  0.13308754152E+03  0.00000000000E+00 0. -1.
         11    1    3    3    0    0 -0.16888622080E+02 -0.40556578836E+02  0.73955252225E+02  0.86020003339E+02  0.00000000000E+00 0.  1.
</event>
<event>
 7    1  0.6145388E-006  0.1829698E+03  0.7561462E-02  0.1164959E+00
          2   -1    0    0  501    0  0.00000000000E+00  0.00000000000E+00  0.87480901009E+03  0.87480901009E+03  0.00000000000E+00 0. -1.
         -2   -1    0    0    0  501 -0.00000000000E+00 -0.00000000000E+00 -0.56944400639E+02  0.56944400639E+02  0.00000000000E+00 0.  1.
         23    2    1    2    0    0  0.14975390317E+03 -0.76789017715E+02  0.59713442288E+03  0.62729892797E+03  0.92798929343E+02 0.  0.
          5    1    1    2  502    0 -0.14839720220E+03  0.48124379402E+02  0.11243962445E+03  0.19234819225E+03  0.41800000000E+01 0.  1.
         -5    1    1    2    0  502 -0.13567009700E+01  0.28664638313E+02  0.10829056213E+03  0.11210629052E+03  0.41800000000E+01 0.  1.
        -11    1    3    3    0    0  0.61513709148E+02 -0.68781399622E+02  0.40990473170E+03  0.42016271422E+03  0.00000000000E+00 0.  1.
         11    1    3    3    0    0  0.88240194025E+02 -0.80076180933E+01  0.18722969117E+03  0.20713621375E+03  0.00000000000E+00 0. -1.
</event>
<event>
 7    1  0.6145388E-006  0.1054690E+03  0.7561462E-02  0.1269198E+00
         -1   -1    0    0    0  501 -0.00000000000E+00  0.00000000000E+00  0.58536628767E+02  0.58536628767E+02  0.00000000000E+00 0.  1.
          1   -1    0    0  501    0  0.00000000000E+00 -0.00000000000E+00 -0.32124147038E+03  0.32124147038E+03  0.00000000000E+00 0. -1.
         23    2    1    2    0    0  0.31562671814E+02  0.76996610429E+02 -0.12257129281E+03  0.17432836584E+03  0.91880232070E+02 0.  0.
          5    1    1    2  502    0 -0.27590017590E+02  0.16511431382E+02  0.48968842591E+01  0.32791589049E+02  0.41800000000E+01 0.  1.
         -5    1    1    2    0  502 -0.39726542237E+01 -0.93508041811E+02 -0.14503043306E+03  0.17265814426E+03  0.41800000000E+01 0.  1.
        -11    1    3    3    0    0  0.21172421857E+01  0.24870695748E+02  0.11511433480E+02  0.27487221071E+02  0.00000000000E+00 0.  1.
         11    1    3    3    0    0  0.29445429628E+02  0.52125914682E+02 -0.13408272629E+03  0.14684114477E+03  0.00000000000E+00 0. -1.
</event>
<event>
 7    1  0.6797685E-006  0.2473257E+03  0.7561462E-02  0.1115007E+00
         -2   -1    0    0    0  501 -0.00000000000E+00  0.00000000000E+00  0.49665514982E+02  0.49665514982E+02  0.00000000000E+00 0.  1.
          2   -1    0    0  501    0  0.00000000000E+00 -0.00000000000E+00 -0.13898859075E+04  0.13898859075E+04  0.00000000000E+00 0. -1.
         23    2    1    2    0    0  0.79437655231E+02 -0.22508577361E+03 -0.68318781502E+03  0.72940135208E+03  0.91141622107E+02 0.  0.
          5    1    1    2  502    0 -0.34190850417E+01  0.14623101319E+03 -0.26092169424E+03  0.29915347614E+03  0.41800000000E+01 0.  1.
         -5    1    1    2    0  502 -0.76018570189E+02  0.78854760424E+02 -0.39611088329E+03  0.41099659429E+03  0.41800000000E+01 0.  1.
        -11    1    3    3    0    0  0.43208608306E+02 -0.12686360351E+03 -0.24906280918E+03  0.28283147039E+03  0.00000000000E+00 0.  1.
         11    1    3    3    0    0  0.36229046925E+02 -0.98222170106E+02 -0.43412500584E+03  0.44656988169E+03  0.00000000000E+00 0. -1.
</event>
<event>
 7    1  0.6145388E-006  0.1159675E+03  0.7561462E-02  0.1249902E+00
         -4   -1    0    0    0  501 -0.00000000000E+00  0.00000000000E+00  0.20161180098E+03  0.20161180098E+03  0.00000000000E+00 0.  1.
          4   -1    0    0  501    0  0.00000000000E+00 -0.00000000000E+00 -0.10203064445E+03  0.10203064445E+03  0.00000000000E+00 0. -1.
         23    2    1    2    0    0  0.76739913107E+02  0.48005450524E+02  0.18292405356E+02  0.12907750431E+03  0.90182329105E+02 0.  0.
          5    1    1    2  502    0 -0.46411332106E+02 -0.82805069738E+02  0.85765299291E+02  0.12799941517E+03  0.41800000000E+01 0. -1.
         -5    1    1    2    0  502 -0.30328581001E+02  0.34799619214E+02 -0.44765481121E+01  0.46565525939E+02  0.41800000000E+01 0. -1.
        -11    1    3    3    0    0  0.39670336211E+02  0.23037036196E+02  0.54729528578E+02  0.71412617304E+02  0.00000000000E+00 0.  1.
         11    1    3    3    0    0  0.37069576896E+02  0.24968414328E+02 -0.36437123222E+02  0.57664887011E+02  0.00000000000E+00 0. -1.
</event>
<event>
 7    1  0.6145388E-006  0.8566701E+02  0.7561462E-02  0.1313697E+00
         -2   -1    0    0    0  501 -0.00000000000E+00  0.00000000000E+00  0.28387232707E+03  0.28387232707E+03  0.00000000000E+00 0.  1.
          2   -1    0    0  501    0  0.00000000000E+00 -0.00000000000E+00 -0.47837431528E+02  0.47837431528E+02  0.00000000000E+00 0. -1.
         23    2    1    2    0    0  0.31282252577E+02 -0.19072148899E+02  0.66591624077E+02  0.11793183598E+03  0.90172874809E+02 0.  0.
          5    1    1    2  502    0 -0.58915032502E+02  0.26475316850E+02  0.17294066310E+03  0.18465608252E+03  0.41800000000E+01 0. -1.
         -5    1    1    2    0  502  0.27632779925E+02 -0.74031679509E+01 -0.34973916393E+01  0.29121840093E+02  0.41800000000E+01 0. -1.
        -11    1    3    3    0    0 -0.21799014492E+02 -0.94127769767E+01  0.58807540626E+02  0.63420219471E+02  0.00000000000E+00 0.  1.
         11    1    3    3    0    0  0.53081267069E+02 -0.96593719226E+01  0.77840834510E+01  0.54511616512E+02  0.00000000000E+00 0. -1.
</event>
<event>
 7    1  0.6145388E-006  0.8764603E+02  0.7561462E-02  0.1308654E+00
          2   -1    0    0  501    0  0.00000000000E+00  0.00000000000E+00  0.10540796264E+03  0.10540796264E+03  0.00000000000E+00 0. -1.
         -2   -1    0    0    0  501 -0.00000000000E+00 -0.00000000000E+00 -0.11466167841E+03  0.11466167841E+03  0.00000000000E+00 0.  1.
         23    2    1    2    0    0 -0.84907777349E+01  0.10811735120E+02  0.64701766246E+00  0.93836903746E+02  0.92822189965E+02 0.  0.
          5    1    1    2  502    0  0.61713395343E+02 -0.30444965202E+02 -0.65536410357E+01  0.69252160123E+02  0.41800000000E+01 0.  1.
         -5    1    1    2    0  502 -0.53222617608E+02  0.19633230083E+02 -0.33470923982E+01  0.56980577182E+02  0.41800000000E+01 0.  1.
        -11    1    3    3    0    0 -0.41729863813E+01  0.29751542364E+02 -0.39270061846E+02  0.49443966727E+02  0.00000000000E+00 0.  1.
         11    1    3    3    0    0 -0.43177913536E+01 -0.18939807244E+02  0.39917079508E+02  0.44392937018E+02  0.00000000000E+00 0. -1.
</event>
<event>
 7    1  0.6145388E-006  0.1022643E+03  0.7561462E-02  0.1275605E+00
          4   -1    0    0  501    0  0.00000000000E+00  0.00000000000E+00  0.10856697516E+03  0.10856697516E+03  0.00000000000E+00 0.  1.
         -4   -1    0    0    0  501 -0.00000000000E+00 -0.00000000000E+00 -0.19975792041E+03  0.19975792041E+03  0.00000000000E+00 0. -1.
         23    2    1    2    0    0  0.23071220693E+02 -0.60761268888E+02  0.36899338737E+02  0.11779847123E+03  0.91053311874E+02 0.  0.
          5    1    1    2  502    0 -0.60826503943E+02  0.32386814748E+02 -0.19041114425E+02  0.71615681174E+02  0.41800000000E+01 0.  1.
         -5    1    1    2    0  502  0.37755283250E+02  0.28374454140E+02 -0.10904916955E+03  0.11891074317E+03  0.41800000000E+01 0.  1.
        -11    1    3    3    0    0  0.25393048075E+02 -0.72132335893E+02 -0.27144621481E+01  0.76519599298E+02  0.00000000000E+00 0. -1.
         11    1    3    3    0    0 -0.23218273820E+01  0.11371067005E+02  0.39613800885E+02  0.41278871930E+02  0.00000000000E+00 0.  1.
</event>
<event>
 7    1  0.6145388E-006  0.1891204E+03  0.7561462E-02  0.1159257E+00
          1   -1    0    0  501    0  0.00000000000E+00  0.00000000000E+00  0.19469707125E+04  0.19469707125E+04  0.00000000000E+00 0. -1.
         -1   -1    0    0    0  501 -0.00000000000E+00 -0.00000000000E+00 -0.23465461907E+02  0.23465461907E+02  0.00000000000E+00 0.  1.
         23    2    1    2    0    0  0.10273064399E+03  0.14950627230E+03  0.80044022220E+03  0.82595881841E+03  0.92723835783E+02 0.  0.
          5    1    1    2  502    0 -0.66763780515E+02 -0.62998763825E+02  0.86561990800E+03  0.87048351171E+03  0.41800000000E+01 0. -1.
         -5    1    1    2    0  502 -0.35966863471E+02 -0.86507508479E+02  0.25744512035E+03  0.27399384424E+03  0.41800000000E+01 0. -1.
        -11    1    3    3    0    0  0.28400869584E+02  0.33469891574E+01  0.48120492476E+02  0.55976723070E+02  0.00000000000E+00 0.  1.
         11    1    3    3    0    0  0.74329774402E+02  0.14615928315E+03  0.75231972972E+03  0.76998209534E+03  0.00000000000E+00 0. -1.
</event>
<event>
 7    1  0.6145388E-006  0.1027526E+03  0.7561462E-02  0.1274612E+00
          2   -1    0    0  501    0  0.00000000000E+00  0.00000000000E+00  0.41215036924E+03  0.41215036924E+03  0.00000000000E+00 0. -1.
         -2   -1    0    0    0  501 -0.00000000000E+00 -0.00000000000E+00 -0.33870148974E+02  0.33870148974E+02  0.00000000000E+00 0.  1.
         23    2    1    2    0    0 -0.22899413434E+02  0.21388700892E+02  0.22976894373E+03  0.24933040461E+03  0.91597071464E+02 0.  0.
          5    1    1    2  502    0  0.25048325515E+02 -0.72232781929E+02  0.74953465716E+02  0.10714703831E+03  0.41800000000E+01 0. -1.
         -5    1    1    2    0  502 -0.21489120812E+01  0.50844081036E+02  0.73557810827E+02  0.89543075294E+02  0.41800000000E+01 0. -1.
        -11    1    3    3    0    0  0.21067443311E+02  0.26232228701E+02  0.17838592254E+03  0.18153100108E+03  0.00000000000E+00 0. -1.
         11    1    3    3    0    0 -0.43966856745E+02 -0.48435278088E+01  0.51383021183E+02  0.67799403534E+02  0.00000000000E+00 0.  1.
</event>
<event>
 7    1  0.6145388E-006  0.1182368E+03  0.7561462E-02  0.1246034E+00
         -3   -1    0    0    0  501 -0.00000000000E+00  0.00000000000E+00  0.53124002316E+02  0.53124002316E+02  0.00000000000E+00 0.  1.
          3   -1    0    0  501    0  0.00000000000E+00 -0.00000000000E+00 -0.27040112969E+03  0.27040112969E+03  0.00000000000E+00 0. -1.
         23    2    1    2    0    0 -0.14456194818E+02  0.48881509346E+02 -0.86504474193E+02  0.13551494223E+03  0.91010394943E+02 0.  0.
          5    1    1    2  502    0 -0.35865110994E+02 -0.68977451050E+02 -0.95523850790E+02  0.12323341028E+03  0.41800000000E+01 0.  1.
         -5    1    1    2    0  502  0.50321305812E+02  0.20095941705E+02 -0.35248802391E+02  0.64776779495E+02  0.41800000000E+01 0.  1.
        -11    1    3    3    0    0 -0.46947518560E+02  0.53805486286E+02 -0.61036960339E+02  0.93939397384E+02  0.00000000000E+00 0. -1.
         11    1    3    3    0    0  0.32491323742E+02 -0.49239769400E+01 -0.25467513854E+02  0.41575544846E+02  0.00000000000E+00 0.  1.
</event>
<event>
 7    1  0.6145388E-006  0.1996013E+03  0.7561462E-02  0.1150076E+00
          1   -1    0    0  501    0  0.00000000000E+00  0.00000000000E+00  0.72718752884E+02  0.72718752884E+02  0.00000000000E+00 0. -1.
         -1   -1    0    0    0  501 -0.00000000000E+00 -0.00000000000E+00 -0.59131699530E+03  0.59131699530E+03  0.00000000000E+00 0.  1.
         23    2    1    2    0    0  0.20242367006E+02  0.17082049593E+03 -0.18511810365E+03  0.26850212053E+03  0.90748450001E+02 0.  0.
          5    1    1    2  502    0  0.46086561830E+02 -0.82592230138E+02 -0.20691902793E+03  0.22754868529E+03  0.41800000000E+01 0.  1.
         -5    1    1    2    0  502 -0.66328928836E+02 -0.88228265789E+02 -0.12656111084E+03  0.16798494237E+03  0.41800000000E+01 0.  1.
        -11    1    3    3    0    0 -0.35295041202E+02  0.51202588688E+02 -0.51278775302E+02  0.80603708464E+02  0.00000000000E+00 0. -1.
         11    1    3    3    0    0  0.55537408208E+02  0.11961790724E+03 -0.13383932835E+03  0.18789841206E+03  0.00000000000E+00 0.  1.
</event>
<event>
 6    1  0.6145388E-006  0.3180674E+02  0.7561462E-02  0.1578935E+00
          2   -1    0    0  501    0  0.00000000000E+00  0.00000000000E+00  0.12267656459E+03  0.12267656459E+03  0.00000000000E+00 0. -1.
         -2   -1    0    0    0  501 -0.00000000000E+00 -0.00000000000E+00 -0.58901702581E+02  0.58901702581E+02  0.00000000000E+00 0.  1.
          5    1    1    2  502    0  0.16883607492E+02  0.68417687981E+01 -0.46212678594E+02  0.49849273466E+02  0.41800000000E+01 0. -1.
         -5    1    1    2    0  502  0.51124833282E+01  0.12287236522E+01  0.82108339578E+02  0.82382638194E+02  0.41800000000E+01 0. -1.
        -11    1    1    2    0    0 -0.14639437398E+02  0.10642230877E+02  0.21813871668E+02  0.28344579774E+02  0.00000000000E+00 0. -1.
         11    1    1    2    0    0 -0.73566534219E+01 -0.18712723327E+02  0.60653293567E+01  0.21001775737E+02  0.00000000000E+00 0.  1.
</event>
<event>
 7    1  0.6145388E-006  0.8262141E+02  0.7561462E-02  0.1321773E+00
         -2   -1    0    0    0  501 -0.00000000000E+00  0.00000000000E+00  0.41717603690E+02  0.41717603690E+02  0.00000000000E+00 0.  1.
          2   -1    0    0  501    0  0.00000000000E+00 -0.00000000000E+00 -0.31951370832E+03  0.31951370832E+03  0.00000000000E+00 0. -1.
         23    2    1    2    0    0  0.27439250968E+02  0.29378311354E+02 -0.13007834315E+03  0.16353601847E+03  0.90596116410E+02 0.  0.
          5    1    1    2  502    0  0.85733562893E+01 -0.31898164516E+02 -0.15675087546E+03  0.16024763554E+03  0.41800000000E+01 0. -1.
         -5    1    1    2    0  502 -0.36012607258E+02  0.25198531625E+01  0.90331139831E+01  0.37447658000E+02  0.41800000000E+01 0. -1.
        -11    1    3    3    0    0 -0.20299632110E+02  0.41635041494E+02 -0.41611902306E+02  0.62266380636E+02  0.00000000000E+00 0. -1.
         11    1    3    3    0    0  0.47738883078E+02 -0.12256730140E+02 -0.88466440842E+02  0.10126963783E+03  0.00000000000E+00 0.  1.
</event>
<event>
 7    1  0.6145388E-006  0.3082502E+03  0.7561462E-02  0.1081188E+00
          1   -1    0    0  501    0  0.00000000000E+00  0.00000000000E+00  0.94283656358E+03  0.94283656358E+03  0.00000000000E+00 0. -1.
         -1   -1    0    0    0  501 -0.00000000000E+00 -0.00000000000E+00 -0.16213036985E+03  0.16213036985E+03  0.00000000000E+00 0.  1.
         23    2    1    2    0    0  0.95535924649E+02  0.28483119280E+03  0.70278375422E+03  0.77034191421E+03  0.96258705132E+02 0.  0.
          5    1    1    2  502    0 -0.81149884674E+02 -0.94436601853E+02 -0.87597186330E+01  0.12489107503E+03  0.41800000000E+01 0.  1.
         -5    1    1    2    0  502 -0.14386039975E+02 -0.19039459094E+03  0.86682158145E+02  0.20973394419E+03  0.41800000000E+01 0.  1.
        -11    1    3    3    0    0  0.56257931882E+02  0.19355819006E+03  0.56932731906E+03  0.60395639252E+03  0.00000000000E+00 0. -1.
         11    1    3    3    0    0  0.39277992767E+02  0.91273002733E+02  0.13345643516E+03  0.16638552170E+03  0.00000000000E+00 0.  1.
</event>
<event>
 7    1  0.6145388E-006  0.3727479E+03  0.7561462E-02  0.1053647E+00
         -2   -1    0    0    0  501 -0.00000000000E+00  0.00000000000E+00  0.20980951675E+03  0.20980951675E+03  0.00000000000E+00 0.  1.
          2   -1    0    0  501    0  0.00000000000E+00 -0.00000000000E+00 -0.75764143020E+03  0.75764143020E+03  0.00000000000E+00 0. -1.
         23    2    1    2    0    0  0.33129651283E+03 -0.14381332386E+03 -0.42741600909E+03  0.56672256514E+03  0.89723851216E+02 0.  0.
          5    1    1    2  502    0 -0.38828909213E+02 -0.21647725052E+02 -0.29986712886E+01  0.44752347649E+02  0.41800000000E+01 0.  1.
         -5    1    1    2    0  502 -0.29246760361E+03  0.16546104892E+03 -0.11741723307E+03  0.35597603416E+03  0.41800000000E+01 0.  1.
        -11    1    3    3    0    0  0.29739765954E+03 -0.11050124820E+03 -0.32693422030E+03  0.45556764389E+03  0.00000000000E+00 0. -1.
         11    1    3    3    0    0  0.33898853282E+02 -0.33312075662E+02 -0.10048178879E+03  0.11115492125E+03  0.00000000000E+00 0.  1.
</event>
<event>
 7    1  0.6145388E-006  0.9699211E+02  0.7561462E-02  0.1286751E+00
          1   -1    0    0  501    0  0.00000000000E+00  0.00000000000E+00  0.69028759220E+02  0.69028759220E+02  0.00000000000E+00 0. -1.
         -1   -1    0    0    0  501 -0.00000000000E+00 -0.00000000000E+00 -0.19177130572E+03  0.19177130572E+03  0.00000000000E+00 0.  1.
         23    2    1    2    0    0  0.13599403721E+02  0.50802670482E+01 -0.52056084537E+02  0.11638699955E+03  0.10307931331E+03 0.  0.
          5    1    1    2  502    0  0.18410225475E+02  0.54651532394E+02 -0.28330142390E+02  0.64387854157E+02  0.41800000000E+01 0. -1.
         -5    1    1    2    0  502 -0.32009629196E+02 -0.59731799442E+02 -0.42356319577E+02  0.80025211240E+02  0.41800000000E+01 0. -1.
        -11    1    3    3    0    0  0.38814550560E+02  0.14378418993E+02  0.15094229739E+02  0.44058416215E+02  0.00000000000E+00 0. -1.
         11    1    3    3    0    0 -0.25215146840E+02 -0.92981519446E+01 -0.67150314276E+02  0.72328583334E+02  0.00000000000E+00 0.  1.
</event>
<event>
 7    1  0.6145388E-006  0.1135549E+03  0.7561462E-02  0.1254125E+00
          4   -1    0    0  501    0  0.00000000000E+00  0.00000000000E+00  0.19072229310E+03  0.19072229310E+03  0.00000000000E+00 0.  1.
         -4   -1    0    0    0  501 -0.00000000000E+00 -0.00000000000E+00 -0.92042365081E+02  0.92042365081E+02  0.00000000000E+00 0. -1.
         23    2    1    2    0    0  0.47859072579E+02  0.48993571584E+02  0.77609314523E+02  0.13860484596E+03  0.92180457468E+02 0.  0.
          5    1    1    2  502    0  0.19529751575E+02  0.29391396568E+02  0.19838078749E+02  0.40697507998E+02  0.41800000000E+01 0. -1.
         -5    1    1    2    0  502 -0.67388824154E+02 -0.78384968152E+02  0.12325347484E+01  0.10346230422E+03  0.41800000000E+01 0. -1.
        -11    1    3    3    0    0  0.20917249717E+02  0.56420419761E+02  0.89815072728E+02  0.10810893761E+03  0.00000000000E+00 0.  1.
         11    1    3    3    0    0  0.26941822862E+02 -0.74268481771E+01 -0.12205758205E+02  0.30495908354E+02  0.00000000000E+00 0. -1.
</event>
<event>
 7    1  0.6145388E-006  0.1479418E+03  0.7561462E-02  0.1203025E+00
         -1   -1    0    0    0  501 -0.00000000000E+00  0.00000000000E+00  0.19770282512E+03  0.19770282512E+03  0.00000000000E+00 0.  1.
          1   -1    0    0  501    0  0.00000000000E+00 -0.00000000000E+00 -0.12847196299E+03  0.12847196299E+03  0.00000000000E+00 0. -1.
         23    2    1    2    0    0  0.92185271915E+02 -0.61203001609E+02 -0.83494523465E+01  0.14201962276E+03  0.88633673802E+02 0.  0.
          5    1    1    2  502    0 -0.33508085927E+02 -0.37886675110E+02  0.14488956677E+02  0.52778729039E+02  0.41800000000E+01 0.  1.
         -5    1    1    2    0  502 -0.58677185988E+02  0.99089676720E+02  0.63091357793E+02  0.13137643630E+03  0.41800000000E+01 0.  1.
        -11    1    3    3    0    0  0.26823400310E+02  0.14001690526E+02  0.22508515675E+02  0.37711741139E+02  0.00000000000E+00 0. -1.
         11    1    3    3    0    0  0.65361871605E+02 -0.75204692135E+02 -0.30857968021E+02  0.10430788163E+03  0.00000000000E+00 0.  1.
</event>
<event>
 7    1  0.6145388E-006  0.1348382E+03  0.7561462E-02  0.1220448E+00
          2   -1    0    0  501    0  0.00000000000E+00  0.00000000000E+00  0.47557748325E+03  0.47557748325E+03  0.00000000000E+00 0. -1.
         -2   -1    0    0    0  501 -0.00000000000E+00 -0.00000000000E+00 -0.62590615055E+02  0.62590615055E+02  0.00000000000E+00 0.  1.
         23    2    1    2    0    0  0.24171179612E+02 -0.12902411309E+03  0.23671022920E+03  0.28527746218E+03  0.90111209832E+02 0.  0.
          5    1    1    2  502    0 -0.88817496861E+01  0.52361962382E+01  0.11192689742E+03  0.11247846903E+03  0.41800000000E+01 0.  1.
         -5    1    1    2    0  502 -0.15289429926E+02  0.12378791686E+03  0.64349741568E+02  0.14041216709E+03  0.41800000000E+01 0.  1.
        -11    1    3    3    0    0  0.24054445924E+02 -0.58823693698E+02  0.19152107725E+03  0.20178990644E+03  0.00000000000E+00 0. -1.
         11    1    3    3    0    0  0.11673368857E+00 -0.70200419396E+02  0.45189151949E+02  0.83487555743E+02  0.00000000000E+00 0.  1.
</event>
<event>
 7    1  0.6145388E-006  0.1016244E+03  0.7561462E-02  0.1276917E+00
          1   -1    0    0  501    0  0.00000000000E+00  0.00000000000E+00  0.13626023447E+03  0.13626023447E+03  0.00000000000E+00 0. -1.
         -1   -1    0    0    0  501 -0.00000000000E+00 -0.00000000000E+00 -0.11525763542E+03  0.11525763542E+03  0.00000000000E+00 0.  1.
         23    2    1    2    0    0  0.28488912862E+02 -0.22801986533E+00  0.59713971748E+02  0.11758168831E+03  0.97200950893E+02 0.  0.
          5    1    1    2  502    0 -0.51542315953E+02 -0.37728846845E+02 -0.57014308948E+02  0.85721526135E+02  0.41800000000E+01 0.  1.
         -5    1    1    2    0  502  0.23053403091E+02  0.37956866711E+02  0.18302936253E+02  0.48214655449E+02  0.41800000000E+01 0.  1.
        -11    1    3    3    0    0  0.19522556928E+02  0.44720979576E+02  0.51628507989E+02  0.71039419201E+02  0.00000000000E+00 0.  1.
         11    1    3    3    0    0  0.89663559336E+01 -0.44948999441E+02  0.80854637589E+01  0.46542269108E+02  0.00000000000E+00 0. -1.
</event>
<event>
 7    1  0.6145388E-006  0.4145051E+03  0.7561462E-02  0.1038870E+00
          2   -1    0    0  501    0  0.00000000000E+00  0.00000000000E+00  0.26992645209E+03  0.26992645209E+03  0.00000000000E+00 0. -1.
         -2   -1    0    0    0  501 -0.00000000000E+00 -0.00000000000E+00 -0.88661395563E+03  0.88661395563E+03  0.00000000000E+00 0.  1.
         23    2    1    2    0    0 -0.32368443497E+03 -0.25569620104E+03 -0.23834824945E+02  0.42355062444E+03  0.93138992452E+02 0.  0.
          5    1    1    2  502    0  0.11844282751E+03  0.64282493606E+02 -0.10797706043E+03  0.17273523193E+03  0.41800000000E+01 0.  1.
         -5    1    1    2    0  502  0.20524160747E+03  0.19141370743E+03 -0.48487561816E+03  0.56025455135E+03  0.41800000000E+01 0.  1.
        -11    1    3    3    0    0 -0.13627135841E+03 -0.12594183838E+03 -0.54873180725E+02  0.19350011819E+03  0.00000000000E+00 0. -1.
         11    1    3    3    0    0 -0.18741307656E+03 -0.12975436265E+03  0.31038355780E+02  0.23005050624E+03  0.00000000000E+00 0.  1.
</event>
<event>
 7    1  0.6145388E-006  0.1125194E+03  0.7561462E-02  0.1255974E+00
         -3   -1    0    0    0  501 -0.00000000000E+00  0.00000000000E+00  0.11366427507E+03  0.11366427507E+03  0.00000000000E+00 0.  1.
          3   -1    0    0  501    0  0.00000000000E+00 -0.00000000000E+00 -0.38458348192E+03  0.38458348192E+03  0.00000000000E+00 0. -1.
         23    2    1    2    0    0 -0.43011668193E+02  0.28524022445E+02 -0.30663290865E+03  0.32416580068E+03  0.91630247199E+02 0.  0.
          5    1    1    2  502    0  0.16750959985E+02  0.42411060403E+02 -0.44428753620E+02  0.63801874997E+02  0.41800000000E+01 0. -1.
         -5    1    1    2    0  502  0.26260708208E+02 -0.70935082849E+02  0.80142455424E+02  0.11028008132E+03  0.41800000000E+01 0.  1.
        -11    1    3    3    0    0 -0.56735981365E+01 -0.31934262767E+02 -0.71125746882E+02  0.78171981706E+02  0.00000000000E+00 0.  1.
         11    1    3    3    0    0 -0.37338070056E+02  0.60458285212E+02 -0.23550716177E+03  0.24599381897E+03  0.00000000000E+00 0. -1.
</event>
<event>
 7    1  0.6145388E-006  0.8312405E+02  0.7561462E-02  0.1320413E+00
         -2   -1    0    0    0  501 -0.00000000000E+00  0.00000000000E+00  0.45649761997E+02  0.45649761997E+02  0.00000000000E+00 0.  1.
          2   -1    0    0  501    0  0.00000000000E+00 -0.00000000000E+00 -0.34031395759E+03  0.34031395759E+03  0.00000000000E+00 0. -1.
         23    2    1    2    0    0 -0.41581349000E+02 -0.13137445977E+02 -0.19737944390E+03  0.22160269234E+03  0.90815787745E+02 0.  0.
          5    1    1    2  502    0 -0.20442110322E+01 -0.24957617565E+02 -0.10293423903E+03  0.10601882587E+03  0.41800000000E+01 0. -1.
         -5    1    1    2    0  502  0.43625560033E+02  0.38095063543E+02  0.56494873452E+01  0.58342201379E+02  0.41800000000E+01 0. -1.
        -11    1    3    3    0    0 -0.66591856299E+01  0.28028754476E+02 -0.17296437964E+02  0.33602419511E+02  0.00000000000E+00 0.  1.
         11    1    3    3    0    0 -0.34922163371E+02 -0.41166200454E+02 -0.18008300594E+03  0.18800027282E+03  0.00000000000E+00 0. -1.
</event>
<event>
 7    1  0.6145388E-006  0.1566494E+03  0.7561462E-02  0.1192532E+00
          1   -1    0    0  501    0  0.00000000000E+00  0.00000000000E+00  0.47816991779E+02  0.47816991779E+02  0.00000000000E+00 0. -1.
         -1   -1    0    0    0  501 -0.00000000000E+00 -0.00000000000E+00 -0.59768875913E+03  0.59768875913E+03  0.00000000000E+00 0.  1.
         23    2    1    2    0    0  0.33602453506E+02 -0.12387398383E+03 -0.27632366146E+03  0.31847443187E+03  0.92721675536E+02 0.  0.
          5    1    1    2  502    0  0.39664006614E+02  0.34999034697E+02 -0.39525026807E+02  0.66165444112E+02  0.41800000000E+01 0.  1.
         -5    1    1    2    0  502 -0.73266460120E+02  0.88874949137E+02 -0.23402307908E+03  0.26086587493E+03  0.41800000000E+01 0.  1.
        -11    1    3    3    0    0 -0.16745888232E+02 -0.66819253256E+02 -0.68450976245E+02  0.97112169820E+02  0.00000000000E+00 0.  1.
         11    1    3    3    0    0  0.50348341738E+02 -0.57054730579E+02 -0.20787268522E+03  0.22136226205E+03  0.00000000000E+00 0. -1.
</event>
<event>
 7    1  0.6145388E-006  0.1140338E+03  0.7561462E-02  0.1253277E+00
         -2   -1    0    0    0  501 -0.00000000000E+00  0.00000000000E+00  0.47694617136E+02  0.47694617136E+02  0.00000000000E+00 0.  1.
          2   -1    0    0  501    0  0.00000000000E+00 -0.00000000000E+00 -0.29718388932E+03  0.29718388932E+03  0.00000000000E+00 0. -1.
         23    2    1    2    0    0  0.33316669475E+02  0.33123621513E+02 -0.11286800035E+03  0.15378337099E+03  0.93289682836E+02 0.  0.
          5    1    1    2  502    0  0.78641801223E+01  0.42894764591E+02 -0.27157414746E+02  0.51544192049E+02  0.41800000000E+01 0.  1.
         -5    1    1    2    0  502 -0.41180849598E+02 -0.76018386104E+02 -0.10946385709E+03  0.13955094342E+03  0.41800000000E+01 0.  1.
        -11    1    3    3    0    0  0.34574626715E+02 -0.23023956490E+02 -0.75970826767E+02  0.86585644911E+02  0.00000000000E+00 0.  1.
         11    1    3    3    0    0 -0.12579572397E+01  0.56147578003E+02 -0.36897173578E+02  0.67197726078E+02  0.00000000000E+00 0. -1.
</event>
<event>
 7    1  0.6145388E-006  0.1157673E+03  0.7561462E-02  0.1250248E+00
         -1   -1    0    0    0  501 -0.00000000000E+00  0.00000000000E+00  0.17102362749E+02  0.17102362749E+02  0.00000000000E+00 0.  1.
          1   -1    0    0  501    0  0.00000000000E+00 -0.00000000000E+00 -0.86975128405E+03  0.86975128405E+03  0.00000000000E+00 0. -1.
         23    2    1    2    0    0  0.23825515171E+02  0.43765904854E+02 -0.46640916705E+03  0.47781705124E+03  0.91041274966E+02 0.  0.
          5    1    1    2  502    0  0.44115221318E+02  0.68060284651E+01 -0.85126251685E+02  0.96210321179E+02  0.41800000000E+01 0.  1.
         -5    1    1    2    0  502 -0.67940736489E+02 -0.50571933319E+02 -0.30111350256E+03  0.31282627438E+03  0.41800000000E+01 0.  1.
        -11    1    3    3    0    0 -0.87334858376E+01  0.63322529009E+02 -0.24656429539E+03  0.25471546521E+03  0.00000000000E+00 0.  1.
         11    1    3    3    0    0  0.32559001009E+02 -0.19556624156E+02 -0.21984487167E+03  0.22310158604E+03  0.00000000000E+00 0. -1.
</event>
<event>
 7    1  0.6145388E-006  0.9020911E+02  0.7561462E-02  0.1302346E+00
         -1   -1    0    0    0  501 -0.00000000000E+00  0.00000000000E+00  0.30420444655E+03  0.30420444655E+03  0.00000000000E+00 0.  1.
          1   -1    0    0  501    0  0.00000000000E+00 -0.00000000000E+00 -0.46438867532E+02  0.46438867532E+02  0.00000000000E+00 0. -1.
         23    2    1    2    0    0 -0.45485752255E+02  0.28173830238E+02  0.10233794765E+03  0.14408146190E+03  0.86160859820E+02 0.  0.
          5    1    1    2  502    0  0.65345725027E+01  0.19315513753E+02 -0.14802699425E+02  0.25541770095E+02  0.41800000000E+01 0. -1.
         -5    1    1    2    0  502  0.38951179753E+02 -0.47489343991E+02  0.17023033080E+03  0.18102008209E+03  0.41800000000E+01 0. -1.
        -11    1    3    3    0    0 -0.82981182848E+01  0.52793924611E+02  0.73857059341E+02  0.91164260856E+02  0.00000000000E+00 0.  1.
         11    1    3    3    0    0 -0.37187633971E+02 -0.24620094373E+02  0.28480888306E+02  0.52917201040E+02  0.00000000000E+00 0. -1.
</event>
<event>
 7    1  0.6145388E-006  0.9329224E+02  0.7561462E-02  0.1295069E+00
          3   -1    0    0  501    0  0.00000000000E+00  0.00000000000E+00  0.67092863544E+02  0.67092863544E+02  0.00000000000E+00 0. -1.
         -3   -1    0    0    0  501 -0.00000000000E+00 -0.00000000000E+00 -0.25225215248E+03  0.25225215248E+03  0.00000000000E+00 0.  1.
         23    2    1    2    0    0 -0.26396975194E+01  0.22959211639E+02  0.66985224674E+01  0.89145374138E+02  0.85836671213E+02 0.  0.
          5    1    1    2  502    0 -0.59649594655E+02 -0.44941529817E+01 -0.11313943898E+03  0.12804794651E+03  0.41800000000E+01 0. -1.
         -5    1    1    2    0  502  0.62289292174E+02 -0.18465058658E+02 -0.78718372426E+02  0.10215169538E+03  0.41800000000E+01 0. -1.
        -11    1    3    3    0    0  0.26628648620E+02  0.47567257327E+01 -0.28907473427E+02  0.39589814182E+02  0.00000000000E+00 0.  1.
         11    1    3    3    0    0 -0.29268346139E+02  0.18202485907E+02  0.35605995895E+02  0.49555559956E+02  0.00000000000E+00 0. -1.
</event>
<event>
 7    1  0.6145388E-006  0.9934463E+02  0.7561462E-02  0.1281680E+00
          2   -1    0    0  501    0  0.00000000000E+00  0.00000000000E+00  0.28913351568E+03  0.28913351568E+03  0.00000000000E+00 0. -1.
         -2   -1    0    0    0  501 -0.00000000000E+00 -0.00000000000E+00 -0.42440734509E+02  0.42440734509E+02  0.00000000000E+00 0.  1.
         23    2    1    2    0    0  0.17293769088E+02 -0.53420386514E+01  0.12666556363E+03  0.15727048497E+03  0.91445221887E+02 0.  0.
          5    1    1    2  502    0 -0.62205726621E+02  0.85821986501E+01  0.22557901261E+02  0.66854602440E+02  0.41800000000E+01 0. -1.
         -5    1    1    2    0  502  0.44911957534E+02 -0.32401599987E+01  0.97469316277E+02  0.10744916278E+03  0.41800000000E+01 0. -1.
        -11    1    3    3    0    0 -0.34102464399E+02 -0.16584975813E+02  0.35132790567E+02  0.51694801227E+02  0.00000000000E+00 0.  1.
         11    1    3    3    0    0  0.51396233487E+02  0.11242937162E+02  0.91532773062E+02  0.10557568374E+03  0.00000000000E+00 0. -1.
</event>
<event>
 7    1  0.6145388E-006  0.1008606E+03  0.7561462E-02  0.1278497E+00
          1   -1    0    0  501    0  0.00000000000E+00  0.00000000000E+00  0.28713953348E+03  0.28713953348E+03  0.00000000000E+00 0. -1.
         -1   -1    0    0    0  501 -0.00000000000E+00 -0.00000000000E+00 -0.56121952588E+02  0.56121952588E+02  0.00000000000E+00 0.  1.
         23    2    1    2    0    0 -0.29534824574E+02 -0.51513692939E+02  0.13689696877E+03  0.17583366599E+03  0.93009309282E+02 0.  0.
          5    1    1    2  502    0 -0.22400259700E+02 -0.30623379539E+02  0.11668481208E+02  0.39914769982E+02  0.41800000000E+01 0. -1.
         -5    1    1    2    0  502  0.51935084274E+02  0.82137072478E+02  0.82452130911E+02  0.12751305010E+03  0.41800000000E+01 0. -1.
        -11    1    3    3    0    0  0.53225980651E+01 -0.14460698611E+02 -0.11325929499E+02  0.19123768810E+02  0.00000000000E+00 0.  1.
         11    1    3    3    0    0 -0.34857422640E+02 -0.37052994328E+02  0.14822289827E+03  0.15670989718E+03  0.00000000000E+00 0. -1.
</event>
<event>
 7    1  0.6145388E-006  0.1678082E+03  0.7561462E-02  0.1180153E+00
          2   -1    0    0  501    0  0.00000000000E+00  0.00000000000E+00  0.88837441848E+03  0.88837441848E+03  0.00000000000E+00 0. -1.
         -2   -1    0    0    0  501 -0.00000000000E+00 -0.00000000000E+00 -0.40716727594E+02  0.40716727594E+02  0.00000000000E+00 0.  1.
         23    2    1    2    0    0 -0.15342870648E+03 -0.36413956595E+02  0.35873106084E+03  0.40035345896E+03  0.82027884772E+02 0.  0.
          5    1    1    2  502    0 -0.65521978442E+01 -0.73860309217E+01  0.15974689278E+03  0.16010629876E+03  0.41800000000E+01 0.  1.
         -5    1    1    2    0  502  0.15998090433E+03  0.43799987517E+02  0.32917973727E+03  0.36863138836E+03  0.41800000000E+01 0.  1.
        -11    1    3    3    0    0 -0.82504791709E+02 -0.92338768153E+01  0.96268192046E+02  0.12712147708E+03  0.00000000000E+00 0.  1.
         11    1    3    3    0    0 -0.70923914775E+02 -0.27180079780E+02  0.26246286879E+03  0.27323198187E+03  0.00000000000E+00 0. -1.
</event>
<event>
 7    1  0.6145388E-006  0.9761300E+02  0.7561462E-02  0.1285397E+00
          2   -1    0    0  501    0  0.00000000000E+00  0.00000000000E+00  0.60678376602E+02  0.60678376602E+02  0.00000000000E+00 0. -1.
         -2   -1    0    0    0  501 -0.00000000000E+00 -0.00000000000E+00 -0.25289419643E+03  0.25289419643E+03  0.00000000000E+00 0.  1.
         23    2    1    2    0    0 -0.50429153973E+02  0.25485383106E+01 -0.43290638987E+02  0.11263536362E+03  0.90901326151E+02 0.  0.
          5    1    1    2  502    0 -0.24174779590E+02 -0.31856317980E+02 -0.11552206680E+02  0.41835043237E+02  0.41800000000E+01 0. -1.
         -5    1    1    2    0  502  0.74603933562E+02  0.29307779669E+02 -0.13737297417E+03  0.15910216618E+03  0.41800000000E+01 0. -1.
        -11    1    3    3    0    0 -0.62045128394E+02  0.67294466831E+01  0.51739391517E+01  0.62623103216E+02  0.00000000000E+00 0. -1.
         11    1    3    3    0    0  0.11615974421E+02 -0.41809083724E+01 -0.48464578139E+02  0.50012260404E+02  0.00000000000E+00 0.  1.
</event>
<event>
 7    1  0.6919344E-006  0.1942038E+03  0.7561462E-02  0.1154723E+00
          1   -1    0    0  501    0  0.00000000000E+00  0.00000000000E+00  0.10026265450E+04  0.10026265450E+04  0.00000000000E+00 0. -1.
         -1   -1    0    0    0  501 -0.00000000000E+00 -0.00000000000E+00 -0.49756453150E+02  0.49756453150E+02  0.00000000000E+00 0.  1.
         23    2    1    2    0    0 -0.14678879830E+03  0.11126640229E+03  0.61094402045E+03  0.64435350686E+03  0.89508000215E+02 0.  0.
          5    1    1    2  502    0  0.12924000209E+03 -0.91788147375E+02  0.16397211644E+03  0.22810604882E+03  0.41800000000E+01 0. -1.
         -5    1    1    2    0  502  0.17548796209E+02 -0.19478254917E+02  0.17795395496E+03  0.17992344246E+03  0.41800000000E+01 0. -1.
        -11    1    3    3    0    0 -0.85141858377E+01  0.52256898559E+02  0.19555039526E+03  0.20259129274E+03  0.00000000000E+00 0.  1.
         11    1    3    3    0    0 -0.13827461246E+03  0.59009503734E+02  0.41539362518E+03  0.44176221412E+03  0.00000000000E+00 0. -1.
</event>
<event>
 7    1  0.6145388E-006  0.1224856E+03  0.7561462E-02  0.1239052E+00
          1   -1    0    0  501    0  0.00000000000E+00  0.00000000000E+00  0.38783083308E+02  0.38783083308E+02  0.00000000000E+00 0. -1.
         -1   -1    0    0    0  501 -0.00000000000E+00 -0.00000000000E+00 -0.49691199964E+03  0.49691199964E+03  0.00000000000E+00 0.  1.
         23    2    1    2    0    0  0.78677211698E+02 -0.10182473081E+01 -0.13799200331E+03  0.18309601757E+03  0.91056126677E+02 0.  0.
          5    1    1    2  502    0 -0.91576234720E+02  0.37046840350E+02 -0.16154169370E+03  0.18939869679E+03  0.41800000000E+01 0.  1.
         -5    1    1    2    0  502  0.12899023022E+02 -0.36028593042E+02 -0.15859521933E+03  0.16320036858E+03  0.41800000000E+01 0.  1.
        -11    1    3    3    0    0  0.52215270999E+02  0.35034228744E+02 -0.11883223264E+03  0.13444304082E+03  0.00000000000E+00 0.  1.
         11    1    3    3    0    0  0.26461940700E+02 -0.36052476052E+02 -0.19159770662E+02  0.48652976753E+02  0.00000000000E+00 0. -1.
</event>
<event>
 7    1  0.6145388E-006  0.1399105E+03  0.7561462E-02  0.1213449E+00
         -2   -1    0    0    0  501 -0.00000000000E+00  0.00000000000E+00  0.64198016551E+03  0.64198016551E+03  0.00000000000E+00 0.  1.
          2   -1    0    0  501    0  0.00000000000E+00 -0.00000000000E+00 -0.43305019550E+02  0.43305019550E+02  0.00000000000E+00 0. -1.
         23    2    1    2    0    0 -0.80284817105E+02 -0.73421376760E+02  0.14590698214E+03  0.20311593090E+03  0.90171411904E+02 0.  0.
          5    1    1    2  502    0  0.10724524617E+03  0.39818764234E+02  0.25191320599E+03  0.27670347407E+03  0.41800000000E+01 0. -1.
         -5    1    1    2    0  502 -0.26960429061E+02  0.33602612526E+02  0.20085495782E+03  0.20546578008E+03  0.41800000000E+01 0. -1.
        -11    1    3    3    0    0 -0.26256586869E+02  0.51014764001E+01  0.87112245224E+02  0.91126158064E+02  0.00000000000E+00 0.  1.
         11    1    3    3    0    0 -0.54028230236E+02 -0.78522853160E+02  0.58794736920E+02  0.11198977284E+03  0.00000000000E+00 0. -1.
</event>
<event>
 7    1  0.6145388E-006  0.1156973E+03  0.7561462E-02  0.1250369E+00
          2   -1    0    0  501    0  0.00000000000E+00  0.00000000000E+00  0.79250197523E+03  0.79250197523E+03  0.00000000000E+00 0. -1.
         -2   -1    0    0    0  501 -0.00000000000E+00 -0.00000000000E+00 -0.18556414058E+02  0.18556414058E+02  0.00000000000E+00 0.  1.
         23    2    1    2    0    0  0.36573000774E+02  0.11917231331E+02  0.44375914669E+03  0.45587659635E+03  0.97065369919E+02 0.  0.
          5    1    1    2  502    0 -0.79223181450E+02 -0.28134750061E+02  0.19336831245E+03  0.21089488685E+03  0.41800000000E+01 0. -1.
         -5    1    1    2    0  502  0.42650180675E+02  0.16217518730E+02  0.13681810203E+03  0.14428690608E+03  0.41800000000E+01 0. -1.
        -11    1    3    3    0    0 -0.85216452262E+01 -0.35178393154E+02  0.21420696212E+03  0.21724355089E+03  0.00000000000E+00 0.  1.
         11    1    3    3    0    0  0.45094646001E+02  0.47095624485E+02  0.22955218458E+03  0.23863304547E+03  0.00000000000E+00 0. -1.
</event>
<event>
 7    1  0.6145388E-006  0.2397114E+03  0.7561462E-02  0.1119985E+00
         -3   -1    0    0    0  501 -0.00000000000E+00  0.00000000000E+00  0.36334986981E+03  0.36334986981E+03  0.00000000000E+00 0.  1.
          3   -1    0    0  501    0  0.00000000000E+00 -0.00000000000E+00 -0.19338450491E+03  0.19338450491E+03  0.00000000000E+00 0. -1.
         23    2    1    2    0    0 -0.15733296838E+03  0.17790342692E+03  0.36805023533E+02  0.25710459549E+03  0.91350265534E+02 0.  0.
          5    1    1    2  502    0  0.11866963105E+03 -0.15690218995E+03  0.46257377052E+02  0.20213360897E+03  0.41800000000E+01 0.  1.
         -5    1    1    2    0  502  0.38663337329E+02 -0.21001236974E+02  0.86902964320E+02  0.97496170260E+02  0.41800000000E+01 0.  1.
        -11    1    3    3    0    0 -0.75890237215E+02  0.69808886494E+02  0.60723100440E+02  0.11966579990E+03  0.00000000000E+00 0.  1.
         11    1    3    3    0    0 -0.81442731166E+02  0.10809454043E+03 -0.23918076907E+02  0.13743879559E+03  0.00000000000E+00 0. -1.
</event>
<event>
 7    1  0.6145388E-006  0.8345410E+02  0.7561462E-02  0.1319525E+00
         -1   -1    0    0    0  501 -0.00000000000E+00  0.00000000000E+00  0.58858277698E+03  0.58858277698E+03  0.00000000000E+00 0.  1.
          1   -1    0    0  501    0  0.00000000000E+00 -0.00000000000E+00 -0.28109910606E+02  0.28109910606E+02  0.00000000000E+00 0. -1.
         23    2    1    2    0    0 -0.49438368687E+02 -0.19229782034E+02  0.14454684978E+03  0.17913600618E+03  0.91553154577E+02 0.  0.
          5    1    1    2  502    0  0.53623977760E+02 -0.16651697704E+02  0.70515120833E+02  0.90236714774E+02  0.41800000000E+01 0.  1.
         -5    1    1    2    0  502 -0.41856090737E+01  0.35881479737E+02  0.34541089576E+03  0.34731996663E+03  0.41800000000E+01 0.  1.
        -11    1    3    3    0    0 -0.39211774388E+02  0.12295731875E+02  0.12441214183E+02  0.42936372499E+02  0.00000000000E+00 0. -1.
         11    1    3    3    0    0 -0.10226594298E+02 -0.31525513909E+02  0.13210563560E+03  0.13619963368E+03  0.00000000000E+00 0.  1.
</event>
<event>
 7    1  0.6145388E-006  0.9720248E+02  0.7561462E-02  0.1286291E+00
         -1   -1    0    0    0  501 -0.00000000000E+00  0.00000000000E+00  0.72219957111E+02  0.72219957111E+02  0.00000000000E+00 0.  1.
          1   -1    0    0  501    0  0.00000000000E+00 -0.00000000000E+00 -0.21231671378E+03  0.21231671378E+03  0.00000000000E+00 0. -1.
         23    2    1    2    0    0  0.46319135612E+02 -0.88005735094E+01 -0.10015793970E+03  0.14501767387E+03  0.93678174787E+02 0.  0.
          5    1    1    2  502    0 -0.17590516314E+01 -0.30086046471E+02  0.33420570529E+02  0.45195922265E+02  0.41800000000E+01 0. -1.
         -5    1    1    2    0  502 -0.44560083980E+02  0.38886619980E+02 -0.73359387497E+02  0.94323074758E+02  0.41800000000E+01 0. -1.
        -11    1    3    3    0    0  0.12977480113E+02 -0.50018503063E+02 -0.45144287837E+02  0.68616851888E+02  0.00000000000E+00 0. -1.
         11    1    3    3    0    0  0.33341655498E+02  0.41217929553E+02 -0.55013651867E+02  0.76400821983E+02  0.00000000000E+00 0.  1.
</event>
<event>
 7    1  0.6145388E-006  0.8527939E+02  0.7561462E-02  0.1314704E+00
          2   -1    0    0  501    0  0.00000000000E+00  0.00000000000E+00  0.27053317989E+03  0.27053317989E+03  0.00000000000E+00 0. -1.
         -2   -1    0    0    0  501 -0.00000000000E+00 -0.00000000000E+00 -0.50527062766E+02  0.50527062766E+02  0.00000000000E+00 0.  1.
         23    2    1    2    0    0 -0.71079744759E+01  0.31952546954E+02  0.10301305219E+03  0.14155909934E+03  0.91410071263E+02 0.  0.
          5    1    1    2  502    0  0.13046302475E+02  0.19630189382E+02  0.12458102590E+03  0.12685998092E+03  0.41800000000E+01 0. -1.
         -5    1    1    2    0  502 -0.59383279994E+01 -0.51582736335E+02 -0.75879609598E+01  0.52641162400E+02  0.41800000000E+01 0.  1.
        -11    1    3    3    0    0 -0.46079061399E+02  0.33734997231E+01  0.34252286062E+02  0.57514167822E+02  0.00000000000E+00 0. -1.
         11    1    3    3    0    0  0.38971086923E+02  0.28579047230E+02  0.68760766124E+02  0.84044931522E+02  0.00000000000E+00 0.  1.
</event>
<event>
 7    1  0.6145388E-006  0.7915479E+02  0.7561462E-02  0.1331467E+00
         -1   -1    0    0    0  501 -0.00000000000E+00  0.00000000000E+00  0.21231984257E+03  0.21231984257E+03  0.00000000000E+00 0.  1.
          1   -1    0    0  501    0  0.00000000000E+00 -0.00000000000E+00 -0.65439779963E+02  0.65439779963E+02  0.00000000000E+00 0. -1.
         23    2    1    2    0    0 -0.27682292521E+02 -0.16236916453E+02  0.10028466164E+03  0.14042918046E+03  0.92916062059E+02 0.  0.
          5    1    1    2  502    0 -0.10172871183E+02 -0.39662180378E+02  0.55511079034E+02  0.69105196302E+02  0.41800000000E+01 0.  1.
         -5    1    1    2    0  502  0.37855163704E+02  0.55899096832E+02 -0.89156780649E+01  0.68225245775E+02  0.41800000000E+01 0.  1.
        -11    1    3    3    0    0 -0.26816163376E+01 -0.23361222196E+02 -0.11134479681E+02  0.26017578797E+02  0.00000000000E+00 0. -1.
         11    1    3    3    0    0 -0.25000676184E+02  0.71243057432E+01  0.11141914132E+03  0.11441160166E+03  0.00000000000E+00 0.  1.
</event>
<event>
 7    1  0.6145388E-006  0.1732038E+03  0.7561462E-02  0.1174547E+00
          1   -1    0    0  501    0  0.00000000000E+00  0.00000000000E+00  0.10175978588E+04  0.10175978588E+04  0.00000000000E+00 0. -1.
         -1   -1    0    0    0  501 -0.00000000000E+00 -0.00000000000E+00 -0.35473837152E+02  0.35473837152E+02  0.00000000000E+00 0.  1.
         23    2    1    2    0    0 -0.90029077810E+02  0.10087523294E+03  0.68108784839E+03  0.70015287941E+03  0.89734886477E+02 0.  0.
          5    1    1    2  502    0  0.84539921341E+02 -0.12952465194E+03  0.25314147335E+03  0.29668453227E+03  0.41800000000E+01 0. -1.
         -5    1    1    2    0  502  0.54891564684E+01  0.28649419000E+02  0.47894699899E+02  0.56234284259E+02  0.41800000000E+01 0. -1.
        -11    1    3    3    0    0 -0.10136101655E+03  0.55744932398E+02  0.49461074656E+03  0.50795801379E+03  0.00000000000E+00 0.  1.
         11    1    3    3    0    0  0.11331938745E+02  0.45130300538E+02  0.18647710183E+03  0.19219486562E+03  0.00000000000E+00 0. -1.
</event>
<event>
 7    1  0.6145388E-006  0.1831742E+03  0.7561462E-02  0.1164766E+00
          1   -1    0    0  501    0  0.00000000000E+00  0.00000000000E+00  0.58309178171E+03  0.58309178171E+03  0.00000000000E+00 0. -1.
         -1   -1    0    0    0  501 -0.00000000000E+00 -0.00000000000E+00 -0.67012405719E+02  0.67012405719E+02  0.00000000000E+00 0.  1.
         23    2    1    2    0    0  0.90177135458E+02 -0.12979746387E+03  0.32131103125E+03  0.36983503931E+03  0.92508811013E+02 0.  0.
          5    1    1    2  502    0 -0.11953428241E+03  0.88883674711E+02  0.12737926491E+03  0.19604005160E+03  0.41800000000E+01 0. -1.
         -5    1    1    2    0  502  0.29357146952E+02  0.40913789155E+02  0.67389079830E+02  0.84229096520E+02  0.41800000000E+01 0. -1.
        -11    1    3    3    0    0  0.80124651546E+02 -0.70706984761E+02  0.27193194515E+03  0.29217532455E+03  0.00000000000E+00 0. -1.
         11    1    3    3    0    0  0.10052483911E+02 -0.59090479105E+02  0.49379086095E+02  0.77659714764E+02  0.00000000000E+00 0.  1.
</event>
<event>
 7    1  0.6145388E-006  0.1561195E+03  0.7561462E-02  0.1193149E+00
          2   -1    0    0  501    0  0.00000000000E+00  0.00000000000E+00  0.17665545964E+04  0.17665545964E+04  0.00000000000E+00 0.  1.
         -2   -1    0    0    0  501 -0.00000000000E+00 -0.00000000000E+00 -0.18531359322E+02  0.18531359322E+02  0.00000000000E+00 0. -1.
         23    2    1    2    0    0  0.13817713409E+03 -0.38787890618E+02  0.73828099517E+03  0.75755277535E+03  0.90719120248E+02 0.  0.
          5    1    1    2  502    0 -0.10985020404E+03  0.23611017404E+02  0.96886971987E+03  0.97537200798E+03  0.41800000000E+01 0.  1.
         -5    1    1    2    0  502 -0.28326930050E+02  0.15176873215E+02  0.40872522033E+02  0.52161172380E+02  0.41800000000E+01 0.  1.
        -11    1    3    3    0    0  0.98056245733E+02 -0.66636997561E+02  0.57634013396E+03  0.58840756859E+03  0.00000000000E+00 0.  1.
         11    1    3    3    0    0  0.40120888358E+02  0.27849106942E+02  0.16194086121E+03  0.16914520676E+03  0.00000000000E+00 0. -1.
</event>
<event>
 7    1  0.6145388E-006  0.3295887E+03  0.7561462E-02  0.1071319E+00
         -2   -1    0    0    0  501 -0.00000000000E+00  0.00000000000E+00  0.36473201294E+03  0.36473201294E+03  0.00000000000E+00 0.  1.
          2   -1    0    0  501    0  0.00000000000E+00 -0.00000000000E+00 -0.61201746091E+03  0.61201746091E+03  0.00000000000E+00 0. -1.
         23    2    1    2    0    0 -0.31271497243E+03  0.47008081047E+02 -0.46713331915E+03  0.57180417693E+03  0.93520400058E+02 0.  0.
          5    1    1    2  502    0  0.25140027790E+03 -0.87587724733E+02  0.16686885884E+03  0.31422348369E+03  0.41800000000E+01 0. -1.
         -5    1    1    2    0  502  0.61314694536E+02  0.40579643686E+02  0.52979012339E+02  0.90721813232E+02  0.41800000000E+01 0. -1.
        -11    1    3    3    0    0 -0.76423155938E+02  0.30912884121E+02 -0.64476338743E+02  0.10465803087E+03  0.00000000000E+00 0. -1.
         11    1    3    3    0    0 -0.23629181650E+03  0.16095196926E+02 -0.40265698041E+03  0.46714614606E+03  0.00000000000E+00 0.  1.
</event>
<event>
 7    1  0.6145388E-006  0.8227703E+02  0.7561462E-02  0.1322711E+00
         -1   -1    0    0    0  501 -0.00000000000E+00  0.00000000000E+00  0.57159199911E+02  0.57159199911E+02  0.00000000000E+00 0.  1.
          1   -1    0    0  501    0  0.00000000000E+00 -0.00000000000E+00 -0.28986694797E+03  0.28986694797E+03  0.00000000000E+00 0. -1.
         23    2    1    2    0    0 -0.54503555928E+02 -0.37658101062E+02 -0.12631246517E+03  0.16994921341E+03  0.92407392011E+02 0.  0.
          5    1    1    2  502    0  0.33943844501E+01 -0.18362817072E+02  0.21218920751E+02  0.28573237381E+02  0.41800000000E+01 0.  1.
         -5    1    1    2    0  502  0.51109171478E+02  0.56020918134E+02 -0.12761420364E+03  0.14850369709E+03  0.41800000000E+01 0.  1.
        -11    1    3    3    0    0 -0.26575209294E+02 -0.59804360551E+01 -0.12474984684E+03  0.12768919943E+03  0.00000000000E+00 0. -1.
         11    1    3    3    0    0 -0.27928346634E+02 -0.31677665007E+02 -0.15626183305E+01  0.42260013985E+02  0.00000000000E+00 0.  1.
</event>
<event>
 7    1  0.6145388E-006  0.9827992E+02  0.7561462E-02  0.1283955E+00
          1   -1    0    0  501    0  0.00000000000E+00  0.00000000000E+00  0.68835814500E+02  0.68835814500E+02  0.00000000000E+00 0. -1.
         -1   -1    0    0    0  501 -0.00000000000E+00 -0.00000000000E+00 -0.21845198000E+03  0.21845198000E+03  0.00000000000E+00 0.  1.
         23    2    1    2    0    0 -0.43365302759E+02 -0.75758725138E+01 -0.34611630026E+02  0.11175469223E+03  0.96711958797E+02 0.  0.
          5    1    1    2  502    0  0.70200991630E+02  0.31920141473E+02 -0.11563598862E+03  0.13905476951E+03  0.41800000000E+01 0.  1.
         -5    1    1    2    0  502 -0.26835688872E+02 -0.24344268959E+02  0.63145314708E+00  0.36478332767E+02  0.41800000000E+01 0.  1.
        -11    1    3    3    0    0 -0.50888329851E+02  0.19695272164E+02 -0.54540302031E+02  0.77150310474E+02  0.00000000000E+00 0.  1.
         11    1    3    3    0    0  0.75230270923E+01 -0.27271144678E+02  0.19928672006E+02  0.34604381754E+02  0.00000000000E+00 0. -1.
</event>
<event>
 7    1  0.6145388E-006  0.1292991E+03  0.7561462E-02  0.1228499E+00
          1   -1    0    0  501    0  0.00000000000E+00  0.00000000000E+00  0.10977964372E+04  0.10977964372E+04  0.00000000000E+00 0. -1.
         -1   -1    0    0    0  501 -0.00000000000E+00 -0.00000000000E+00 -0.20317978292E+02  0.20317978292E+02  0.00000000000E+00 0.  1.
         23    2    1    2    0    0  0.74771247890E+02 -0.61968329218E+02  0.61688092699E+03  0.63105684726E+03  0.90883733706E+02 0.  0.
          5    1    1    2  502    0  0.13617180399E+02 -0.45909117933E+01  0.17832679874E+01  0.15071712505E+02  0.41800000000E+01 0. -1.
         -5    1    1    2    0  502 -0.88388428289E+02  0.66559241012E+02  0.45881426388E+03  0.47198585568E+03  0.41800000000E+01 0. -1.
        -11    1    3    3    0    0 -0.12689968946E+01 -0.56667963986E+02  0.25109474995E+03  0.25741297937E+03  0.00000000000E+00 0.  1.
         11    1    3    3    0    0  0.76040244785E+02 -0.53003652327E+01  0.36578617704E+03  0.37364386789E+03  0.00000000000E+00 0. -1.
</event>
<event>
 7    1  0.6145388E-006  0.9805775E+02  0.7561462E-02  0.1284434E+00
         -1   -1    0    0    0  501 -0.00000000000E+00  0.00000000000E+00  0.54597335380E+02  0.54597335380E+02  0.00000000000E+00 0.  1.
          1   -1    0    0  501    0  0.00000000000E+00 -0.00000000000E+00 -0.32685272752E+03  0.32685272752E+03  0.00000000000E+00 0. -1.
         23    2    1    2    0    0 -0.56004105290E-01 -0.71468753867E+02 -0.16854869206E+03  0.20393678185E+03  0.89854123341E+02 0.  0.
          5    1    1    2  502    0  0.32684738314E+02 -0.26801511918E+01 -0.89172152140E+02  0.95103209443E+02  0.41800000000E+01 0. -1.
         -5    1    1    2    0  502 -0.32628734209E+02  0.74148905059E+02 -0.14534547937E+02  0.82410071601E+02  0.41800000000E+01 0. -1.
        -11    1    3    3    0    0 -0.18894050832E+02 -0.49583076942E+02 -0.27119467561E+02  0.59589698746E+02  0.00000000000E+00 0.  1.
         11    1    3    3    0    0  0.18838046726E+02 -0.21885676925E+02 -0.14142922450E+03  0.14434708310E+03  0.00000000000E+00 0. -1.
</event>
<event>
 7    1  0.6145388E-006  0.8892282E+02  0.7561462E-02  0.1305481E+00
         -1   -1    0    0    0  501 -0.00000000000E+00  0.00000000000E+00  0.12328900461E+04  0.12328900461E+04  0.00000000000E+00 0.  1.
          1   -1    0    0  501    0  0.00000000000E+00 -0.00000000000E+00 -0.14352676474E+02  0.14352676474E+02  0.00000000000E+00 0. -1.
         23    2    1    2    0    0  0.15380867022E+02 -0.12435297086E+02  0.14618793208E+03  0.16840617129E+03  0.81231270817E+02 0.  0.
          5    1    1    2  502    0  0.40982465318E+02  0.11249271320E+02  0.19281240849E+03  0.19748469772E+03  0.41800000000E+01 0. -1.
         -5    1    1    2    0  502 -0.56363332340E+02  0.11860257658E+01  0.87953702907E+03  0.88135185358E+03  0.41800000000E+01 0.  1.
        -11    1    3    3    0    0 -0.10196830816E+02 -0.39840571861E+02  0.10472044335E+03  0.11250607886E+03  0.00000000000E+00 0. -1.
         11    1    3    3    0    0  0.25577697838E+02  0.27405274775E+02  0.41467488734E+02  0.55900092433E+02  0.00000000000E+00 0.  1.
</event>
<event>
 7    1  0.6145388E-006  0.9556598E+02  0.7561462E-02  0.1289906E+00
         -2   -1    0    0    0  501 -0.00000000000E+00  0.00000000000E+00  0.10120953598E+03  0.10120953598E+03  0.00000000000E+00 0.  1.
          2   -1    0    0  501    0  0.00000000000E+00 -0.00000000000E+00 -0.12575623689E+03  0.12575623689E+03  0.00000000000E+00 0. -1.
         23    2    1    2    0    0  0.23848657238E+02  0.24038254626E+02 -0.42852296404E+02  0.10403174043E+03  0.88542010208E+02 0.  0.
          5    1    1    2  502    0  0.45627075159E+02  0.51150891132E+01  0.70827875219E+01  0.46643674848E+02  0.41800000000E+01 0. -1.
         -5    1    1    2    0  502 -0.69475732397E+02 -0.29153343739E+02  0.11222807972E+02  0.76290357595E+02  0.41800000000E+01 0.  1.
        -11    1    3    3    0    0 -0.18171366773E+02  0.20508687376E+02  0.15925337629E+02  0.31692604924E+02  0.00000000000E+00 0.  1.
         11    1    3    3    0    0  0.42020024011E+02  0.35295672496E+01 -0.58777634032E+02  0.72339135503E+02  0.00000000000E+00 0. -1.
</event>
<event>
 7    1  0.6145388E-006  0.9653586E+02  0.7561462E-02  0.1287754E+00
          2   -1    0    0  501    0  0.00000000000E+00  0.00000000000E+00  0.52631090868E+03  0.52631090868E+03  0.00000000000E+00 0.  1.
         -2   -1    0    0    0  501 -0.00000000000E+00 -0.00000000000E+00 -0.29324692430E+02  0.29324692430E+02  0.00000000000E+00 0. -1.
         23    2    1    2    0    0 -0.45768721916E+02 -0.33688368429E+02  0.25698186642E+03  0.27908409913E+03  0.92836267937E+02 0.  0.
          5    1    1    2  502    0 -0.26778777880E+02  0.23418792770E+02  0.17463357828E+03  0.17826918371E+03  0.41800000000E+01 0.  1.
         -5    1    1    2    0  502  0.72547499796E+02  0.10269575659E+02  0.65370771551E+02  0.98282318267E+02  0.41800000000E+01 0.  1.
        -11    1    3    3    0    0 -0.17674791740E+02 -0.48842500626E+02  0.23414119383E+03  0.23983345633E+03  0.00000000000E+00 0.  1.
         11    1    3    3    0    0 -0.28093930176E+02  0.15154132197E+02  0.22840672597E+02  0.39250642798E+02  0.00000000000E+00 0. -1.
</event>
<event>
 7    1  0.6145388E-006  0.1119391E+03  0.7561462E-02  0.1257021E+00
         -3   -1    0    0    0  501 -0.00000000000E+00  0.00000000000E+00  0.29570779468E+03  0.29570779468E+03  0.00000000000E+00 0.  1.
          3   -1    0    0  501    0  0.00000000000E+00 -0.00000000000E+00 -0.48850565879E+02  0.48850565879E+02  0.00000000000E+00 0. -1.
         23    2    1    2    0    0 -0.50942713055E+02  0.99644833359E+01  0.10929538475E+03  0.15151603414E+03  0.91198555534E+02 0.  0.
          5    1    1    2  502    0  0.65740749033E+02 -0.53122213264E+02  0.11264205162E+03  0.14088832392E+03  0.41800000000E+01 0. -1.
         -5    1    1    2    0  502 -0.14798035978E+02  0.43157729928E+02  0.24919792429E+02  0.52154002493E+02  0.41800000000E+01 0. -1.
        -11    1    3    3    0    0  0.20694746618E+02  0.66010752476E+01  0.11503728031E+01  0.21752473183E+02  0.00000000000E+00 0. -1.
         11    1    3    3    0    0 -0.71637459673E+02  0.33634080883E+01  0.10814501195E+03  0.12976356096E+03  0.00000000000E+00 0.  1.
</event>
<event>
 7    1  0.6145388E-006  0.6434360E+02  0.7561462E-02  0.1380458E+00
         -2   -1    0    0    0  501 -0.00000000000E+00  0.00000000000E+00  0.33470010894E+02  0.33470010894E+02  0.00000000000E+00 0. -1.
          2   -1    0    0  501    0  0.00000000000E+00 -0.00000000000E+00 -0.46252506295E+03  0.46252506295E+03  0.00000000000E+00 0.  1.
         23    2    1    2    0    0  0.18562820331E+01 -0.54442622235E+02 -0.12920758541E+03  0.16656972292E+03  0.89907883780E+02 0.  0.
          5    1    1    2  502    0 -0.23198775341E+02  0.31366576265E+02 -0.29470054527E+03  0.29730107478E+03  0.41800000000E+01 0.  1.
         -5    1    1    2    0  502  0.21342493307E+02  0.23076045970E+02 -0.51469213732E+01  0.32124276144E+02  0.41800000000E+01 0.  1.
        -11    1    3    3    0    0  0.85117594177E+01 -0.11617111035E+02  0.12072009776E+02  0.18792039198E+02  0.00000000000E+00 0. -1.
         11    1    3    3    0    0 -0.66554773845E+01 -0.42825511200E+02 -0.14127959519E+03  0.14777768372E+03  0.00000000000E+00 0.  1.
</event>
<event>
 7    1  0.6145388E-006  0.1634762E+03  0.7561462E-02  0.1184827E+00
         -4   -1    0    0    0  501 -0.00000000000E+00  0.00000000000E+00  0.11323191281E+03  0.11323191281E+03  0.00000000000E+00 0.  1.
          4   -1    0    0  501    0  0.00000000000E+00 -0.00000000000E+00 -0.42842600996E+03  0.42842600996E+03  0.00000000000E+00 0. -1.
         23    2    1    2    0    0 -0.93073803318E+02  0.35854932002E+02 -0.27740061651E+03  0.30898613684E+03  0.92590613463E+02 0.  0.
          5    1    1    2  502    0  0.12816422026E+03 -0.73987994966E+02 -0.77638779227E+02  0.16716920528E+03  0.41800000000E+01 0. -1.
         -5    1    1    2    0  502 -0.35090416940E+02  0.38133062964E+02  0.39845298601E+02  0.65502580656E+02  0.41800000000E+01 0.  1.
        -11    1    3    3    0    0  0.11645442978E+02  0.16855649438E+02 -0.10026245760E+03  0.10233420574E+03  0.00000000000E+00 0. -1.
         11    1    3    3    0    0 -0.10471924630E+03  0.18999282564E+02 -0.17713815891E+03  0.20665193109E+03  0.00000000000E+00 0.  1.
</event>
<event>
 7    1  0.6145388E-006  0.1594463E+03  0.7561462E-02  0.1189323E+00
         -2   -1    0    0    0  501 -0.00000000000E+00  0.00000000000E+00  0.11268325093E+03  0.11268325093E+03  0.00000000000E+00 0.  1.
          2   -1    0    0  501    0  0.00000000000E+00 -0.00000000000E+00 -0.29760265160E+03  0.29760265160E+03  0.00000000000E+00 0. -1.
         23    2    1    2    0    0 -0.49231094566E+02 -0.13098947012E+03 -0.13959119205E+03  0.21719441635E+03  0.90032058967E+02 0.  0.
          5    1    1    2  502    0  0.54531155924E+02  0.14432474452E+03 -0.65769470727E+02  0.16776881274E+03  0.41800000000E+01 0. -1.
         -5    1    1    2    0  502 -0.53000613579E+01 -0.13335274405E+02  0.20441262104E+02  0.25322673442E+02  0.41800000000E+01 0. -1.
        -11    1    3    3    0    0 -0.27705667219E+02 -0.14743107719E+02  0.35047361477E+01  0.31579208298E+02  0.00000000000E+00 0.  1.
         11    1    3    3    0    0 -0.21525427347E+02 -0.11624636240E+03 -0.14309592820E+03  0.18561520805E+03  0.00000000000E+00 0. -1.
</event>
<event>
 7    1  0.6145388E-006  0.1204461E+03  0.7561462E-02  0.1242363E+00
         -2   -1    0    0    0  501 -0.00000000000E+00  0.00000000000E+00  0.93075730586E+02  0.93075730586E+02  0.00000000000E+00 0.  1.
          2   -1    0    0  501    0  0.00000000000E+00 -0.00000000000E+00 -0.27709269576E+03  0.27709269576E+03  0.00000000000E+00 0. -1.
         23    2    1    2    0    0 -0.97342476194E+02 -0.29411103553E+02 -0.15182323740E+03  0.20577665957E+03  0.94621179053E+02 0.  0.
          5    1    1    2  502    0  0.85650320225E+02  0.30412178515E+02  0.33929063413E+02  0.97105775836E+02  0.41800000000E+01 0.  1.
         -5    1    1    2    0  502  0.11692155969E+02 -0.10010749619E+01 -0.66122791193E+02  0.67285990945E+02  0.41800000000E+01 0.  1.
        -11    1    3    3    0    0  0.83117408810E+01  0.19369861801E+02 -0.13580590016E+02  0.25074070429E+02  0.00000000000E+00 0.  1.
         11    1    3    3    0    0 -0.10565421708E+03 -0.48780965354E+02 -0.13824264738E+03  0.18070258914E+03  0.00000000000E+00 0. -1.
</event>
<event>
 7    1  0.6145388E-006  0.1119701E+03  0.7561462E-02  0.1256964E+00
          1   -1    0    0  501    0  0.00000000000E+00  0.00000000000E+00  0.53295429540E+03  0.53295429540E+03  0.00000000000E+00 0. -1.
         -1   -1    0    0    0  501 -0.00000000000E+00 -0.00000000000E+00 -0.43023152886E+02  0.43023152886E+02  0.00000000000E+00 0.  1.
         23    2    1    2    0    0 -0.26584497018E+02  0.88208244444E+01  0.40487555108E+03  0.42213318154E+03  0.11613642265E+03 0.  0.
          5    1    1    2  502    0  0.65463174500E+02 -0.44216447213E+01  0.66025239692E+01  0.66076046193E+02  0.41800000000E+01 0.  1.
         -5    1    1    2    0  502 -0.38878677482E+02 -0.43991797231E+01  0.78453067467E+02  0.87768220558E+02  0.41800000000E+01 0.  1.
        -11    1    3    3    0    0 -0.72502523407E+02  0.77418848791E+01  0.26886168093E+03  0.27857343045E+03  0.00000000000E+00 0.  1.
         11    1    3    3    0    0  0.45918026389E+02  0.10789395653E+01  0.13601387015E+03  0.14355975108E+03  0.00000000000E+00 0. -1.
</event>
<event>
 7    1  0.6145388E-006  0.1293411E+03  0.7561462E-02  0.1228437E+00
          4   -1    0    0  501    0  0.00000000000E+00  0.00000000000E+00  0.28570912589E+02  0.28570912589E+02  0.00000000000E+00 0. -1.
         -4   -1    0    0    0  501 -0.00000000000E+00 -0.00000000000E+00 -0.63195451834E+03  0.63195451834E+03  0.00000000000E+00 0.  1.
         23    2    1    2    0    0 -0.81624032276E+01 -0.70319885135E+02 -0.18757935888E+03  0.22057998046E+03  0.91967390033E+02 0.  0.
          5    1    1    2  502    0 -0.38163726045E+02  0.85478559541E+02 -0.24630791277E+03  0.26353010154E+03  0.41800000000E+01 0.  1.
         -5    1    1    2    0  502  0.46326129273E+02 -0.15158674405E+02 -0.16949633411E+03  0.17641534893E+03  0.41800000000E+01 0.  1.
        -11    1    3    3    0    0 -0.46796886621E+02 -0.59952682633E+02 -0.12361841400E+03  0.14514056990E+03  0.00000000000E+00 0. -1.
         11    1    3    3    0    0  0.38634483393E+02 -0.10367202502E+02 -0.63960944886E+02  0.75439410559E+02  0.00000000000E+00 0.  1.
</event>
<event>
 7    1  0.6145388E-006  0.1173022E+03  0.7561462E-02  0.1247615E+00
         -1   -1    0    0    0  501 -0.00000000000E+00  0.00000000000E+00  0.33135749446E+02  0.33135749446E+02  0.00000000000E+00 0.  1.
          1   -1    0    0  501    0  0.00000000000E+00 -0.00000000000E+00 -0.62975866772E+03  0.62975866772E+03  0.00000000000E+00 0. -1.
         23    2    1    2    0    0  0.65905877578E+02 -0.62703993471E+02 -0.27561935531E+03  0.30656127094E+03  0.98683374104E+02 0.  0.
          5    1    1    2  502    0  0.19286136539E+01 -0.97649726507E+01  0.74929656394E+01  0.13141201451E+02  0.41800000000E+01 0. -1.
         -5    1    1    2    0  502 -0.67834491232E+02  0.72468966122E+02 -0.32849652861E+03  0.34319194478E+03  0.41800000000E+01 0. -1.
        -11    1    3    3    0    0  0.41547959843E+00 -0.58852132187E+02 -0.74077332477E+02  0.94610767216E+02  0.00000000000E+00 0.  1.
         11    1    3    3    0    0  0.65490397979E+02 -0.38518612835E+01 -0.20154202283E+03  0.21195050372E+03  0.00000000000E+00 0. -1.
</event>
<event>
 7    1  0.6145388E-006  0.8082601E+02  0.7561462E-02  0.1326724E+00
          2   -1    0    0  501    0  0.00000000000E+00  0.00000000000E+00  0.24979236735E+03  0.24979236735E+03  0.00000000000E+00 0. -1.
         -2   -1    0    0    0  501 -0.00000000000E+00 -0.00000000000E+00 -0.65302797201E+02  0.65302797201E+02  0.00000000000E+00 0.  1.
         23    2    1    2    0    0 -0.44218083472E+02  0.51415691554E+02  0.10659528377E+03  0.15288004094E+03  0.86086817520E+02 0.  0.
          5    1    1    2  502    0  0.40380399079E+02  0.11019298882E+01 -0.24192985025E+02  0.47271173073E+02  0.41800000000E+01 0. -1.
         -5    1    1    2    0  502  0.38376843928E+01 -0.52517621442E+02  0.10208727140E+03  0.11494395054E+03  0.41800000000E+01 0. -1.
        -11    1    3    3    0    0 -0.16759087117E+02  0.14186243511E+02  0.10427474827E+03  0.10656143595E+03  0.00000000000E+00 0. -1.
         11    1    3    3    0    0 -0.27458996356E+02  0.37229448043E+02  0.23205355002E+01  0.46318604982E+02  0.00000000000E+00 0.  1.
</event>
<event>
 7    1  0.6145388E-006  0.1041575E+03  0.7561462E-02  0.1271789E+00
         -2   -1    0    0    0  501 -0.00000000000E+00  0.00000000000E+00  0.24517385392E+03  0.24517385392E+03  0.00000000000E+00 0.  1.
          2   -1    0    0  501    0  0.00000000000E+00 -0.00000000000E+00 -0.87315711643E+02  0.87315711643E+02  0.00000000000E+00 0. -1.
         23    2    1    2    0    0 -0.79704096525E+01 -0.91565582893E+02  0.44021815257E+02  0.13999541788E+03  0.95984443572E+02 0.  0.
          5    1    1    2  502    0 -0.23222216540E+02  0.75957622283E+01 -0.19685886273E+02  0.31653964415E+02  0.41800000000E+01 0. -1.
         -5    1    1    2    0  502  0.31192626192E+02  0.83969820665E+02  0.13352221329E+03  0.16084018327E+03  0.41800000000E+01 0. -1.
        -11    1    3    3    0    0  0.53123309678E+01 -0.48388806883E+02 -0.27119139104E+02  0.55723829710E+02  0.00000000000E+00 0. -1.
         11    1    3    3    0    0 -0.13282740620E+02 -0.43176776011E+02  0.71140954361E+02  0.84271588168E+02  0.00000000000E+00 0.  1.
</event>
<event>
 7    1  0.6145388E-006  0.1331234E+03  0.7561462E-02  0.1222893E+00
         -2   -1    0    0    0  501 -0.00000000000E+00  0.00000000000E+00  0.37245814118E+02  0.37245814118E+02  0.00000000000E+00 0.  1.
          2   -1    0    0  501    0  0.00000000000E+00 -0.00000000000E+00 -0.73123345797E+03  0.73123345797E+03  0.00000000000E+00 0. -1.
         23    2    1    2    0    0  0.30911162313E+01 -0.11424980719E+03 -0.43801410844E+03  0.46151090346E+03  0.89851997064E+02 0.  0.
          5    1    1    2  502    0 -0.20606423656E+02  0.83442924549E+02 -0.53395199468E+02  0.10127125001E+03  0.41800000000E+01 0. -1.
         -5    1    1    2    0  502  0.17515307425E+02  0.30806882645E+02 -0.20257833595E+03  0.20569711862E+03  0.41800000000E+01 0. -1.
        -11    1    3    3    0    0 -0.25847050798E+02 -0.11259811155E+03 -0.36885142547E+03  0.38652008852E+03  0.00000000000E+00 0. -1.
         11    1    3    3    0    0  0.28938167029E+02 -0.16516956454E+01 -0.69162682969E+02  0.74990814937E+02  0.00000000000E+00 0.  1.
</event>
<event>
 7    1  0.6145388E-006  0.9336640E+02  0.7561462E-02  0.1294898E+00
         -2   -1    0    0    0  501 -0.00000000000E+00  0.00000000000E+00  0.75821221919E+02  0.75821221919E+02  0.00000000000E+00 0.  1.
          2   -1    0    0  501    0  0.00000000000E+00 -0.00000000000E+00 -0.19436204968E+03  0.19436204968E+03  0.00000000000E+00 0. -1.
         23    2    1    2    0    0 -0.10254947736E+02 -0.40182069260E+02 -0.90749142003E+02  0.13550200800E+03  0.91682194322E+02 0.  0.
          5    1    1    2  502    0  0.44659238248E+01 -0.25143015860E+02 -0.57128752488E+02  0.62715887007E+02  0.41800000000E+01 0.  1.
         -5    1    1    2    0  502  0.57890239115E+01  0.65325085120E+02  0.29337066727E+02  0.71965376591E+02  0.41800000000E+01 0.  1.
        -11    1    3    3    0    0 -0.23625565922E+02 -0.63782496031E+02 -0.42654459812E+02  0.80285597133E+02  0.00000000000E+00 0.  1.
         11    1    3    3    0    0  0.13370618185E+02  0.23600426771E+02 -0.48094682191E+02  0.55216410871E+02  0.00000000000E+00 0. -1.
</event>
<event>
 7    1  0.6145388E-006  0.7524028E+02  0.7561462E-02  0.1343129E+00
         -1   -1    0    0    0  501 -0.00000000000E+00  0.00000000000E+00  0.68431506325E+03  0.68431506325E+03  0.00000000000E+00 0.  1.
          1   -1    0    0  501    0  0.00000000000E+00 -0.00000000000E+00 -0.20468945106E+02  0.20468945106E+02  0.00000000000E+00 0. -1.
         23    2    1    2    0    0 -0.23510938561E+01 -0.32536302828E+02  0.19650176109E+03  0.21988926852E+03  0.93135437159E+02 0.  0.
          5    1    1    2  502    0  0.34697035473E+02  0.37057527520E+02  0.43750016735E+03  0.44045546137E+03  0.41800000000E+01 0. -1.
         -5    1    1    2    0  502 -0.32345941616E+02 -0.45212246920E+01  0.29844189708E+02  0.44439278472E+02  0.41800000000E+01 0. -1.
        -11    1    3    3    0    0  0.27820510569E+02 -0.17905214455E+02  0.17906289912E+03  0.18209365545E+03  0.00000000000E+00 0.  1.
         11    1    3    3    0    0 -0.30171604425E+02 -0.14631088373E+02  0.17438861965E+02  0.37795613068E+02  0.00000000000E+00 0. -1.
</event>
<event>
 7    1  0.6145388E-006  0.1448440E+03  0.7561462E-02  0.1206956E+00
         -1   -1    0    0    0  501 -0.00000000000E+00  0.00000000000E+00  0.77627520860E+02  0.77627520860E+02  0.00000000000E+00 0.  1.
          1   -1    0    0  501    0  0.00000000000E+00 -0.00000000000E+00 -0.52961069432E+03  0.52961069432E+03  0.00000000000E+00 0. -1.
         23    2    1    2    0    0 -0.16295085746E+01  0.12570890803E+03 -0.39011940593E+03  0.41940860304E+03  0.88910295012E+02 0.  0.
          5    1    1    2  502    0  0.52272970356E+02 -0.78765880034E+02  0.59234670079E+00  0.94627430284E+02  0.41800000000E+01 0. -1.
         -5    1    1    2    0  502 -0.50643461782E+02 -0.46943027998E+02 -0.62456114230E+02  0.93202181861E+02  0.41800000000E+01 0. -1.
        -11    1    3    3    0    0 -0.38113749196E+01  0.51239845878E+02 -0.51715594710E+02  0.72900967899E+02  0.00000000000E+00 0.  1.
         11    1    3    3    0    0  0.21818663450E+01  0.74469062154E+02 -0.33840381122E+03  0.34650763514E+03  0.00000000000E+00 0. -1.
</event>
<event>
 7    1  0.6145388E-006  0.9960451E+02  0.7561462E-02  0.1281130E+00
         -2   -1    0    0    0  501 -0.00000000000E+00  0.00000000000E+00  0.89332116008E+03  0.89332116008E+03  0.00000000000E+00 0. -1.
          2   -1    0    0  501    0  0.00000000000E+00 -0.00000000000E+00 -0.20391937524E+02  0.20391937524E+02  0.00000000000E+00 0.  1.
         23    2    1    2    0    0 -0.10328330672E+02 -0.21464507858E+02  0.13005317931E+03  0.16000266241E+03  0.90108950819E+02 0.  0.
          5    1    1    2  502    0  0.11918544702E+02  0.72452232211E+02  0.51003420982E+03  0.51530936848E+03  0.41800000000E+01 0.  1.
         -5    1    1    2    0  502 -0.15902140299E+01 -0.50987724353E+02  0.23284183343E+03  0.23840106672E+03  0.41800000000E+01 0.  1.
        -11    1    3    3    0    0 -0.12544179184E+01 -0.47187486388E+02  0.12311988216E+03  0.13185877983E+03  0.00000000000E+00 0. -1.
         11    1    3    3    0    0 -0.90739127540E+01  0.25722978530E+02  0.69332971485E+01  0.28143882576E+02  0.00000000000E+00 0.  1.
</event>
<event>
 7    1  0.6145388E-006  0.1416244E+03  0.7561462E-02  0.1211160E+00
          2   -1    0    0  501    0  0.00000000000E+00  0.00000000000E+00  0.10108926041E+03  0.10108926041E+03  0.00000000000E+00 0. -1.
         -2   -1    0    0    0  501 -0.00000000000E+00 -0.00000000000E+00 -0.21679192164E+03  0.21679192164E+03  0.00000000000E+00 0.  1.
         23    2    1    2    0    0 -0.58856969161E+02  0.73144695974E+02 -0.22166191453E+02  0.13349666027E+03  0.92280707039E+02 0.  0.
          5    1    1    2  502    0  0.99342912062E+02 -0.59921471880E+02 -0.69342322519E+02  0.13522361873E+03  0.41800000000E+01 0. -1.
         -5    1    1    2    0  502 -0.40485942901E+02 -0.13223224094E+02 -0.24194147256E+02  0.49160903058E+02  0.41800000000E+01 0.  1.
        -11    1    3    3    0    0  0.10725794619E+02  0.49839896679E+02 -0.30872824193E+02  0.59600245342E+02  0.00000000000E+00 0. -1.
         11    1    3    3    0    0 -0.69582763780E+02  0.23304799295E+02  0.87066327396E+01  0.73896414927E+02  0.00000000000E+00 0.  1.
</event>
<event>
 7    1  0.6145388E-006  0.7944799E+02  0.7561462E-02  0.1330625E+00
          1   -1    0    0  501    0  0.00000000000E+00  0.00000000000E+00  0.22740810705E+03  0.22740810705E+03  0.00000000000E+00 0.  1.
         -1   -1    0    0    0  501 -0.00000000000E+00 -0.00000000000E+00 -0.59521325966E+02  0.59521325966E+02  0.00000000000E+00 0. -1.
         23    2    1    2    0    0  0.27047214612E+02 -0.29616386866E+02  0.11051969502E+03  0.14362815462E+03  0.82497040088E+02 0.  0.
          5    1    1    2  502    0 -0.11678346467E+02  0.54922004761E+02 -0.20476166751E+02  0.59912905021E+02  0.41800000000E+01 0. -1.
         -5    1    1    2    0  502 -0.15368868145E+02 -0.25305617896E+02  0.77843252819E+02  0.83388373378E+02  0.41800000000E+01 0. -1.
        -11    1    3    3    0    0 -0.19011787500E+02 -0.15461066569E+02  0.86274490283E+02  0.89687124588E+02  0.00000000000E+00 0.  1.
         11    1    3    3    0    0  0.46059002112E+02 -0.14155320297E+02  0.24245204737E+02  0.53941030032E+02  0.00000000000E+00 0. -1.
</event>
<event>
 7    1  0.6145388E-006  0.7182547E+02  0.7561462E-02  0.1353993E+00
          2   -1    0    0  501    0  0.00000000000E+00  0.00000000000E+00  0.51410158609E+03  0.51410158609E+03  0.00000000000E+00 0. -1.
         -2   -1    0    0    0  501 -0.00000000000E+00 -0.00000000000E+00 -0.25556857200E+02  0.25556857200E+02  0.00000000000E+00 0.  1.
         23    2    1    2    0    0  0.32651555441E+02  0.22570481544E+02  0.21902418081E+03  0.23988200976E+03  0.89421675886E+02 0.  0.
          5    1    1    2  502    0  0.10505110073E+01 -0.22908752466E+02 -0.44307535380E+01  0.23728010659E+02  0.41800000000E+01 0.  1.
         -5    1    1    2    0  502 -0.33702066448E+02  0.33827092130E+00  0.27395130162E+03  0.27604842287E+03  0.41800000000E+01 0.  1.
        -11    1    3    3    0    0  0.15086915942E+01  0.46859365264E+02  0.60654064837E+02  0.76661540844E+02  0.00000000000E+00 0.  1.
         11    1    3    3    0    0  0.31142863846E+02 -0.24288883719E+02  0.15837011597E+03  0.16322046891E+03  0.00000000000E+00 0. -1.
</event>
<event>
 7    1  0.6145388E-006  0.9725148E+02  0.7561462E-02  0.1286184E+00
         -3   -1    0    0    0  501 -0.00000000000E+00  0.00000000000E+00  0.17170568815E+03  0.17170568815E+03  0.00000000000E+00 0.  1.
          3   -1    0    0  501    0  0.00000000000E+00 -0.00000000000E+00 -0.99314899032E+02  0.99314899032E+02  0.00000000000E+00 0. -1.
         23    2    1    2    0    0 -0.79343747651E+01 -0.67583607265E+02 -0.12591520455E+02  0.11077101793E+03  0.86493778693E+02 0.  0.
          5    1    1    2  502    0 -0.23403122839E+02 -0.12547540944E+02  0.67081090088E+02  0.72266811123E+02  0.41800000000E+01 0. -1.
         -5    1    1    2    0  502  0.31337497605E+02  0.80131148208E+02  0.17901219489E+02  0.87982758132E+02  0.41800000000E+01 0.  1.
        -11    1    3    3    0    0 -0.17194250210E+02 -0.45735061292E+01  0.29486823873E+02  0.34438815031E+02  0.00000000000E+00 0.  1.
         11    1    3    3    0    0  0.92598754445E+01 -0.63010101135E+02 -0.42078344328E+02  0.76332202901E+02  0.00000000000E+00 0. -1.
</event>
<event>
 7    1  0.6145388E-006  0.8205287E+02  0.7561462E-02  0.1323325E+00
          2   -1    0    0  501    0  0.00000000000E+00  0.00000000000E+00  0.24697017618E+03  0.24697017618E+03  0.00000000000E+00 0. -1.
         -2   -1    0    0    0  501 -0.00000000000E+00 -0.00000000000E+00 -0.56098346180E+02  0.56098346180E+02  0.00000000000E+00 0.  1.
         23    2    1    2    0    0 -0.45559636721E+02  0.12036959634E+02  0.81979119102E+02  0.13065188588E+03  0.90159693992E+02 0.  0.
          5    1    1    2  502    0 -0.23887234868E+02 -0.10726461705E+02 -0.14893426708E+02  0.30412884267E+02  0.41800000000E+01 0.  1.
         -5    1    1    2    0  502  0.69446871589E+02 -0.13104979288E+01  0.12378613760E+03  0.14200375221E+03  0.41800000000E+01 0.  1.
        -11    1    3    3    0    0 -0.20709644856E+02  0.30626003080E+02 -0.59141129639E+01  0.37440862528E+02  0.00000000000E+00 0.  1.
         11    1    3    3    0    0 -0.24849991866E+02 -0.18589043446E+02  0.87893232065E+02  0.93211023355E+02  0.00000000000E+00 0. -1.
</event>
<event>
 7    1  0.6145388E-006  0.1434927E+03  0.7561462E-02  0.1208705E+00
          2   -1    0    0  501    0  0.00000000000E+00  0.00000000000E+00  0.10456849796E+04  0.10456849796E+04  0.00000000000E+00 0. -1.
         -2   -1    0    0    0  501 -0.00000000000E+00 -0.00000000000E+00 -0.26706068878E+02  0.26706068878E+02  0.00000000000E+00 0.  1.
         23    2    1    2    0    0 -0.58148565659E+02 -0.11117698538E+03  0.42041470902E+03  0.44815726125E+03  0.91404734488E+02 0.  0.
          5    1    1    2  502    0  0.27547858690E+02  0.95959863686E+02  0.19413432361E+03  0.21834099010E+03  0.41800000000E+01 0. -1.
         -5    1    1    2    0  502  0.30600706968E+02  0.15217121691E+02  0.40442987807E+03  0.40589279709E+03  0.41800000000E+01 0. -1.
        -11    1    3    3    0    0 -0.65062902678E+02 -0.30847080868E+02  0.15796407098E+03  0.17360118497E+03  0.00000000000E+00 0. -1.
         11    1    3    3    0    0  0.69143370198E+01 -0.80329904508E+02  0.26245063804E+03  0.27455607628E+03  0.00000000000E+00 0.  1.
</event>
<event>
 7    1  0.6145388E-006  0.1035303E+03  0.7561462E-02  0.1273043E+00
          1   -1    0    0  501    0  0.00000000000E+00  0.00000000000E+00  0.95749146352E+03  0.95749146352E+03  0.00000000000E+00 0. -1.
         -1   -1    0    0    0  501 -0.00000000000E+00 -0.00000000000E+00 -0.14718545949E+02  0.14718545949E+02  0.00000000000E+00 0.  1.
         23    2    1    2    0    0 -0.14690092156E+02 -0.37964005636E+02  0.43680402759E+03  0.44942000070E+03  0.97588493050E+02 0.  0.
          5    1    1    2  502    0 -0.36863331127E+02 -0.71789726384E+01  0.35427177044E+03  0.35628135310E+03  0.41800000000E+01 0. -1.
         -5    1    1    2    0  502  0.51553423283E+02  0.45142978274E+02  0.15169711953E+03  0.16650865567E+03  0.41800000000E+01 0. -1.
        -11    1    3    3    0    0  0.28650325519E+02 -0.48214545366E+02  0.17245317792E+03  0.18134382292E+03  0.00000000000E+00 0. -1.
         11    1    3    3    0    0 -0.43340417675E+02  0.10250539731E+02  0.26435084967E+03  0.26807617778E+03  0.00000000000E+00 0.  1.
</event>
<event>
 7    1  0.6145388E-006  0.7433625E+02  0.7561462E-02  0.1345939E+00
          3   -1    0    0  501    0  0.00000000000E+00  0.00000000000E+00  0.81478203131E+02  0.81478203131E+02  0.00000000000E+00 0. -1.
         -3   -1    0    0    0  501 -0.00000000000E+00 -0.00000000000E+00 -0.17744614104E+03  0.17744614104E+03  0.00000000000E+00 0.  1.
         23    2    1    2    0    0  0.26908016333E+02 -0.15330498910E+02  0.15171264282E+01  0.97345686669E+02  0.92275757925E+02 0.  0.
          5    1    1    2  502    0 -0.44709889298E+02  0.19012152298E+02 -0.12164554452E+03  0.13105551128E+03  0.41800000000E+01 0.  1.
         -5    1    1    2    0  502  0.17801872966E+02 -0.36816533884E+01  0.24160480180E+02  0.30523146222E+02  0.41800000000E+01 0.  1.
        -11    1    3    3    0    0 -0.25167432844E+02  0.44353064574E+01 -0.24915977404E+02  0.35691421229E+02  0.00000000000E+00 0.  1.
         11    1    3    3    0    0  0.52075449177E+02 -0.19765805368E+02  0.26433103832E+02  0.61654265440E+02  0.00000000000E+00 0. -1.
</event>
<event>
 7    1  0.6145388E-006  0.1060536E+03  0.7561462E-02  0.1268058E+00
         -1   -1    0    0    0  501 -0.00000000000E+00  0.00000000000E+00  0.98434671725E+03  0.98434671725E+03  0.00000000000E+00 0.  1.
          1   -1    0    0  501    0  0.00000000000E+00 -0.00000000000E+00 -0.15383500059E+02  0.15383500059E+02  0.00000000000E+00 0. -1.
         23    2    1    2    0    0  0.55650369884E+01  0.43219563560E+02  0.27748744270E+03  0.29568069627E+03  0.92352005847E+02 0.  0.
          5    1    1    2  502    0  0.52939966744E+02 -0.21980541598E+02  0.18435124416E+03  0.19310266158E+03  0.41800000000E+01 0.  1.
         -5    1    1    2    0  502 -0.58505003732E+02 -0.21239021962E+02  0.50712453034E+03  0.51094685945E+03  0.41800000000E+01 0.  1.
        -11    1    3    3    0    0  0.32055170922E+02  0.54684751859E+02  0.12145675319E+03  0.13700255094E+03  0.00000000000E+00 0. -1.
         11    1    3    3    0    0 -0.26490133934E+02 -0.11465188299E+02  0.15603068951E+03  0.15867814534E+03  0.00000000000E+00 0.  1.
</event>
<event>
 7    1  0.6779975E-006  0.2945941E+03  0.7561462E-02  0.1087975E+00
         -1   -1    0    0    0  501 -0.00000000000E+00  0.00000000000E+00  0.11848961374E+03  0.11848961374E+03  0.00000000000E+00 0.  1.
          1   -1    0    0  501    0  0.00000000000E+00 -0.00000000000E+00 -0.73630668616E+03  0.73630668616E+03  0.00000000000E+00 0. -1.
         23    2    1    2    0    0  0.17980153185E+03 -0.20654050366E+03 -0.30149530892E+03  0.41811025382E+03  0.94494404804E+02 0.  0.
          5    1    1    2  502    0 -0.74252752738E+02  0.64121353054E+01 -0.73292529217E+02  0.10461287687E+03  0.41800000000E+01 0.  1.
         -5    1    1    2    0  502 -0.10554877911E+03  0.20012836836E+03 -0.24302923428E+03  0.33207316921E+03  0.41800000000E+01 0.  1.
        -11    1    3    3    0    0  0.10244761473E+03 -0.50792753022E+02 -0.14026258438E+03  0.18096687570E+03  0.00000000000E+00 0.  1.
         11    1    3    3    0    0  0.77353917116E+02 -0.15574775064E+03 -0.16123272455E+03  0.23714337812E+03  0.00000000000E+00 0. -1.
</event>
<event>
 7    1  0.6145388E-006  0.1244102E+03  0.7561462E-02  0.1235994E+00
          1   -1    0    0  501    0  0.00000000000E+00  0.00000000000E+00  0.12263658558E+03  0.12263658558E+03  0.00000000000E+00 0. -1.
         -1   -1    0    0    0  501 -0.00000000000E+00 -0.00000000000E+00 -0.23778154508E+03  0.23778154508E+03  0.00000000000E+00 0.  1.
         23    2    1    2    0    0  0.43591433565E+02  0.11553681214E+03  0.40745525655E+00  0.15006523590E+03  0.85266880828E+02 0.  0.
          5    1    1    2  502    0 -0.29718824160E+02 -0.82660963115E+02 -0.14110533163E+03  0.16626554167E+03  0.41800000000E+01 0.  1.
         -5    1    1    2    0  502 -0.13872609405E+02 -0.32875849029E+02  0.25552916879E+02  0.44087353086E+02  0.41800000000E+01 0.  1.
        -11    1    3    3    0    0  0.23525075966E+02  0.36621920670E+02 -0.40043867839E+02  0.59144785267E+02  0.00000000000E+00 0.  1.
         11    1    3    3    0    0  0.20066357598E+02  0.78914891475E+02  0.40451323096E+02  0.90920450636E+02  0.00000000000E+00 0. -1.
</event>
<event>
 7    1  0.6145388E-006  0.2147935E+03  0.7561462E-02  0.1137825E+00
         -2   -1    0    0    0  501 -0.00000000000E+00  0.00000000000E+00  0.19969235417E+03  0.19969235417E+03  0.00000000000E+00 0.  1.
          2   -1    0    0  501    0  0.00000000000E+00 -0.00000000000E+00 -0.37643847013E+03  0.37643847013E+03  0.00000000000E+00 0. -1.
         23    2    1    2    0    0  0.13460238786E+02  0.19647255938E+03 -0.25051759345E+03  0.33144327993E+03  0.91175317731E+02 0.  0.
          5    1    1    2  502    0 -0.25488245894E+02 -0.21651126923E+00  0.36186987713E+02  0.44459734993E+02  0.41800000000E+01 0. -1.
         -5    1    1    2    0  502  0.12028007109E+02 -0.19625604811E+03  0.37584489779E+02  0.20022780938E+03  0.41800000000E+01 0. -1.
        -11    1    3    3    0    0  0.29336066617E+02  0.38918050037E+02 -0.22120957474E+02  0.53521548770E+02  0.00000000000E+00 0. -1.
         11    1    3    3    0    0 -0.15875827831E+02  0.15755450934E+03 -0.22839663598E+03  0.27792173116E+03  0.00000000000E+00 0.  1.
</event>
<event>
 7    1  0.6145388E-006  0.9472368E+02  0.7561462E-02  0.1291800E+00
          3   -1    0    0  501    0  0.00000000000E+00  0.00000000000E+00  0.57915598005E+02  0.57915598005E+02  0.00000000000E+00 0. -1.
         -3   -1    0    0    0  501 -0.00000000000E+00 -0.00000000000E+00 -0.28166106647E+03  0.28166106647E+03  0.00000000000E+00 0.  1.
         23    2    1    2    0    0 -0.10883255572E+02  0.55952091196E+02 -0.56154378487E+02  0.12281572070E+03  0.93173522351E+02 0.  0.
          5    1    1    2  502    0 -0.83646227472E+01 -0.69361262627E+02 -0.17761770739E+03  0.19090959652E+03  0.41800000000E+01 0.  1.
         -5    1    1    2    0  502  0.19247878319E+02  0.13409171432E+02  0.10026617405E+02  0.25851347254E+02  0.41800000000E+01 0.  1.
        -11    1    3    3    0    0 -0.43587380875E+02  0.40345843260E+02 -0.62284477014E+02  0.86063946672E+02  0.00000000000E+00 0.  1.
         11    1    3    3    0    0  0.32704125302E+02  0.15606247936E+02  0.61300985267E+01  0.36751774030E+02  0.00000000000E+00 0. -1.
</event>
<event>
 7    1  0.6145388E-006  0.1995416E+03  0.7561462E-02  0.1150126E+00
         -1   -1    0    0    0  501 -0.00000000000E+00  0.00000000000E+00  0.15361150613E+03  0.15361150613E+03  0.00000000000E+00 0.  1.
          1   -1    0    0  501    0  0.00000000000E+00 -0.00000000000E+00 -0.27634766403E+03  0.27634766403E+03  0.00000000000E+00 0. -1.
         23    2    1    2    0    0 -0.10220429785E+03 -0.14170749660E+03 -0.72370880321E+02  0.20925416862E+03  0.89571366362E+02 0.  0.
          5    1    1    2  502    0  0.19241635888E+02  0.12941969894E+03 -0.30426052238E+02  0.13439834850E+03  0.41800000000E+01 0. -1.
         -5    1    1    2    0  502  0.82962661964E+02  0.12287797668E+02 -0.19939225343E+02  0.86306653040E+02  0.41800000000E+01 0. -1.
        -11    1    3    3    0    0 -0.25557949895E+01 -0.45887678825E+02 -0.52196650563E+02  0.69546398080E+02  0.00000000000E+00 0. -1.
         11    1    3    3    0    0 -0.99648502863E+02 -0.95819817779E+02 -0.20174229758E+02  0.13970777054E+03  0.00000000000E+00 0.  1.
</event>
<event>
 7    1  0.6145388E-006  0.9770985E+02  0.7561462E-02  0.1285187E+00
         -3   -1    0    0    0  501 -0.00000000000E+00  0.00000000000E+00  0.38058832327E+03  0.38058832327E+03  0.00000000000E+00 0.  1.
          3   -1    0    0  501    0  0.00000000000E+00 -0.00000000000E+00 -0.32506064016E+02  0.32506064016E+02  0.00000000000E+00 0. -1.
         23    2    1    2    0    0  0.78974348955E+01 -0.56305971330E+01  0.10280014630E+03  0.13759030916E+03  0.90934866767E+02 0.  0.
          5    1    1    2  502    0 -0.57509999804E+02 -0.11496249127E+02  0.64801141595E+02  0.87499852420E+02  0.41800000000E+01 0. -1.
         -5    1    1    2    0  502  0.49612564908E+02  0.17126846260E+02  0.18048097136E+03  0.18800422570E+03  0.41800000000E+01 0. -1.
        -11    1    3    3    0    0 -0.31009890095E+02  0.20436977894E+02  0.73492188339E+02  0.82343093797E+02  0.00000000000E+00 0.  1.
         11    1    3    3    0    0  0.38907324991E+02 -0.26067575027E+02  0.29307957960E+02  0.55247215364E+02  0.00000000000E+00 0. -1.
</event>
<event>
 7    1  0.6145388E-006  0.9091137E+02  0.7561462E-02  0.1300660E+00
         -1   -1    0    0    0  501 -0.00000000000E+00  0.00000000000E+00  0.45740387401E+02  0.45740387401E+02  0.00000000000E+00 0.  1.
          1   -1    0    0  501    0  0.00000000000E+00 -0.00000000000E+00 -0.28685236591E+03  0.28685236591E+03  0.00000000000E+00 0. -1.
         23    2    1    2    0    0  0.11358303409E+02 -0.12225002722E+01 -0.15643703528E+03  0.18110509698E+03  0.90531787693E+02 0.  0.
          5    1    1    2  502    0  0.24441069729E+02 -0.51602388543E+02 -0.20286951243E+02  0.60738827644E+02  0.41800000000E+01 0.  1.
         -5    1    1    2    0  502 -0.35799373138E+02  0.52824888815E+02 -0.64387991989E+02  0.90748828686E+02  0.41800000000E+01 0.  1.
        -11    1    3    3    0    0 -0.24439515177E+02 -0.37949689886E+01 -0.46920130752E+01  0.25173531306E+02  0.00000000000E+00 0.  1.
         11    1    3    3    0    0  0.35797818586E+02  0.25724687164E+01 -0.15174502220E+03  0.15593156568E+03  0.00000000000E+00 0. -1.
</event>
<event>
 7    1  0.6145388E-006  0.9869917E+02  0.7561462E-02  0.1283055E+00
          4   -1    0    0  501    0  0.00000000000E+00  0.00000000000E+00  0.13964662303E+03  0.13964662303E+03  0.00000000000E+00 0. -1.
         -4   -1    0    0    0  501 -0.00000000000E+00 -0.00000000000E+00 -0.14829343696E+03  0.14829343696E+03  0.00000000000E+00 0.  1.
         23    2    1    2    0    0 -0.41451749025E+02  0.71575475226E+02  0.39035020907E+02  0.13059124774E+03  0.93215046945E+02 0.  0.
          5    1    1    2  502    0  0.31002148166E+02 -0.58724366139E+02  0.33426319935E+02  0.74461235779E+02  0.41800000000E+01 0.  1.
         -5    1    1    2    0  502  0.10449600858E+02 -0.12851109087E+02 -0.81108154770E+02  0.82887576470E+02  0.41800000000E+01 0.  1.
        -11    1    3    3    0    0  0.11606164831E+02  0.57811023089E+02  0.46734137134E+02  0.75238932916E+02  0.00000000000E+00 0.  1.
         11    1    3    3    0    0 -0.53057913855E+02  0.13764452138E+02 -0.76991162266E+01  0.55352314820E+02  0.00000000000E+00 0. -1.
</event>
<event>
 7    1  0.6145388E-006  0.9417594E+02  0.7561462E-02  0.1293043E+00
         -1   -1    0    0    0  501 -0.00000000000E+00  0.00000000000E+00  0.54750405659E+02  0.54750405659E+02  0.00000000000E+00 0.  1.
          1   -1    0    0  501    0  0.00000000000E+00 -0.00000000000E+00 -0.29595684584E+03  0.29595684584E+03  0.00000000000E+00 0. -1.
         23    2    1    2    0    0 -0.14534055263E+02  0.26251553133E+02 -0.18978536447E+03  0.21217046959E+03  0.89985781056E+02 0.  0.
          5    1    1    2  502    0 -0.41143303997E+02 -0.16328822043E+02  0.18802800080E+02  0.48274419561E+02  0.41800000000E+01 0.  1.
         -5    1    1    2    0  502  0.55677359260E+02 -0.99227310903E+01 -0.70223875789E+02  0.90262362351E+02  0.41800000000E+01 0.  1.
        -11    1    3    3    0    0 -0.43944451537E+02  0.35347055949E+02 -0.15869331232E+03  0.16841643791E+03  0.00000000000E+00 0. -1.
         11    1    3    3    0    0  0.29410396274E+02 -0.90955028162E+01 -0.31092052156E+02  0.43754031674E+02  0.00000000000E+00 0.  1.
</event>
<event>
 7    1  0.6145388E-006  0.1292854E+03  0.7561462E-02  0.1228520E+00
          1   -1    0    0  501    0  0.00000000000E+00  0.00000000000E+00  0.11265519036E+03  0.11265519036E+03  0.00000000000E+00 0. -1.
         -1   -1    0    0    0  501 -0.00000000000E+00 -0.00000000000E+00 -0.15369139865E+03  0.15369139865E+03  0.00000000000E+00 0.  1.
         23    2    1    2    0    0  0.58013768183E+02  0.38555811162E+02 -0.26995920064E+00  0.11747712073E+03  0.94597321021E+02 0.  0.
          5    1    1    2  502    0 -0.71602901089E+02 -0.73909896005E+02 -0.40761261661E+02  0.11076371709E+03  0.41800000000E+01 0.  1.
         -5    1    1    2    0  502  0.13589132907E+02  0.35354084843E+02 -0.49874303806E-02  0.38105751182E+02  0.41800000000E+01 0.  1.
        -11    1    3    3    0    0 -0.54253107399E+00 -0.28468470329E+02 -0.40295073151E+00  0.28476490516E+02  0.00000000000E+00 0. -1.
         11    1    3    3    0    0  0.58556299257E+02  0.67024281491E+02  0.13299153086E+00  0.89000630215E+02  0.00000000000E+00 0.  1.
</event>
<event>
 7    1  0.6145388E-006  0.1229504E+03  0.7561462E-02  0.1238308E+00
         -1   -1    0    0    0  501 -0.00000000000E+00  0.00000000000E+00  0.43835426877E+02  0.43835426877E+02  0.00000000000E+00 0.  1.
          1   -1    0    0  501    0  0.00000000000E+00 -0.00000000000E+00 -0.56249541969E+03  0.56249541969E+03  0.00000000000E+00 0. -1.
         23    2    1    2    0    0  0.38099752646E+02 -0.46339349376E+02 -0.42543843561E+03  0.43918920854E+03  0.91051479667E+02 0.  0.
          5    1    1    2  502    0  0.43232153814E+02  0.33840784735E+02 -0.26422440893E+02  0.61072380154E+02  0.41800000000E+01 0. -1.
         -5    1    1    2    0  502 -0.81331906460E+02  0.12498564641E+02 -0.66799116308E+02  0.10606925787E+03  0.41800000000E+01 0. -1.
        -11    1    3    3    0    0 -0.98604445161E+01 -0.58210476176E+02 -0.25414813181E+03  0.26091562009E+03  0.00000000000E+00 0. -1.
         11    1    3    3    0    0  0.47960197162E+02  0.11871126801E+02 -0.17129030380E+03  0.17827358846E+03  0.00000000000E+00 0.  1.
</event>
<event>
 7    1  0.6145388E-006  0.1135794E+03  0.7561462E-02  0.1254081E+00
          1   -1    0    0  501    0  0.00000000000E+00  0.00000000000E+00  0.34099117890E+03  0.34099117890E+03  0.00000000000E+00 0. -1.
         -1   -1    0    0    0  501 -0.00000000000E+00 -0.00000000000E+00 -0.56423080789E+02  0.56423080789E+02  0.00000000000E+00 0.  1.
         23    2    1    2    0    0 -0.58637214034E+01 -0.52135422095E+02  0.22580338591E+03  0.24958104327E+03  0.92471847650E+02 0.  0.
          5    1    1    2  502    0 -0.34600415130E+02  0.70089980655E+02  0.66486592153E+02  0.10270215894E+03  0.41800000000E+01 0.  1.
         -5    1    1    2    0  502  0.40464136533E+02 -0.17954558561E+02 -0.77218799525E+01  0.45131057471E+02  0.41800000000E+01 0.  1.
        -11    1    3    3    0    0  0.41903812558E+02 -0.17489331773E+02  0.12201965387E+03  0.13019447823E+03  0.00000000000E+00 0. -1.
         11    1    3    3    0    0 -0.47767533962E+02 -0.34646090322E+02  0.10378373204E+03  0.11938656504E+03  0.00000000000E+00 0.  1.
</event>
<event>
 7    1  0.6145388E-006  0.9051738E+02  0.7561462E-02  0.1301604E+00
         -3   -1    0    0    0  501 -0.00000000000E+00  0.00000000000E+00  0.32102619673E+02  0.32102619673E+02  0.00000000000E+00 0.  1.
          3   -1    0    0  501    0  0.00000000000E+00 -0.00000000000E+00 -0.49300925224E+03  0.49300925224E+03  0.00000000000E+00 0. -1.
         23    2    1    2    0    0  0.28507666069E+02 -0.46993087634E+02 -0.26237112073E+03  0.28409612190E+03  0.94079563014E+02 0.  0.
          5    1    1    2  502    0  0.13996407404E+02  0.41979380451E+02 -0.19253226969E+03  0.19759634378E+03  0.41800000000E+01 0. -1.
         -5    1    1    2    0  502 -0.42504073473E+02  0.50137071833E+01 -0.60032421521E+01  0.43419406236E+02  0.41800000000E+01 0. -1.
        -11    1    3    3    0    0  0.44584147010E+02 -0.71139489852E+00 -0.53940315239E+02  0.69984354362E+02  0.00000000000E+00 0.  1.
         11    1    3    3    0    0 -0.16076480941E+02 -0.46281692736E+02 -0.20843080549E+03  0.21411176754E+03  0.00000000000E+00 0. -1.
</event>
<event>
 7    1  0.6145388E-006  0.1231498E+03  0.7561462E-02  0.1237989E+00
          2   -1    0    0  501    0  0.00000000000E+00  0.00000000000E+00  0.12542519689E+03  0.12542519689E+03  0.00000000000E+00 0. -1.
         -2   -1    0    0    0  501 -0.00000000000E+00 -0.00000000000E+00 -0.19760003509E+03  0.19760003509E+03  0.00000000000E+00 0.  1.
         23    2    1    2    0    0  0.17712315699E+02 -0.10033124748E+03  0.42881488672E+02  0.12487185590E+03  0.58086771099E+02 0.  0.
          5    1    1    2  502    0 -0.31012346506E+01 -0.20966063666E+02 -0.60584651813E+02  0.64320804700E+02  0.41800000000E+01 0.  1.
         -5    1    1    2    0  502 -0.14611081049E+02  0.12129731114E+03 -0.54471675055E+02  0.13383257138E+03  0.41800000000E+01 0.  1.
        -11    1    3    3    0    0  0.13306589559E+02 -0.44503355529E+02  0.50200964253E+02  0.68394084473E+02  0.00000000000E+00 0. -1.
         11    1    3    3    0    0  0.44057261405E+01 -0.55827891949E+02 -0.73194755806E+01  0.56477771424E+02  0.00000000000E+00 0.  1.
</event>
<event>
 7    1  0.6145388E-006  0.8399638E+02  0.7561462E-02  0.1318078E+00
          1   -1    0    0  501    0  0.00000000000E+00  0.00000000000E+00  0.34229462387E+03  0.34229462387E+03  0.00000000000E+00 0. -1.
         -1   -1    0    0    0  501 -0.00000000000E+00 -0.00000000000E+00 -0.39015167077E+02  0.39015167077E+02  0.00000000000E+00 0.  1.
         23    2    1    2    0    0 -0.18318448631E+02  0.26011859125E+02  0.13806274718E+03  0.17165224053E+03  0.96907105747E+02 0.  0.
          5    1    1    2  502    0 -0.30706613355E+02 -0.28774873103E+02  0.56627935428E+01  0.42666486339E+02  0.41800000000E+01 0. -1.
         -5    1    1    2    0  502  0.49025061986E+02  0.27630139787E+01  0.15955391606E+03  0.16699106407E+03  0.41800000000E+01 0. -1.
        -11    1    3    3    0    0 -0.20851410079E+02 -0.20853324802E+02  0.41838960848E+01  0.29785020464E+02  0.00000000000E+00 0.  1.
         11    1    3    3    0    0  0.25329614476E+01  0.46865183927E+02  0.13387885110E+03  0.14186722007E+03  0.00000000000E+00 0. -1.
</event>
<event>
 7    1  0.6145388E-006  0.1562724E+03  0.7561462E-02  0.1192971E+00
          2   -1    0    0  501    0  0.00000000000E+00  0.00000000000E+00  0.51281984626E+03  0.51281984626E+03  0.00000000000E+00 0. -1.
         -2   -1    0    0    0  501 -0.00000000000E+00 -0.00000000000E+00 -0.58366187390E+02  0.58366187390E+02  0.00000000000E+00 0.  1.
         23    2    1    2    0    0 -0.10562225840E+03 -0.38897485060E+02  0.33325421722E+03  0.36380266028E+03  0.92870482466E+02 0.  0.
          5    1    1    2  502    0  0.10988942079E+03 -0.16249405634E+02  0.94122637780E+02  0.14565806304E+03  0.41800000000E+01 0.  1.
         -5    1    1    2    0  502 -0.42671623953E+01  0.55146890694E+02  0.27076803864E+02  0.61725310332E+02  0.41800000000E+01 0.  1.
        -11    1    3    3    0    0 -0.95296141620E+02  0.10108018950E+02  0.21661844425E+03  0.23686932483E+03  0.00000000000E+00 0. -1.
         11    1    3    3    0    0 -0.10326116779E+02 -0.49005504011E+02  0.11663577297E+03  0.12693333545E+03  0.00000000000E+00 0.  1.
</event>
<event>
 7    1  0.6145388E-006  0.1067941E+03  0.7561462E-02  0.1266625E+00
          2   -1    0    0  501    0  0.00000000000E+00  0.00000000000E+00  0.83391004925E+03  0.83391004925E+03  0.00000000000E+00 0. -1.
         -2   -1    0    0    0  501 -0.00000000000E+00 -0.00000000000E+00 -0.17286444768E+02  0.17286444768E+02  0.00000000000E+00 0.  1.
         23    2    1    2    0    0 -0.49368360028E+02 -0.19714219237E+02  0.33236748835E+03  0.34822749695E+03  0.89265653562E+02 0.  0.
          5    1    1    2  502    0 -0.22669278435E+02  0.51949041623E+02  0.19565631988E+03  0.20374363062E+03  0.41800000000E+01 0.  1.
         -5    1    1    2    0  502  0.72037638463E+02 -0.32234822385E+02  0.28859979625E+03  0.29922536645E+03  0.41800000000E+01 0.  1.
        -11    1    3    3    0    0 -0.51510114713E+02 -0.35007710499E+02  0.32536355484E+03  0.33127069675E+03  0.00000000000E+00 0. -1.
         11    1    3    3    0    0  0.21417546854E+01  0.15293491262E+02  0.70039335132E+01  0.16956800192E+02  0.00000000000E+00 0.  1.
</event>
<event>
 7    1  0.6145388E-006  0.1028514E+03  0.7561462E-02  0.1274412E+00
         -1   -1    0    0    0  501 -0.00000000000E+00  0.00000000000E+00  0.10846101175E+03  0.10846101175E+03  0.00000000000E+00 0.  1.
          1   -1    0    0  501    0  0.00000000000E+00 -0.00000000000E+00 -0.11093657358E+03  0.11093657358E+03  0.00000000000E+00 0. -1.
         23    2    1    2    0    0  0.16773630484E+02 -0.15374055859E+02 -0.19535748356E+02  0.91115474220E+02  0.86038758158E+02 0.  0.
          5    1    1    2  502    0 -0.64734965907E+01 -0.54930388787E+02  0.13100258688E+02  0.56994236095E+02  0.41800000000E+01 0.  1.
         -5    1    1    2    0  502 -0.10300133894E+02  0.70304444645E+02  0.39599278360E+01  0.71287875011E+02  0.41800000000E+01 0.  1.
        -11    1    3    3    0    0  0.35196219137E+02 -0.36717523515E+02  0.82540814355E+01  0.51527470683E+02  0.00000000000E+00 0.  1.
         11    1    3    3    0    0 -0.18422588653E+02  0.21343467656E+02 -0.27789829792E+02  0.39588003538E+02  0.00000000000E+00 0. -1.
</event>
<event>
 7    1  0.6145388E-006  0.1159731E+03  0.7561462E-02  0.1249892E+00
         -4   -1    0    0    0  501 -0.00000000000E+00  0.00000000000E+00  0.62755390156E+03  0.62755390156E+03  0.00000000000E+00 0.  1.
          4   -1    0    0  501    0  0.00000000000E+00 -0.00000000000E+00 -0.25241633901E+02  0.25241633901E+02  0.00000000000E+00 0. -1.
         23    2    1    2    0    0  0.49263770918E+02  0.42129591874E+02  0.25469713457E+03  0.27771593508E+03  0.89742345653E+02 0.  0.
          5    1    1    2  502    0  0.29073476885E+02  0.57855520228E+01  0.19217295117E+03  0.19449075873E+03  0.41800000000E+01 0. -1.
         -5    1    1    2    0  502 -0.78337247803E+02 -0.47915143897E+02  0.15544218191E+03  0.18058884164E+03  0.41800000000E+01 0. -1.
        -11    1    3    3    0    0  0.66119677517E+02  0.15430220925E+01  0.16710186397E+03  0.17971428885E+03  0.00000000000E+00 0. -1.
         11    1    3    3    0    0 -0.16855906599E+02  0.40586569781E+02  0.87595270599E+02  0.98001646237E+02  0.00000000000E+00 0.  1.
</event>
<event>
 7    1  0.6145388E-006  0.1161284E+03  0.7561462E-02  0.1249624E+00
         -1   -1    0    0    0  501 -0.00000000000E+00  0.00000000000E+00  0.46196932563E+02  0.46196932563E+02  0.00000000000E+00 0.  1.
          1   -1    0    0  501    0  0.00000000000E+00 -0.00000000000E+00 -0.40048709191E+03  0.40048709191E+03  0.00000000000E+00 0. -1.
         23    2    1    2    0    0 -0.57765096987E+02 -0.25249983633E+02 -0.24091690794E+03  0.26647378936E+03  0.94831196242E+02 0.  0.
          5    1    1    2  502    0  0.86331920386E+02  0.27198059101E+02 -0.35820143228E+02  0.97434541911E+02  0.41800000000E+01 0. -1.
         -5    1    1    2    0  502 -0.28566823400E+02 -0.19480754686E+01 -0.77553108181E+02  0.82775693206E+02  0.41800000000E+01 0. -1.
        -11    1    3    3    0    0 -0.77662503101E+02 -0.40547855875E+02 -0.17001726216E+03  0.19126280986E+03  0.00000000000E+00 0.  1.
         11    1    3    3    0    0  0.19897406114E+02  0.15297872242E+02 -0.70899645781E+02  0.75210979498E+02  0.00000000000E+00 0. -1.
</event>
<event>
 7    1  0.6145388E-006  0.1104416E+03  0.7561462E-02  0.1259754E+00
          1   -1    0    0  501    0  0.00000000000E+00  0.00000000000E+00  0.38313245226E+03  0.38313245226E+03  0.00000000000E+00 0. -1.
         -1   -1    0    0    0  501 -0.00000000000E+00 -0.00000000000E+00 -0.37930496799E+02  0.37930496799E+02  0.00000000000E+00 0.  1.
         23    2    1    2    0    0  0.46159355681E+02  0.14539200941E+02  0.16990126570E+03  0.20034996120E+03  0.94507102303E+02 0.  0.
          5    1    1    2  502    0 -0.82815103811E+02 -0.20663156774E+02  0.15773175538E+03  0.17939366355E+03  0.41800000000E+01 0. -1.
         -5    1    1    2    0  502  0.36655748130E+02  0.61239558325E+01  0.17568934384E+02  0.41319324310E+02  0.41800000000E+01 0. -1.
        -11    1    3    3    0    0 -0.22594266401E+02  0.18441023318E+02  0.19930533832E+02  0.35324189927E+02  0.00000000000E+00 0.  1.
         11    1    3    3    0    0  0.68753622082E+02 -0.39018223772E+01  0.14997073187E+03  0.16502577127E+03  0.00000000000E+00 0. -1.
</event>
<event>
 7    1  0.6145388E-006  0.1674138E+03  0.7561462E-02  0.1180572E+00
         -1   -1    0    0    0  501 -0.00000000000E+00  0.00000000000E+00  0.69055564042E+02  0.69055564042E+02  0.00000000000E+00 0.  1.
          1   -1    0    0  501    0  0.00000000000E+00 -0.00000000000E+00 -0.45897520619E+03  0.45897520619E+03  0.00000000000E+00 0. -1.
         23    2    1    2    0    0  0.81047234846E+02  0.10247360488E+03 -0.26174093339E+03  0.30633917902E+03  0.90916898405E+02 0.  0.
          5    1    1    2  502    0  0.30652346573E+02 -0.21513568709E+02 -0.76407782049E+01  0.38448067320E+02  0.41800000000E+01 0.  1.
         -5    1    1    2    0  502 -0.11169958142E+03 -0.80960036174E+02 -0.12053793055E+03  0.18324352389E+03  0.41800000000E+01 0.  1.
        -11    1    3    3    0    0  0.70956989697E+02  0.11970819944E+03 -0.22651322432E+03  0.26584429314E+03  0.00000000000E+00 0.  1.
         11    1    3    3    0    0  0.10090245149E+02 -0.17234594553E+02 -0.35227709070E+02  0.40494885886E+02  0.00000000000E+00 0. -1.
</event>
<event>
 7    1  0.6145388E-006  0.1587861E+03  0.7561462E-02  0.1190074E+00
         -1   -1    0    0    0  501 -0.00000000000E+00  0.00000000000E+00  0.48432892734E+02  0.48432892734E+02  0.00000000000E+00 0.  1.
          1   -1    0    0  501    0  0.00000000000E+00 -0.00000000000E+00 -0.54253938664E+03  0.54253938664E+03  0.00000000000E+00 0. -1.
         23    2    1    2    0    0 -0.47504400591E+01  0.11635222481E+03 -0.18280092092E+03  0.23583962679E+03  0.92971748274E+02 0.  0.
          5    1    1    2  502    0 -0.35093755020E+02 -0.12422073147E+03 -0.25145213302E+03  0.28268004770E+03  0.41800000000E+01 0.  1.
         -5    1    1    2    0  502  0.39844195079E+02  0.78685066593E+01 -0.59853439975E+02  0.72452604890E+02  0.41800000000E+01 0.  1.
        -11    1    3    3    0    0  0.41417376976E+02  0.35782581126E+02 -0.83920449266E+02  0.10019198587E+03  0.00000000000E+00 0.  1.
         11    1    3    3    0    0 -0.46167817035E+02  0.80569643683E+02 -0.98880471653E+02  0.13564764092E+03  0.00000000000E+00 0. -1.
</event>
<event>
 7    1  0.6145388E-006  0.8839805E+02  0.7561462E-02  0.1306778E+00
          2   -1    0    0  501    0  0.00000000000E+00  0.00000000000E+00  0.25191224757E+02  0.25191224757E+02  0.00000000000E+00 0. -1.
         -2   -1    0    0    0  501 -0.00000000000E+00 -0.00000000000E+00 -0.54011425008E+03  0.54011425008E+03  0.00000000000E+00 0.  1.
         23    2    1    2    0    0 -0.39068725911E+02  0.92097732701E+01 -0.21108523177E+03  0.23428226367E+03  0.93381040545E+02 0.  0.
          5    1    1    2  502    0 -0.21019220681E+02 -0.19262377901E+02 -0.93853421222E+01  0.30305179214E+02  0.41800000000E+01 0. -1.
         -5    1    1    2    0  502  0.60087946591E+02  0.10052604631E+02 -0.29445245143E+03  0.30071803195E+03  0.41800000000E+01 0. -1.
        -11    1    3    3    0    0  0.19927231042E+02  0.18500867121E+02 -0.19118879100E+02  0.33240158834E+02  0.00000000000E+00 0. -1.
         11    1    3    3    0    0 -0.58995956953E+02 -0.92910938508E+01 -0.19196635267E+03  0.20104210484E+03  0.00000000000E+00 0.  1.
</event>
<event>
 7    1  0.6145388E-006  0.6746070E+02  0.7561462E-02  0.1368947E+00
          2   -1    0    0  501    0  0.00000000000E+00  0.00000000000E+00  0.13358871416E+03  0.13358871416E+03  0.00000000000E+00 0. -1.
         -2   -1    0    0    0  501 -0.00000000000E+00 -0.00000000000E+00 -0.12139515187E+03  0.12139515187E+03  0.00000000000E+00 0.  1.
         23    2    1    2    0    0 -0.39464844381E+02 -0.81388896472E+00  0.60845871431E+02  0.11507955646E+03  0.89347344043E+02 0.  0.
          5    1    1    2  502    0 -0.13129261072E+02  0.76783861145E+01  0.36349549650E+02  0.39624452922E+02  0.41800000000E+01 0.  1.
         -5    1    1    2    0  502  0.52594105453E+02 -0.68644971498E+01 -0.85001858795E+02  0.10027985664E+03  0.41800000000E+01 0.  1.
        -11    1    3    3    0    0 -0.46754964214E+02 -0.15738811499E+02 -0.26921094089E+01  0.49406318615E+02  0.00000000000E+00 0.  1.
         11    1    3    3    0    0  0.72901198326E+01  0.14924922534E+02  0.63537980840E+02  0.65673237845E+02  0.00000000000E+00 0. -1.
</event>
<event>
 7    1  0.6145388E-006  0.1627179E+03  0.7561462E-02  0.1185662E+00
          1   -1    0    0  501    0  0.00000000000E+00  0.00000000000E+00  0.46415193118E+03  0.46415193118E+03  0.00000000000E+00 0. -1.
         -1   -1    0    0    0  501 -0.00000000000E+00 -0.00000000000E+00 -0.71587219071E+02  0.71587219071E+02  0.00000000000E+00 0.  1.
         23    2    1    2    0    0 -0.12710970913E+03  0.26543963218E+01  0.29178402808E+03  0.33087422122E+03  0.90420723541E+02 0.  0.
          5    1    1    2  502    0  0.58304523343E+02  0.56106046380E+02  0.19899844102E+02  0.83431301548E+02  0.41800000000E+01 0.  1.
         -5    1    1    2    0  502  0.68805185789E+02 -0.58760442702E+02  0.80880839927E+02  0.12143362749E+03  0.41800000000E+01 0.  1.
        -11    1    3    3    0    0  0.10598395562E+02 -0.11213798104E+02  0.49451011765E+02  0.51802295518E+02  0.00000000000E+00 0. -1.
         11    1    3    3    0    0 -0.13770810469E+03  0.13868194425E+02  0.24233301632E+03  0.27907192570E+03  0.00000000000E+00 0.  1.
</event>
<event>
 6    1  0.6145388E-006  0.9959804E+02  0.7561462E-02  0.1281143E+00
          2   -1    0    0  501    0  0.00000000000E+00  0.00000000000E+00  0.89197096332E+02  0.89197096332E+02  0.00000000000E+00 0. -1.
         -2   -1    0    0    0  501 -0.00000000000E+00 -0.00000000000E+00 -0.12879081059E+03  0.12879081059E+03  0.00000000000E+00 0.  1.
          5    1    1    2  502    0 -0.52812790559E+02 -0.24518158691E+02 -0.17537341783E+02  0.60953766980E+02  0.41800000000E+01 0. -1.
         -5    1    1    2    0  502  0.84523725258E+02  0.78075484630E+01 -0.36160850091E+02  0.92359609266E+02  0.41800000000E+01 0.  1.
        -11    1    1    2    0    0 -0.26640683671E+02 -0.10142210538E+02 -0.79098619267E+01  0.29583042047E+02  0.00000000000E+00 0. -1.
         11    1    1    2    0    0 -0.50702510281E+01  0.26852820766E+02  0.22014339545E+02  0.35091488629E+02  0.00000000000E+00 0.  1.
</event>
<event>
 7    1  0.6145388E-006  0.1533903E+03  0.7561462E-02  0.1196368E+00
         -2   -1    0    0    0  501 -0.00000000000E+00  0.00000000000E+00  0.31551218219E+03  0.31551218219E+03  0.00000000000E+00 0.  1.
          2   -1    0    0  501    0  0.00000000000E+00 -0.00000000000E+00 -0.92258038340E+02  0.92258038340E+02  0.00000000000E+00 0. -1.
         23    2    1    2    0    0  0.42829395766E+02  0.12140995063E+03  0.76240580187E+02  0.17574287312E+03  0.92185672053E+02 0.  0.
          5    1    1    2  502    0  0.13311548012E+02 -0.10846694367E+03  0.13373373177E+03  0.17275548788E+03  0.41800000000E+01 0. -1.
         -5    1    1    2    0  502 -0.56140943778E+02 -0.12943006956E+02  0.13279831897E+02  0.59271859534E+02  0.41800000000E+01 0. -1.
        -11    1    3    3    0    0  0.37875490234E+02  0.30551742770E+02  0.69039166726E+02  0.84465189806E+02  0.00000000000E+00 0.  1.
         11    1    3    3    0    0  0.49539055325E+01  0.90858207858E+02  0.72014134605E+01  0.91277683313E+02  0.00000000000E+00 0. -1.
</event>
<event>
 7    1  0.6145388E-006  0.9919905E+02  0.7561462E-02  0.1281989E+00
          2   -1    0    0  501    0  0.00000000000E+00  0.00000000000E+00  0.38756330773E+02  0.38756330773E+02  0.00000000000E+00 0. -1.
         -2   -1    0    0    0  501 -0.00000000000E+00 -0.00000000000E+00 -0.59295068690E+03  0.59295068690E+03  0.00000000000E+00 0.  1.
         23    2    1    2    0    0  0.65076674200E+02 -0.64442135734E+02 -0.14975434413E+03  0.19857027352E+03  0.92822559520E+02 0.  0.
          5    1    1    2  502    0 -0.14353741057E+02  0.42738894210E+02 -0.29284397486E+02  0.53923012682E+02  0.41800000000E+01 0.  1.
         -5    1    1    2    0  502 -0.50722933144E+02  0.21703241524E+02 -0.37515561451E+03  0.37921373147E+03  0.41800000000E+01 0.  1.
        -11    1    3    3    0    0  0.39250299669E+02 -0.59830118993E+02 -0.15597716298E+03  0.17160741398E+03  0.00000000000E+00 0.  1.
         11    1    3    3    0    0  0.25826374532E+02 -0.46120167410E+01  0.62228188482E+01  0.26962859535E+02  0.00000000000E+00 0. -1.
</event>
<event>
 7    1  0.6145388E-006  0.1049084E+03  0.7561462E-02  0.1270300E+00
         -1   -1    0    0    0  501 -0.00000000000E+00  0.00000000000E+00  0.11110740710E+03  0.11110740710E+03  0.00000000000E+00 0.  1.
          1   -1    0    0  501    0  0.00000000000E+00 -0.00000000000E+00 -0.12772877480E+03  0.12772877480E+03  0.00000000000E+00 0. -1.
         23    2    1    2    0    0 -0.38895514452E+01 -0.65791482153E+02 -0.14155624136E+02  0.97424090951E+02  0.70337927668E+02 0.  0.
          5    1    1    2  502    0  0.32074051420E+02  0.95030680112E+02 -0.49864060805E+01  0.10050826624E+03  0.41800000000E+01 0. -1.
         -5    1    1    2    0  502 -0.28184499975E+02 -0.29239197960E+02  0.25206625225E+01  0.40903824707E+02  0.41800000000E+01 0. -1.
        -11    1    3    3    0    0  0.61831561942E+01 -0.89435151553E+01  0.25272282531E+02  0.27511927380E+02  0.00000000000E+00 0.  1.
         11    1    3    3    0    0 -0.10072707639E+02 -0.56847966997E+02 -0.39427906667E+02  0.69912163570E+02  0.00000000000E+00 0. -1.
</event>
<event>
 7    1  0.6145388E-006  0.1181185E+03  0.7561462E-02  0.1246234E+00
          1   -1    0    0  501    0  0.00000000000E+00  0.00000000000E+00  0.31333115464E+02  0.31333115464E+02  0.00000000000E+00 0. -1.
         -1   -1    0    0    0  501 -0.00000000000E+00 -0.00000000000E+00 -0.69790949608E+03  0.69790949608E+03  0.00000000000E+00 0.  1.
         23    2    1    2    0    0  0.54918887365E+02 -0.75830381329E+02 -0.22176510025E+03  0.25778756781E+03  0.92240660827E+02 0.  0.
          5    1    1    2  502    0  0.87493633768E+01  0.29357857714E+02 -0.33386639860E+03  0.33529491449E+03  0.41800000000E+01 0.  1.
         -5    1    1    2    0  502 -0.63668250741E+02  0.46472523615E+02 -0.11094488176E+03  0.13616012923E+03  0.41800000000E+01 0.  1.
        -11    1    3    3    0    0 -0.20435178775E+02 -0.35383942692E+02 -0.10792949484E+03  0.11540535425E+03  0.00000000000E+00 0. -1.
         11    1    3    3    0    0  0.75354066139E+02 -0.40446438637E+02 -0.11383560540E+03  0.14238221357E+03  0.00000000000E+00 0.  1.
</event>
<event>
 7    1  0.6145388E-006  0.9604083E+02  0.7561462E-02  0.1288849E+00
          2   -1    0    0  501    0  0.00000000000E+00  0.00000000000E+00  0.15595132594E+03  0.15595132594E+03  0.00000000000E+00 0. -1.
         -2   -1    0    0    0  501 -0.00000000000E+00 -0.00000000000E+00 -0.13079119922E+03  0.13079119922E+03  0.00000000000E+00 0.  1.
         23    2    1    2    0    0  0.64833321882E+02 -0.28303154898E+02  0.77443265456E+02  0.13382006543E+03  0.83101879297E+02 0.  0.
          5    1    1    2  502    0 -0.42004220332E+02 -0.20226216696E+02  0.29284723591E+02  0.55213420500E+02  0.41800000000E+01 0. -1.
         -5    1    1    2    0  502 -0.22829101550E+02  0.48529371594E+02 -0.81567862320E+02  0.97709039236E+02  0.41800000000E+01 0. -1.
        -11    1    3    3    0    0 -0.98208511240E+01  0.33736885074E+01 -0.10100454225E+02  0.14486202625E+02  0.00000000000E+00 0.  1.
         11    1    3    3    0    0  0.74654173006E+02 -0.31676843405E+02  0.87543719681E+02  0.11933386280E+03  0.00000000000E+00 0. -1.
</event>
<event>
 7    1  0.6145388E-006  0.9554999E+02  0.7561462E-02  0.1289942E+00
          2   -1    0    0  501    0  0.00000000000E+00  0.00000000000E+00  0.36291130331E+03  0.36291130331E+03  0.00000000000E+00 0. -1.
         -2   -1    0    0    0  501 -0.00000000000E+00 -0.00000000000E+00 -0.34582045559E+02  0.34582045559E+02  0.00000000000E+00 0.  1.
         23    2    1    2    0    0  0.85806020711E+01 -0.54384929735E+01  0.17831013652E+03  0.20190636023E+03  0.94172552151E+02 0.  0.
          5    1    1    2  502    0  0.45823078745E+02 -0.18290971601E+02  0.11811195972E+03  0.12807115841E+03  0.41800000000E+01 0.  1.
         -5    1    1    2    0  502 -0.54403680816E+02  0.23729464574E+02  0.31907161509E+02  0.67515830224E+02  0.41800000000E+01 0.  1.
        -11    1    3    3    0    0  0.24982165524E+02 -0.38085785666E+02  0.46359940450E+02  0.64991382064E+02  0.00000000000E+00 0.  1.
         11    1    3    3    0    0 -0.16401563453E+02  0.32647292693E+02  0.13195019607E+03  0.13691497817E+03  0.00000000000E+00 0. -1.
</event>
<event>
 7    1  0.6145388E-006  0.1067081E+03  0.7561462E-02  0.1266790E+00
          3   -1    0    0  501    0  0.00000000000E+00  0.00000000000E+00  0.17210641762E+03  0.17210641762E+03  0.00000000000E+00 0. -1.
         -3   -1    0    0    0  501 -0.00000000000E+00 -0.00000000000E+00 -0.13145069885E+03  0.13145069885E+03  0.00000000000E+00 0.  1.
         23    2    1    2    0    0  0.25806543628E+02 -0.85715897838E+01  0.11529692520E+03  0.15537289302E+03  0.10053807775E+03 0.  0.
          5    1    1    2  502    0 -0.93910854980E+01 -0.56762750757E+02 -0.49977712550E+02  0.76324612754E+02  0.41800000000E+01 0.  1.
         -5    1    1    2    0  502 -0.16415458130E+02  0.65334340540E+02 -0.24663493878E+02  0.71859610699E+02  0.41800000000E+01 0.  1.
        -11    1    3    3    0    0  0.13340271804E+02 -0.46466182581E+02  0.20473728338E+02  0.52499928833E+02  0.00000000000E+00 0.  1.
         11    1    3    3    0    0  0.12466271824E+02  0.37894592797E+02  0.94823196863E+02  0.10287296418E+03  0.00000000000E+00 0. -1.
</event>
<event>
 7    1  0.6145388E-006  0.1129600E+03  0.7561462E-02  0.1255185E+00
         -2   -1    0    0    0  501 -0.00000000000E+00  0.00000000000E+00  0.18106472238E+03  0.18106472238E+03  0.00000000000E+00 0.  1.
          2   -1    0    0  501    0  0.00000000000E+00 -0.00000000000E+00 -0.72036997150E+02  0.72036997150E+02  0.00000000000E+00 0. -1.
         23    2    1    2    0    0 -0.34660048485E+02  0.11328547378E+02  0.45951498533E+02  0.10833990913E+03  0.91084250817E+02 0.  0.
          5    1    1    2  502    0 -0.18971516202E+02  0.46161990643E+02  0.14068137899E+02  0.52021463946E+02  0.41800000000E+01 0. -1.
         -5    1    1    2    0  502  0.53631564687E+02 -0.57490538020E+02  0.49008088802E+02  0.92740346456E+02  0.41800000000E+01 0. -1.
        -11    1    3    3    0    0 -0.65047341328E+02  0.14204599742E+02  0.38538736617E+02  0.76929587856E+02  0.00000000000E+00 0. -1.
         11    1    3    3    0    0  0.30387292843E+02 -0.28760523644E+01  0.74127619160E+01  0.31410321277E+02  0.00000000000E+00 0.  1.
</event>
<event>
 7    1  0.6145388E-006  0.1616696E+03  0.7561462E-02  0.1186825E+00
         -1   -1    0    0    0  501 -0.00000000000E+00  0.00000000000E+00  0.24699583932E+03  0.24699583932E+03  0.00000000000E+00 0.  1.
          1   -1    0    0  501    0  0.00000000000E+00 -0.00000000000E+00 -0.10957367442E+03  0.10957367442E+03  0.00000000000E+00 0. -1.
         23    2    1    2    0    0 -0.94979066922E+02 -0.56297721018E+02  0.52076004552E+02  0.16916149733E+03  0.11710356691E+03 0.  0.
          5    1    1    2  502    0  0.45500503636E+02  0.92535897331E+02  0.38613605789E+02  0.11018925119E+03  0.41800000000E+01 0. -1.
         -5    1    1    2    0  502  0.49478563286E+02 -0.36238176313E+02  0.46732554557E+02  0.77218765224E+02  0.41800000000E+01 0. -1.
        -11    1    3    3    0    0  0.63577015784E+01 -0.56972571622E+02  0.32667180502E+02  0.65980595394E+02  0.00000000000E+00 0. -1.
         11    1    3    3    0    0 -0.10133676850E+03  0.67485060441E+00  0.19408824050E+02  0.10318090194E+03  0.00000000000E+00 0.  1.
</event>
<event>
 7    1  0.6145388E-006  0.1086215E+03  0.7561462E-02  0.1263144E+00
         -1   -1    0    0    0  501 -0.00000000000E+00  0.00000000000E+00  0.11060097134E+03  0.11060097134E+03  0.00000000000E+00 0.  1.
          1   -1    0    0  501    0  0.00000000000E+00 -0.00000000000E+00 -0.12251912236E+03  0.12251912236E+03  0.00000000000E+00 0. -1.
         23    2    1    2    0    0  0.37576524540E+02  0.13640128260E+02 -0.21273343839E+02  0.10147816017E+03  0.90814170362E+02 0.  0.
          5    1    1    2  502    0 -0.39683308542E+02 -0.65913310390E+02 -0.50578065289E+01  0.77216470201E+02  0.41800000000E+01 0. -1.
         -5    1    1    2    0  502  0.21067840023E+01  0.52273182130E+02  0.14412999346E+02  0.54425463333E+02  0.41800000000E+01 0. -1.
        -11    1    3    3    0    0 -0.22020773629E+02  0.17295417718E+02 -0.30111038409E+02  0.41118372770E+02  0.00000000000E+00 0.  1.
         11    1    3    3    0    0  0.59597298168E+02 -0.36552894585E+01  0.88376945696E+01  0.60359787402E+02  0.00000000000E+00 0. -1.
</event>
<event>
 7    1  0.6145388E-006  0.7345882E+02  0.7561462E-02  0.1348711E+00
          2   -1    0    0  501    0  0.00000000000E+00  0.00000000000E+00  0.10241767653E+03  0.10241767653E+03  0.00000000000E+00 0. -1.
         -2   -1    0    0    0  501 -0.00000000000E+00 -0.00000000000E+00 -0.11616650497E+03  0.11616650497E+03  0.00000000000E+00 0.  1.
         23    2    1    2    0    0  0.93049594675E+01 -0.17559133604E+02  0.17833938051E+02  0.88044070555E+02  0.83897577855E+02 0.  0.
          5    1    1    2  502    0 -0.38278329374E+02 -0.15086835134E+01 -0.69197610801E+02  0.79204093116E+02  0.41800000000E+01 0.  1.
         -5    1    1    2    0  502  0.28973369907E+02  0.19067817118E+02  0.37614844319E+02  0.51336017829E+02  0.41800000000E+01 0.  1.
        -11    1    3    3    0    0  0.38148613895E+02 -0.22341067767E+02 -0.12471176493E+02  0.45934412962E+02  0.00000000000E+00 0.  1.
         11    1    3    3    0    0 -0.28843654427E+02  0.47819341627E+01  0.30305114544E+02  0.42109657593E+02  0.00000000000E+00 0. -1.
</event>
<event>
 7    1  0.6145388E-006  0.1186242E+03  0.7561462E-02  0.1245384E+00
          3   -1    0    0  501    0  0.00000000000E+00  0.00000000000E+00  0.42221607149E+03  0.42221607149E+03  0.00000000000E+00 0.  1.
         -3   -1    0    0    0  501 -0.00000000000E+00 -0.00000000000E+00 -0.37223577348E+02  0.37223577348E+02  0.00000000000E+00 0. -1.
         23    2    1    2    0    0 -0.61123728864E+02  0.79436661902E+01  0.15356653376E+03  0.18924523798E+03  0.91825202111E+02 0.  0.
          5    1    1    2  502    0  0.64898632125E+02 -0.51919478716E+02  0.19766701063E+03  0.21446954146E+03  0.41800000000E+01 0.  1.
         -5    1    1    2    0  502 -0.37749032610E+01  0.43975812526E+02  0.33758949755E+02  0.55724869408E+02  0.41800000000E+01 0.  1.
        -11    1    3    3    0    0 -0.30650873032E+02 -0.41515333861E+02  0.84321392254E+02  0.98858971039E+02  0.00000000000E+00 0.  1.
         11    1    3    3    0    0 -0.30472855832E+02  0.49459000051E+02  0.69245141505E+02  0.90386266937E+02  0.00000000000E+00 0. -1.
</event>
<event>
 7    1  0.6145388E-006  0.8648442E+02  0.7561462E-02  0.1311596E+00
          1   -1    0    0  501    0  0.00000000000E+00  0.00000000000E+00  0.74227359945E+02  0.74227359945E+02  0.00000000000E+00 0. -1.
         -1   -1    0    0    0  501 -0.00000000000E+00 -0.00000000000E+00 -0.18263531107E+03  0.18263531107E+03  0.00000000000E+00 0.  1.
         23    2    1    2    0    0  0.36365845164E+02 -0.59242989271E+01 -0.25088903261E+02  0.10210907798E+03  0.91865329302E+02 0.  0.
          5    1    1    2  502    0 -0.61784617836E+02  0.31987315745E+02 -0.93593725108E+02  0.11669526618E+03  0.41800000000E+01 0. -1.
         -5    1    1    2    0  502  0.25418772673E+02 -0.26063016818E+02  0.10274677245E+02  0.38058326846E+02  0.41800000000E+01 0. -1.
        -11    1    3    3    0    0 -0.14580597552E+02  0.30429467178E+01  0.25642653070E+02  0.29654662469E+02  0.00000000000E+00 0. -1.
         11    1    3    3    0    0  0.50946442716E+02 -0.89672456448E+01 -0.50731556331E+02  0.72454415515E+02  0.00000000000E+00 0.  1.
</event>
<event>
 7    1  0.6145388E-006  0.1921303E+03  0.7561462E-02  0.1156554E+00
          1   -1    0    0  501    0  0.00000000000E+00  0.00000000000E+00  0.44180334023E+02  0.44180334023E+02  0.00000000000E+00 0. -1.
         -1   -1    0    0    0  501 -0.00000000000E+00 -0.00000000000E+00 -0.12957557107E+04  0.12957557107E+04  0.00000000000E+00 0.  1.
         23    2    1    2    0    0  0.34167772169E+02  0.15635103446E+03 -0.21964255264E+03  0.28820196464E+03  0.95939766831E+02 0.  0.
          5    1    1    2  502    0 -0.75409362084E+02 -0.72966290751E+02 -0.42980799150E+03  0.44245116503E+03  0.41800000000E+01 0.  1.
         -5    1    1    2    0  502  0.41241589915E+02 -0.83384743712E+02 -0.60212483255E+03  0.60928291507E+03  0.41800000000E+01 0.  1.
        -11    1    3    3    0    0 -0.97520730611E+01  0.13829617061E+03 -0.15442763471E+03  0.20753030646E+03  0.00000000000E+00 0.  1.
         11    1    3    3    0    0  0.43919845230E+02  0.18054863850E+02 -0.65214917932E+02  0.80671658186E+02  0.00000000000E+00 0. -1.
</event>
<event>
 7    1  0.6145388E-006  0.2795270E+03  0.7561462E-02  0.1095948E+00
         -2   -1    0    0    0  501 -0.00000000000E+00  0.00000000000E+00  0.26828137516E+03  0.26828137516E+03  0.00000000000E+00 0.  1.
          2   -1    0    0  501    0  0.00000000000E+00 -0.00000000000E+00 -0.32564930300E+03  0.32564930300E+03  0.00000000000E+00 0. -1.
         23    2    1    2    0    0 -0.13757559335E+02  0.27204067972E+03 -0.63931619358E+02  0.29411943380E+03  0.90683998193E+02 0.  0.
          5    1    1    2  502    0  0.27437692338E+02 -0.11554479007E+03  0.60908159936E+02  0.13353165100E+03  0.41800000000E+01 0. -1.
         -5    1    1    2    0  502 -0.13680133003E+02 -0.15649588965E+03 -0.54344468420E+02  0.16627959335E+03  0.41800000000E+01 0. -1.
        -11    1    3    3    0    0  0.18270007596E+02  0.22740082003E+03 -0.70521646311E+02  0.23878490054E+03  0.00000000000E+00 0. -1.
         11    1    3    3    0    0 -0.32027566931E+02  0.44639859691E+02  0.65900269529E+01  0.55334533268E+02  0.00000000000E+00 0.  1.
</event>
<event>
 7    1  0.6145388E-006  0.1456773E+03  0.7561462E-02  0.1205888E+00
         -2   -1    0    0    0  501 -0.00000000000E+00  0.00000000000E+00  0.70208910725E+03  0.70208910725E+03  0.00000000000E+00 0.  1.
          2   -1    0    0  501    0  0.00000000000E+00 -0.00000000000E+00 -0.43742286414E+02  0.43742286414E+02  0.00000000000E+00 0. -1.
         23    2    1    2    0    0 -0.10835865688E+03 -0.80738651470E+02  0.35680007347E+03  0.39250612216E+03  0.92165259926E+02 0.  0.
          5    1    1    2  502    0  0.21420083493E+02  0.60513469190E+02  0.23007940221E+03  0.23890312608E+03  0.41800000000E+01 0. -1.
         -5    1    1    2    0  502  0.86938573389E+02  0.20225182279E+02  0.71467345156E+02  0.11442214543E+03  0.41800000000E+01 0. -1.
        -11    1    3    3    0    0 -0.21282588088E+02 -0.41098207772E+01  0.52329040931E+01  0.22298485774E+02  0.00000000000E+00 0.  1.
         11    1    3    3    0    0 -0.87076068793E+02 -0.76628830692E+02  0.35156716938E+03  0.37020763638E+03  0.00000000000E+00 0. -1.
</event>
<event>
 7    1  0.6145388E-006  0.1057541E+03  0.7561462E-02  0.1268641E+00
          1   -1    0    0  501    0  0.00000000000E+00  0.00000000000E+00  0.55576738277E+03  0.55576738277E+03  0.00000000000E+00 0. -1.
         -1   -1    0    0    0  501 -0.00000000000E+00 -0.00000000000E+00 -0.25010883175E+02  0.25010883175E+02  0.00000000000E+00 0.  1.
         23    2    1    2    0    0 -0.18010731297E+01 -0.19361874338E+02  0.27124242594E+03  0.28709041146E+03  0.92034366847E+02 0.  0.
          5    1    1    2  502    0 -0.52183930675E+02  0.46389401766E+02  0.18444850781E+03  0.19726597186E+03  0.41800000000E+01 0. -1.
         -5    1    1    2    0  502  0.53985003805E+02 -0.27027527428E+02  0.75065565841E+02  0.96421882629E+02  0.41800000000E+01 0.  1.
        -11    1    3    3    0    0  0.34937520966E+02 -0.26205211788E+02  0.70742276851E+02  0.83137315510E+02  0.00000000000E+00 0.  1.
         11    1    3    3    0    0 -0.36738594095E+02  0.68433374498E+01  0.20050014909E+03  0.20395309595E+03  0.00000000000E+00 0. -1.
</event>
<event>
 7    1  0.6145388E-006  0.9084963E+02  0.7561462E-02  0.1300807E+00
          3   -1    0    0  501    0  0.00000000000E+00  0.00000000000E+00  0.25176917100E+03  0.25176917100E+03  0.00000000000E+00 0. -1.
         -3   -1    0    0    0  501 -0.00000000000E+00 -0.00000000000E+00 -0.47839422659E+02  0.47839422659E+02  0.00000000000E+00 0.  1.
         23    2    1    2    0    0 -0.12941337210E+01 -0.15383690666E+01  0.81113445243E+02  0.12429460543E+03  0.94157934225E+02 0.  0.
          5    1    1    2  502    0  0.11126537867E+02  0.47473048554E+02  0.59599942352E+01  0.49299940317E+02  0.41800000000E+01 0.  1.
         -5    1    1    2    0  502 -0.98324041461E+01 -0.45934679488E+02  0.11685630886E+03  0.12601404792E+03  0.41800000000E+01 0.  1.
        -11    1    3    3    0    0  0.36407438386E+02  0.20647862551E+02  0.65727355177E+02  0.77922532147E+02  0.00000000000E+00 0. -1.
         11    1    3    3    0    0 -0.37701572107E+02 -0.22186231617E+02  0.15386090067E+02  0.46372073280E+02  0.00000000000E+00 0.  1.
</event>
<event>
 7    1  0.6145388E-006  0.1003078E+03  0.7561462E-02  0.1279650E+00
          2   -1    0    0  501    0  0.00000000000E+00  0.00000000000E+00  0.51839698831E+03  0.51839698831E+03  0.00000000000E+00 0.  1.
         -2   -1    0    0    0  501 -0.00000000000E+00 -0.00000000000E+00 -0.22254325060E+02  0.22254325060E+02  0.00000000000E+00 0. -1.
         23    2    1    2    0    0 -0.10655655009E+02  0.10812440629E+02  0.25806699320E+03  0.27123384444E+03  0.82090033092E+02 0.  0.
          5    1    1    2  502    0  0.51908271485E+02  0.36105852354E+02  0.11351936136E+03  0.13000853444E+03  0.41800000000E+01 0. -1.
         -5    1    1    2    0  502 -0.41252616476E+02 -0.46918292984E+02  0.12455630868E+03  0.13940893449E+03  0.41800000000E+01 0. -1.
        -11    1    3    3    0    0 -0.36748978614E+02 -0.13322057709E+02  0.19464427017E+03  0.19853049277E+03  0.00000000000E+00 0.  1.
         11    1    3    3    0    0  0.26093323605E+02  0.24134498338E+02  0.63422723038E+02  0.72703351672E+02  0.00000000000E+00 0. -1.
</event>
<event>
 7    1  0.6145388E-006  0.9704578E+02  0.7561462E-02  0.1286634E+00
          2   -1    0    0  501    0  0.00000000000E+00  0.00000000000E+00  0.85886623519E+02  0.85886623519E+02  0.00000000000E+00 0. -1.
         -2   -1    0    0    0  501 -0.00000000000E+00 -0.00000000000E+00 -0.14294045099E+03  0.14294045099E+03  0.00000000000E+00 0.  1.
         23    2    1    2    0    0 -0.86335876628E+01  0.20479655800E+00 -0.33473758368E+02  0.10123840842E+03  0.95153255664E+02 0.  0.
          5    1    1    2  502    0  0.13185728396E+02  0.58566246691E+02  0.77962488651E+01  0.60680495887E+02  0.41800000000E+01 0.  1.
         -5    1    1    2    0  502 -0.45521407332E+01 -0.58771043249E+02 -0.31376317967E+02  0.66908170196E+02  0.41800000000E+01 0.  1.
        -11    1    3    3    0    0 -0.21610572767E+02  0.33058390282E+02 -0.48760223264E+02  0.62748971276E+02  0.00000000000E+00 0.  1.
         11    1    3    3    0    0  0.12976985105E+02 -0.32853593724E+02  0.15286464896E+02  0.38489437149E+02  0.00000000000E+00 0. -1.
</event>
<event>
 7    1  0.6145388E-006  0.1138784E+03  0.7561462E-02  0.1253552E+00
          1   -1    0    0  501    0  0.00000000000E+00  0.00000000000E+00  0.71065745326E+03  0.71065745326E+03  0.00000000000E+00 0. -1.
         -1   -1    0    0    0  501 -0.00000000000E+00 -0.00000000000E+00 -0.21600774675E+02  0.21600774675E+02  0.00000000000E+00 0.  1.
         23    2    1    2    0    0  0.21606274742E+02 -0.41180598084E+02  0.41645099550E+03  0.42873918368E+03  0.90681768844E+02 0.  0.
          5    1    1    2  502    0  0.36896979441E+02 -0.23920080828E+02  0.11502049314E+03  0.12321016030E+03  0.41800000000E+01 0. -1.
         -5    1    1    2    0  502 -0.58503254183E+02  0.65100678912E+02  0.15758518995E+03  0.18030888396E+03  0.41800000000E+01 0. -1.
        -11    1    3    3    0    0  0.17521867960E+02 -0.67290131795E+02  0.35656070994E+03  0.36327746637E+03  0.00000000000E+00 0. -1.
         11    1    3    3    0    0  0.40844067819E+01  0.26109533711E+02  0.59890285556E+02  0.65461717311E+02  0.00000000000E+00 0.  1.
</event>
<event>
 7    1  0.6145388E-006  0.9229476E+02  0.7561462E-02  0.1297388E+00
         -2   -1    0    0    0  501 -0.00000000000E+00  0.00000000000E+00  0.41115609055E+03  0.41115609055E+03  0.00000000000E+00 0.  1.
          2   -1    0    0  501    0  0.00000000000E+00 -0.00000000000E+00 -0.38639885508E+02  0.38639885508E+02  0.00000000000E+00 0. -1.
         23    2    1    2    0    0 -0.33735938797E+02  0.16617026478E+02  0.11291089815E+03  0.15087108559E+03  0.92730655178E+02 0.  0.
          5    1    1    2  502    0  0.66527064278E+01 -0.49227076058E+02  0.17091529709E+02  0.52698731558E+02  0.41800000000E+01 0. -1.
         -5    1    1    2    0  502  0.27083232369E+02  0.32610049580E+02  0.24251377718E+03  0.24622615891E+03  0.41800000000E+01 0.  1.
        -11    1    3    3    0    0 -0.18846335289E+02  0.51164002354E+02  0.36243706282E+02  0.65471717067E+02  0.00000000000E+00 0. -1.
         11    1    3    3    0    0 -0.14889603508E+02 -0.34546975876E+02  0.76667191866E+02  0.85399368519E+02  0.00000000000E+00 0.  1.
</event>
<event>
 7    1  0.6145388E-006  0.6872477E+02  0.7561462E-02  0.1364484E+00
         -2   -1    0    0    0  501 -0.00000000000E+00  0.00000000000E+00  0.41955966977E+03  0.41955966977E+03  0.00000000000E+00 0.  1.
          2   -1    0    0  501    0  0.00000000000E+00 -0.00000000000E+00 -0.28609759954E+02  0.28609759954E+02  0.00000000000E+00 0. -1.
         23    2    1    2    0    0  0.54528522475E+01  0.57074127230E+01  0.12716534424E+03  0.15612072343E+03  0.90223873511E+02 0.  0.
          5    1    1    2  502    0  0.71173019334E+01  0.19054399360E+02 -0.53576752358E+01  0.21445353943E+02  0.41800000000E+01 0.  1.
         -5    1    1    2    0  502 -0.12570154181E+02 -0.24761812083E+02  0.26914224082E+03  0.27060335236E+03  0.41800000000E+01 0.  1.
        -11    1    3    3    0    0  0.15807713503E+02  0.45142266368E+02  0.84560728230E+02  0.97150526390E+02  0.00000000000E+00 0.  1.
         11    1    3    3    0    0 -0.10354861255E+02 -0.39434853645E+02  0.42604616006E+02  0.58970197038E+02  0.00000000000E+00 0. -1.
</event>
<event>
 7    1  0.6145388E-006  0.1667473E+03  0.7561462E-02  0.1181283E+00
         -1   -1    0    0    0  501 -0.00000000000E+00  0.00000000000E+00  0.15450139789E+03  0.15450139789E+03  0.00000000000E+00 0.  1.
          1   -1    0    0  501    0  0.00000000000E+00 -0.00000000000E+00 -0.19317756800E+03  0.19317756800E+03  0.00000000000E+00 0. -1.
         23    2    1    2    0    0 -0.10905138910E+03  0.76255555356E+02 -0.40081805463E+02  0.16504036387E+03  0.89020533526E+02 0.  0.
          5    1    1    2  502    0 -0.19010830963E+02  0.13695196472E+02  0.10079511458E+02  0.25846451430E+02  0.41800000000E+01 0.  1.
         -5    1    1    2    0  502  0.12806222006E+03 -0.89950751828E+02 -0.86738760990E+01  0.15679215060E+03  0.41800000000E+01 0.  1.
        -11    1    3    3    0    0 -0.90531485835E+01  0.48536572210E+02 -0.36157225713E+02  0.61197249223E+02  0.00000000000E+00 0. -1.
         11    1    3    3    0    0 -0.99998240517E+02  0.27718983146E+02 -0.39245797500E+01  0.10384311465E+03  0.00000000000E+00 0.  1.
</event>
<event>
 7    1  0.6145388E-006  0.1214911E+03  0.7561462E-02  0.1240657E+00
          1   -1    0    0  501    0  0.00000000000E+00  0.00000000000E+00  0.38493406324E+03  0.38493406324E+03  0.00000000000E+00 0. -1.
         -1   -1    0    0    0  501 -0.00000000000E+00 -0.00000000000E+00 -0.54187765474E+02  0.54187765474E+02  0.00000000000E+00 0.  1.
         23    2    1    2    0    0  0.46898871257E+02 -0.58337514908E+02  0.23888046338E+03  0.26681241308E+03  0.92315861124E+02 0.  0.
          5    1    1    2  502    0 -0.13790286467E+02  0.93571375480E+02  0.75506826120E+02  0.12109718205E+03  0.41800000000E+01 0. -1.
         -5    1    1    2    0  502 -0.33108584790E+02 -0.35233860572E+02  0.16359008267E+02  0.51212233588E+02  0.41800000000E+01 0. -1.
        -11    1    3    3    0    0  0.47730197459E+02 -0.67740979420E+01  0.44154479285E+02  0.65373375263E+02  0.00000000000E+00 0.  1.
         11    1    3    3    0    0 -0.83132620195E+00 -0.51563416966E+02  0.19472598410E+03  0.20143903781E+03  0.00000000000E+00 0. -1.
</event>
<event>
 7    1  0.6145388E-006  0.1048377E+03  0.7561462E-02  0.1270440E+00
         -1   -1    0    0    0  501 -0.00000000000E+00  0.00000000000E+00  0.47351007269E+03  0.47351007269E+03  0.00000000000E+00 0.  1.
          1   -1    0    0  501    0  0.00000000000E+00 -0.00000000000E+00 -0.36919125157E+02  0.36919125157E+02  0.00000000000E+00 0. -1.
         23    2    1    2    0    0  0.68180131008E+02  0.12139107784E+02  0.20229245771E+03  0.23595007718E+03  0.99771299832E+02 0.  0.
          5    1    1    2  502    0 -0.43524623636E+02  0.43410377518E+02  0.46916916034E+02  0.77443677270E+02  0.41800000000E+01 0. -1.
         -5    1    1    2    0  502 -0.24655507372E+02 -0.55549485302E+02  0.18738157378E+03  0.19703544340E+03  0.41800000000E+01 0. -1.
        -11    1    3    3    0    0  0.13247661212E+02 -0.19631960708E+02 -0.26478970812E+00  0.23685111830E+02  0.00000000000E+00 0. -1.
         11    1    3    3    0    0  0.54932469796E+02  0.31771068492E+02  0.20255724742E+03  0.21226496535E+03  0.00000000000E+00 0.  1.
</event>
<event>
 7    1  0.6145388E-006  0.3610800E+03  0.7561462E-02  0.1058157E+00
          2   -1    0    0  501    0  0.00000000000E+00  0.00000000000E+00  0.57145378835E+03  0.57145378835E+03  0.00000000000E+00 0.  1.
         -2   -1    0    0    0  501 -0.00000000000E+00 -0.00000000000E+00 -0.24123915353E+03  0.24123915353E+03  0.00000000000E+00 0. -1.
         23    2    1    2    0    0 -0.71541548554E+02  0.34771833746E+03  0.17017546413E+03  0.40368678875E+03  0.89314609349E+02 0.  0.
          5    1    1    2  502    0  0.73448343628E+02 -0.22666904892E+03  0.46144224097E+02  0.24273499694E+03  0.41800000000E+01 0.  1.
         -5    1    1    2    0  502 -0.19067950743E+01 -0.12104928854E+03  0.11389494660E+03  0.16627115620E+03  0.41800000000E+01 0.  1.
        -11    1    3    3    0    0  0.14709031045E+02  0.28792982995E+02  0.32260246612E+02  0.45674007657E+02  0.00000000000E+00 0.  1.
         11    1    3    3    0    0 -0.86250579599E+02  0.31892535446E+03  0.13791521752E+03  0.35801278109E+03  0.00000000000E+00 0. -1.
</event>
<event>
 7    1  0.6145388E-006  0.1110361E+03  0.7561462E-02  0.1258663E+00
         -1   -1    0    0    0  501 -0.00000000000E+00  0.00000000000E+00  0.26256667838E+03  0.26256667838E+03  0.00000000000E+00 0.  1.
          1   -1    0    0  501    0  0.00000000000E+00 -0.00000000000E+00 -0.80103585304E+02  0.80103585304E+02  0.00000000000E+00 0. -1.
         23    2    1    2    0    0 -0.38116035081E+02  0.31115056442E+02  0.47066662308E+02  0.10940197025E+03  0.85630260570E+02 0.  0.
          5    1    1    2  502    0  0.45541884420E+02 -0.74524846186E+02 -0.34885017247E+01  0.87508045230E+02  0.41800000000E+01 0. -1.
         -5    1    1    2    0  502 -0.74258493393E+01  0.43409789744E+02  0.13888493249E+03  0.14576024821E+03  0.41800000000E+01 0.  1.
        -11    1    3    3    0    0 -0.12245946377E+02 -0.25423645090E+02  0.36815233618E+02  0.46386273387E+02  0.00000000000E+00 0. -1.
         11    1    3    3    0    0 -0.25870088704E+02  0.56538701532E+02  0.10251428689E+02  0.63015696859E+02  0.00000000000E+00 0.  1.
</event>
<event>
 7    1  0.6145388E-006  0.1109618E+03  0.7561462E-02  0.1258799E+00
          1   -1    0    0  501    0  0.00000000000E+00  0.00000000000E+00  0.20612785554E+02  0.20612785554E+02  0.00000000000E+00 0. -1.
         -1   -1    0    0    0  501 -0.00000000000E+00 -0.00000000000E+00 -0.68717992175E+03  0.68717992175E+03  0.00000000000E+00 0.  1.
         23    2    1    2    0    0 -0.31356340978E+02  0.54851679341E+02 -0.22737300204E+03  0.24678222979E+03  0.72187672336E+02 0.  0.
          5    1    1    2  502    0  0.64066763938E+02 -0.65634076079E+02 -0.39095012698E+03  0.40158667355E+03  0.41800000000E+01 0. -1.
         -5    1    1    2    0  502 -0.32710422960E+02  0.10782396737E+02 -0.48244007176E+02  0.59423803968E+02  0.41800000000E+01 0. -1.
        -11    1    3    3    0    0  0.18892837269E+02 -0.26200372948E+01 -0.56453481467E+02  0.59588585025E+02  0.00000000000E+00 0.  1.
         11    1    3    3    0    0 -0.50249178247E+02  0.57471716636E+02 -0.17091952057E+03  0.18719364476E+03  0.00000000000E+00 0. -1.
</event>
<event>
 7    1  0.6145388E-006  0.9289740E+02  0.7561462E-02  0.1295983E+00
          3   -1    0    0  501    0  0.00000000000E+00  0.00000000000E+00  0.84501361385E+02  0.84501361385E+02  0.00000000000E+00 0. -1.
         -3   -1    0    0    0  501 -0.00000000000E+00 -0.00000000000E+00 -0.17398086671E+03  0.17398086671E+03  0.00000000000E+00 0.  1.
         23    2    1    2    0    0  0.16867692205E+02  0.83076723433E+01  0.17713740727E+02  0.92680126982E+02  0.89007263000E+02 0.  0.
          5    1    1    2  502    0  0.10977588652E+02  0.45013760776E+02 -0.45313733285E+01  0.46741329207E+02  0.41800000000E+01 0.  1.
         -5    1    1    2    0  502 -0.27845280857E+02 -0.53321433120E+02 -0.10266187273E+03  0.11906077191E+03  0.41800000000E+01 0.  1.
        -11    1    3    3    0    0  0.22047644691E+02  0.40636963310E+02  0.32743813544E+02  0.56653497234E+02  0.00000000000E+00 0. -1.
         11    1    3    3    0    0 -0.51799524854E+01 -0.32329290966E+02 -0.15030072817E+02  0.36026629748E+02  0.00000000000E+00 0.  1.
</event>
<event>
 7    1  0.6145388E-006  0.1197480E+03  0.7561462E-02  0.1243513E+00
          1   -1    0    0  501    0  0.00000000000E+00  0.00000000000E+00  0.49640778493E+03  0.49640778493E+03  0.00000000000E+00 0. -1.
         -1   -1    0    0    0  501 -0.00000000000E+00 -0.00000000000E+00 -0.31448643415E+02  0.31448643415E+02  0.00000000000E+00 0.  1.
         23    2    1    2    0    0 -0.49507055058E+02 -0.18669203009E+02  0.27140684150E+03  0.29140466855E+03  0.91953899315E+02 0.  0.
          5    1    1    2  502    0  0.31802998908E+02  0.72288659158E+02  0.10802166223E+03  0.13387767884E+03  0.41800000000E+01 0.  1.
         -5    1    1    2    0  502  0.17704056151E+02 -0.53619456149E+02  0.85530637788E+02  0.10257408095E+03  0.41800000000E+01 0.  1.
        -11    1    3    3    0    0 -0.48934561003E+02 -0.51449140495E+02  0.15538011754E+03  0.17083496786E+03  0.00000000000E+00 0. -1.
         11    1    3    3    0    0 -0.57249405518E+00  0.32779937486E+02  0.11602672396E+03  0.12056970069E+03  0.00000000000E+00 0.  1.
</event>
<event>
 7    1  0.6145388E-006  0.8781725E+02  0.7561462E-02  0.1308225E+00
          1   -1    0    0  501    0  0.00000000000E+00  0.00000000000E+00  0.15425802378E+03  0.15425802378E+03  0.00000000000E+00 0.  1.
         -1   -1    0    0    0  501 -0.00000000000E+00 -0.00000000000E+00 -0.98027853685E+02  0.98027853685E+02  0.00000000000E+00 0. -1.
         23    2    1    2    0    0 -0.34435117799E+02 -0.20896119076E+02  0.69084804160E+02  0.12024490459E+03  0.89798116811E+02 0.  0.
          5    1    1    2  502    0  0.22822242923E+02  0.62884470064E+02  0.27557197609E+02  0.72471945519E+02  0.41800000000E+01 0.  1.
         -5    1    1    2    0  502  0.11612874876E+02 -0.41988350987E+02 -0.40411831673E+02  0.59569027360E+02  0.41800000000E+01 0.  1.
        -11    1    3    3    0    0  0.74858199223E+01 -0.21656413552E+02 -0.14231472565E+02  0.26973552959E+02  0.00000000000E+00 0.  1.
         11    1    3    3    0    0 -0.41920937721E+02  0.76029447574E+00  0.83316276725E+02  0.93271351627E+02  0.00000000000E+00 0. -1.
</event>
<event>
 7    1  0.6145388E-006  0.8275880E+02  0.7561462E-02  0.1321400E+00
          3   -1    0    0  501    0  0.00000000000E+00  0.00000000000E+00  0.45890424706E+02  0.45890424706E+02  0.00000000000E+00 0. -1.
         -3   -1    0    0    0  501 -0.00000000000E+00 -0.00000000000E+00 -0.26566864766E+03  0.26566864766E+03  0.00000000000E+00 0.  1.
         23    2    1    2    0    0 -0.47441418117E+01  0.18003451732E+02 -0.80704845575E+02  0.12358275618E+03  0.91721286347E+02 0.  0.
          5    1    1    2  502    0 -0.40852942647E+02 -0.33265923111E+02 -0.12796585471E+03  0.13844969099E+03  0.41800000000E+01 0. -1.
         -5    1    1    2    0  502  0.45597084458E+02  0.15262471379E+02 -0.11107522666E+02  0.49526625198E+02  0.41800000000E+01 0. -1.
        -11    1    3    3    0    0 -0.71440651079E+01 -0.22613649743E+02 -0.79408520726E+02  0.82874169587E+02  0.00000000000E+00 0.  1.
         11    1    3    3    0    0  0.23999232962E+01  0.40617101474E+02 -0.12963248496E+01  0.40708586589E+02  0.00000000000E+00 0. -1.
</event>
<event>
 7    1  0.6145388E-006  0.1262361E+03  0.7561462E-02  0.1233150E+00
          1   -1    0    0  501    0  0.00000000000E+00  0.00000000000E+00  0.35771080024E+03  0.35771080024E+03  0.00000000000E+00 0. -1.
         -1   -1    0    0    0  501 -0.00000000000E+00 -0.00000000000E+00 -0.51500210442E+02  0.51500210442E+02  0.00000000000E+00 0.  1.
         23    2    1    2    0    0 -0.35587368761E+02  0.54679987379E+02  0.21169356872E+03  0.23939417965E+03  0.90769181881E+02 0.  0.
          5    1    1    2  502    0  0.82568902259E+02 -0.38364416899E+02  0.59366174626E+02  0.10877162863E+03  0.41800000000E+01 0. -1.
         -5    1    1    2    0  502 -0.46981533498E+02 -0.16315570480E+02  0.35150846452E+02  0.61045202401E+02  0.41800000000E+01 0. -1.
        -11    1    3    3    0    0  0.29753663637E+02  0.70922471852E+01  0.49823004322E+02  0.58462913284E+02  0.00000000000E+00 0. -1.
         11    1    3    3    0    0 -0.65341032398E+02  0.47587740194E+02  0.16187056440E+03  0.18093126637E+03  0.00000000000E+00 0.  1.
</event>
<event>
 7    1  0.6145388E-006  0.1423728E+03  0.7561462E-02  0.1210171E+00
          2   -1    0    0  501    0  0.00000000000E+00  0.00000000000E+00  0.96288305613E+03  0.96288305613E+03  0.00000000000E+00 0. -1.
         -2   -1    0    0    0  501 -0.00000000000E+00 -0.00000000000E+00 -0.28849468351E+02  0.28849468351E+02  0.00000000000E+00 0.  1.
         23    2    1    2    0    0  0.79185597515E+02 -0.94378204935E+02  0.50823440559E+03  0.53115695767E+03  0.92994076345E+02 0.  0.
          5    1    1    2  502    0  0.24065863057E+02  0.76712324140E+01  0.16481130258E+03  0.16678804342E+03  0.41800000000E+01 0. -1.
         -5    1    1    2    0  502 -0.10325146057E+03  0.86706972521E+02  0.26098787961E+03  0.29378752339E+03  0.41800000000E+01 0. -1.
        -11    1    3    3    0    0  0.48322142384E+02 -0.69286454410E+02  0.46417553133E+03  0.47179928581E+03  0.00000000000E+00 0. -1.
         11    1    3    3    0    0  0.30863455131E+02 -0.25091750525E+02  0.44058874259E+02  0.59357671855E+02  0.00000000000E+00 0.  1.
</event>
<event>
 7    1  0.6145388E-006  0.1349427E+03  0.7561462E-02  0.1220301E+00
         -2   -1    0    0    0  501 -0.00000000000E+00  0.00000000000E+00  0.24573809958E+02  0.24573809958E+02  0.00000000000E+00 0.  1.
          2   -1    0    0  501    0  0.00000000000E+00 -0.00000000000E+00 -0.92508253758E+03  0.92508253758E+03  0.00000000000E+00 0. -1.
         23    2    1    2    0    0 -0.28015727898E+02 -0.99891506136E+02 -0.42132745985E+03  0.44366705301E+03  0.92522599918E+02 0.  0.
          5    1    1    2  502    0 -0.26589492272E+01  0.11174914927E+03 -0.44305494307E+03  0.45695743495E+03  0.41800000000E+01 0.  1.
         -5    1    1    2    0  502  0.30674677125E+02 -0.11857643139E+02 -0.36126324708E+02  0.49031859586E+02  0.41800000000E+01 0.  1.
        -11    1    3    3    0    0 -0.49737287391E+02 -0.50315314248E+02 -0.13653282049E+03  0.15377463925E+03  0.00000000000E+00 0.  1.
         11    1    3    3    0    0  0.21721559493E+02 -0.49576191887E+02 -0.28479463936E+03  0.28989241376E+03  0.00000000000E+00 0. -1.
</event>
<event>
 7    1  0.6145388E-006  0.1402248E+03  0.7561462E-02  0.1213027E+00
         -2   -1    0    0    0  501 -0.00000000000E+00  0.00000000000E+00  0.33010480813E+02  0.33010480813E+02  0.00000000000E+00 0.  1.
          2   -1    0    0  501    0  0.00000000000E+00 -0.00000000000E+00 -0.84064661768E+03  0.84064661768E+03  0.00000000000E+00 0. -1.
         23    2    1    2    0    0 -0.65555738332E+02  0.86794472029E+02 -0.54584779814E+03  0.56380119094E+03  0.89950702974E+02 0.  0.
          5    1    1    2  502    0  0.64861454485E+02 -0.10503948299E+03 -0.26353185725E+03  0.29104434963E+03  0.41800000000E+01 0.  1.
         -5    1    1    2    0  502  0.69428384704E+00  0.18245010963E+02  0.17435185156E+01  0.18811557934E+02  0.41800000000E+01 0.  1.
        -11    1    3    3    0    0 -0.75618221581E+02  0.31371128211E+02 -0.26490113521E+03  0.27726318644E+03  0.00000000000E+00 0.  1.
         11    1    3    3    0    0  0.10062483248E+02  0.55423343818E+02 -0.28094666293E+03  0.28653800450E+03  0.00000000000E+00 0. -1.
</event>
<event>
 7    1  0.6145388E-006  0.1614853E+03  0.7561462E-02  0.1187030E+00
         -2   -1    0    0    0  501 -0.00000000000E+00  0.00000000000E+00  0.39978843503E+02  0.39978843503E+02  0.00000000000E+00 0.  1.
          2   -1    0    0  501    0  0.00000000000E+00 -0.00000000000E+00 -0.87264969190E+03  0.87264969190E+03  0.00000000000E+00 0. -1.
         23    2    1    2    0    0 -0.63614532899E+02  0.13776433338E+03 -0.40847882281E+03  0.44506882740E+03  0.90584171281E+02 0.  0.
          5    1    1    2  502    0  0.31366902237E+02 -0.52737563335E+02 -0.41512608855E+02  0.74201767071E+02  0.41800000000E+01 0.  1.
         -5    1    1    2    0  502  0.32247630662E+02 -0.85026770048E+02 -0.38267941673E+03  0.39335794093E+03  0.41800000000E+01 0.  1.
        -11    1    3    3    0    0  0.15181518049E+02  0.48819414603E+01 -0.13297777468E+02  0.20763976697E+02  0.00000000000E+00 0.  1.
         11    1    3    3    0    0 -0.78796050949E+02  0.13288239192E+03 -0.39518104535E+03  0.42430485070E+03  0.00000000000E+00 0. -1.
</event>
<event>
 7    1  0.6145388E-006  0.1045986E+03  0.7561462E-02  0.1270913E+00
          1   -1    0    0  501    0  0.00000000000E+00  0.00000000000E+00  0.51720935402E+02  0.51720935402E+02  0.00000000000E+00 0. -1.
         -1   -1    0    0    0  501 -0.00000000000E+00 -0.00000000000E+00 -0.29286883273E+03  0.29286883273E+03  0.00000000000E+00 0.  1.
         23    2    1    2    0    0  0.45185404376E+02 -0.19125605704E+02 -0.54173468564E+02  0.11432998407E+03  0.87915135205E+02 0.  0.
          5    1    1    2  502    0  0.31254411785E+02  0.53117982096E+01 -0.50128366343E+01  0.32367489667E+02  0.41800000000E+01 0. -1.
         -5    1    1    2    0  502 -0.76439816161E+02  0.13813807494E+02 -0.18196159213E+03  0.19789229440E+03  0.41800000000E+01 0. -1.
        -11    1    3    3    0    0  0.66506755288E+02  0.56460870957E+01 -0.27684017159E+02  0.72259474150E+02  0.00000000000E+00 0.  1.
         11    1    3    3    0    0 -0.21321350912E+02 -0.24771692799E+02 -0.26489451405E+02  0.42070509916E+02  0.00000000000E+00 0. -1.
</event>
<event>
 7    1  0.6145388E-006  0.1140787E+03  0.7561462E-02  0.1253198E+00
         -2   -1    0    0    0  501 -0.00000000000E+00  0.00000000000E+00  0.44520358041E+02  0.44520358041E+02  0.00000000000E+00 0.  1.
          2   -1    0    0  501    0  0.00000000000E+00 -0.00000000000E+00 -0.30683454960E+03  0.30683454960E+03  0.00000000000E+00 0. -1.
         23    2    1    2    0    0 -0.38307364478E+02 -0.19850178551E+02 -0.11303160012E+03  0.15187099346E+03  0.91799631071E+02 0.  0.
          5    1    1    2  502    0 -0.31495067597E+02  0.43133662668E+02 -0.36754015221E+02  0.64967547075E+02  0.41800000000E+01 0.  1.
         -5    1    1    2    0  502  0.69802432074E+02 -0.23283484116E+02 -0.11252857622E+03  0.13451636711E+03  0.41800000000E+01 0.  1.
        -11    1    3    3    0    0  0.14646029000E+02  0.26651439210E+02 -0.41565016263E+02  0.51501999518E+02  0.00000000000E+00 0.  1.
         11    1    3    3    0    0 -0.52953393478E+02 -0.46501617761E+02 -0.71466583862E+02  0.10036899394E+03  0.00000000000E+00 0. -1.
</event>
<event>
 7    1  0.6145388E-006  0.1157734E+03  0.7561462E-02  0.1250237E+00
          1   -1    0    0  501    0  0.00000000000E+00  0.00000000000E+00  0.35281602076E+03  0.35281602076E+03  0.00000000000E+00 0. -1.
         -1   -1    0    0    0  501 -0.00000000000E+00 -0.00000000000E+00 -0.69969309618E+02  0.69969309618E+02  0.00000000000E+00 0.  1.
         23    2    1    2    0    0  0.43088510276E+02 -0.85383655044E+02  0.21174179440E+03  0.25001280998E+03  0.92330002666E+02 0.  0.
          5    1    1    2  502    0 -0.52012646977E+02  0.57296735666E+02 -0.17374731782E+02  0.79420306396E+02  0.41800000000E+01 0. -1.
         -5    1    1    2    0  502  0.89241367008E+01  0.28086919378E+02  0.88479648523E+02  0.93352214000E+02  0.41800000000E+01 0. -1.
        -11    1    3    3    0    0  0.55280223795E+01  0.15595569939E+02  0.70245554648E+02  0.72167990002E+02  0.00000000000E+00 0. -1.
         11    1    3    3    0    0  0.37560487897E+02 -0.10097922498E+03  0.14149623975E+03  0.17784481998E+03  0.00000000000E+00 0.  1.
</event>
<event>
 7    1  0.6145388E-006  0.1455983E+03  0.7561462E-02  0.1205989E+00
         -2   -1    0    0    0  501 -0.00000000000E+00  0.00000000000E+00  0.21851517000E+02  0.21851517000E+02  0.00000000000E+00 0.  1.
          2   -1    0    0  501    0  0.00000000000E+00 -0.00000000000E+00 -0.11481322913E+04  0.11481322913E+04  0.00000000000E+00 0. -1.
         23    2    1    2    0    0 -0.93928336178E+02  0.57944134267E+02 -0.63944515809E+03  0.65536098905E+03  0.91803380770E+02 0.  0.
          5    1    1    2  502    0 -0.17526810632E+02  0.13486798169E+02 -0.16607769316E+03  0.16759580956E+03  0.41800000000E+01 0. -1.
         -5    1    1    2    0  502  0.11145514681E+03 -0.71430932436E+02 -0.32075792300E+03  0.34702700965E+03  0.41800000000E+01 0. -1.
        -11    1    3    3    0    0 -0.59536338274E+02 -0.97349046956E+01 -0.18413927768E+03  0.19376949586E+03  0.00000000000E+00 0.  1.
         11    1    3    3    0    0 -0.34391997905E+02  0.67679038963E+02 -0.45530588042E+03  0.46159149318E+03  0.00000000000E+00 0. -1.
</event>
<event>
 7    1  0.6145388E-006  0.6594905E+02  0.7561462E-02  0.1374437E+00
         -3   -1    0    0    0  501 -0.00000000000E+00  0.00000000000E+00  0.12935811116E+03  0.12935811116E+03  0.00000000000E+00 0.  1.
          3   -1    0    0  501    0  0.00000000000E+00 -0.00000000000E+00 -0.10572959131E+03  0.10572959131E+03  0.00000000000E+00 0. -1.
         23    2    1    2    0    0 -0.85193243396E+01  0.44130124728E+02 -0.36878783193E+02  0.89042393568E+02  0.67442244971E+02 0.  0.
          5    1    1    2  502    0  0.19983486431E+02 -0.15116347527E+02  0.95592759571E+02  0.98910524085E+02  0.41800000000E+01 0.  1.
         -5    1    1    2    0  502 -0.11464162091E+02 -0.29013777202E+02 -0.35085456525E+02  0.47134784815E+02  0.41800000000E+01 0.  1.
        -11    1    3    3    0    0 -0.24729901045E+02 -0.32505355498E+01 -0.29162612119E+02  0.38374365566E+02  0.00000000000E+00 0.  1.
         11    1    3    3    0    0  0.16210576705E+02  0.47380660278E+02 -0.77161710742E+01  0.50668028001E+02  0.00000000000E+00 0. -1.
</event>
<event>
 7    1  0.6145388E-006  0.1754790E+03  0.7561462E-02  0.1172252E+00
         -2   -1    0    0    0  501 -0.00000000000E+00  0.00000000000E+00  0.47753003413E+02  0.47753003413E+02  0.00000000000E+00 0.  1.
          2   -1    0    0  501    0  0.00000000000E+00 -0.00000000000E+00 -0.81830316676E+03  0.81830316676E+03  0.00000000000E+00 0. -1.
         23    2    1    2    0    0  0.25030912513E+02  0.16282516339E+03 -0.37735432588E+03  0.42177093151E+03  0.91410343995E+02 0.  0.
          5    1    1    2  502    0 -0.13445823606E+02 -0.79427692979E+02 -0.59848573065E+02  0.10044338048E+03  0.41800000000E+01 0.  1.
         -5    1    1    2    0  502 -0.11585088908E+02 -0.83397470414E+02 -0.33334726440E+03  0.34384185818E+03  0.41800000000E+01 0.  1.
        -11    1    3    3    0    0  0.39371197116E+02  0.16657738783E+03 -0.32448887258E+03  0.36686665933E+03  0.00000000000E+00 0.  1.
         11    1    3    3    0    0 -0.14340284603E+02 -0.37522244405E+01 -0.52865453299E+02  0.54904272177E+02  0.00000000000E+00 0. -1.
</event>
<event>
 7    1  0.6145388E-006  0.1148014E+03  0.7561462E-02  0.1251928E+00
         -2   -1    0    0    0  501 -0.00000000000E+00  0.00000000000E+00  0.93442060518E+03  0.93442060518E+03  0.00000000000E+00 0. -1.
          2   -1    0    0  501    0  0.00000000000E+00 -0.00000000000E+00 -0.19352786239E+02  0.19352786239E+02  0.00000000000E+00 0.  1.
         23    2    1    2    0    0 -0.57101353415E+02  0.53289515481E+02  0.35366536579E+03  0.37332204789E+03  0.90497643386E+02 0.  0.
          5    1    1    2  502    0  0.92939456904E+02 -0.42430633992E+02  0.47972689444E+03  0.49050327930E+03  0.41800000000E+01 0. -1.
         -5    1    1    2    0  502 -0.35838103489E+02 -0.10858881489E+02  0.81675558702E+02  0.89948064227E+02  0.41800000000E+01 0. -1.
        -11    1    3    3    0    0 -0.66860818634E+01  0.35630062355E+02  0.35624627325E+02  0.50826362314E+02  0.00000000000E+00 0.  1.
         11    1    3    3    0    0 -0.50415271552E+02  0.17659453126E+02  0.31804073847E+03  0.32249568558E+03  0.00000000000E+00 0. -1.
</event>
<event>
 7    1  0.6145388E-006  0.1063134E+03  0.7561462E-02  0.1267553E+00
          1   -1    0    0  501    0  0.00000000000E+00  0.00000000000E+00  0.33023726698E+03  0.33023726698E+03  0.00000000000E+00 0. -1.
         -1   -1    0    0    0  501 -0.00000000000E+00 -0.00000000000E+00 -0.70948764006E+02  0.70948764006E+02  0.00000000000E+00 0.  1.
         23    2    1    2    0    0  0.40733601799E+02 -0.69529462596E+02  0.21244742221E+03  0.24518637433E+03  0.92135109874E+02 0.  0.
          5    1    1    2  502    0 -0.52911166329E+02  0.91365583081E+02  0.34174985668E+01  0.10571855556E+03  0.41800000000E+01 0.  1.
         -5    1    1    2    0  502  0.12177564530E+02 -0.21836120485E+02  0.43423582194E+02  0.50281101084E+02  0.41800000000E+01 0.  1.
        -11    1    3    3    0    0  0.16797619345E+02 -0.41408391756E+02  0.20189293706E+03  0.20677904381E+03  0.00000000000E+00 0. -1.
         11    1    3    3    0    0  0.23935982454E+02 -0.28121070840E+02  0.10554485147E+02  0.38407330524E+02  0.00000000000E+00 0.  1.
</event>
<event>
 7    1  0.6145388E-006  0.7390170E+02  0.7561462E-02  0.1347306E+00
          1   -1    0    0  501    0  0.00000000000E+00  0.00000000000E+00  0.45371492193E+03  0.45371492193E+03  0.00000000000E+00 0. -1.
         -1   -1    0    0    0  501 -0.00000000000E+00 -0.00000000000E+00 -0.34437626381E+02  0.34437626381E+02  0.00000000000E+00 0.  1.
         23    2    1    2    0    0 -0.49909618091E+02 -0.17655904642E+02  0.24909034415E+03  0.27040864837E+03  0.90951287052E+02 0.  0.
          5    1    1    2  502    0  0.48354213344E+02  0.31404432133E+02  0.18690685695E+03  0.19564256664E+03  0.41800000000E+01 0.  1.
         -5    1    1    2    0  502  0.15554047466E+01 -0.13748527491E+02 -0.16719905553E+02  0.22101333304E+02  0.41800000000E+01 0.  1.
        -11    1    3    3    0    0 -0.61668862065E+02 -0.14170653595E+02  0.25021545607E+03  0.25809229053E+03  0.00000000000E+00 0. -1.
         11    1    3    3    0    0  0.11759243974E+02 -0.34852510472E+01 -0.11251119195E+01  0.12316357843E+02  0.00000000000E+00 0.  1.
</event>
<event>
 7    1  0.6145388E-006  0.1092591E+03  0.7561462E-02  0.1261948E+00
          1   -1    0    0  501    0  0.00000000000E+00  0.00000000000E+00  0.21004939957E+03  0.21004939957E+03  0.00000000000E+00 0. -1.
         -1   -1    0    0    0  501 -0.00000000000E+00 -0.00000000000E+00 -0.10492784504E+03  0.10492784504E+03  0.00000000000E+00 0.  1.
         23    2    1    2    0    0 -0.28876727305E+02 -0.33148904399E+02  0.14472445656E+03  0.17659928022E+03  0.91156032198E+02 0.  0.
          5    1    1    2  502    0  0.93317430506E+01  0.80497839675E+02 -0.22379381751E+02  0.84174181007E+02  0.41800000000E+01 0. -1.
         -5    1    1    2    0  502  0.19544984255E+02 -0.47348935276E+02 -0.17223520281E+02  0.54203783375E+02  0.41800000000E+01 0. -1.
        -11    1    3    3    0    0  0.22230013958E+02  0.42722306001E+01  0.49926727300E+01  0.23180859688E+02  0.00000000000E+00 0.  1.
         11    1    3    3    0    0 -0.51106741263E+02 -0.37421134999E+02  0.13973178383E+03  0.15341842054E+03  0.00000000000E+00 0. -1.
</event>
<event>
 7    1  0.6145388E-006  0.1567592E+03  0.7561462E-02  0.1192405E+00
         -1   -1    0    0    0  501 -0.00000000000E+00  0.00000000000E+00  0.83576714706E+03  0.83576714706E+03  0.00000000000E+00 0.  1.
          1   -1    0    0  501    0  0.00000000000E+00 -0.00000000000E+00 -0.40996209715E+02  0.40996209715E+02  0.00000000000E+00 0. -1.
         23    2    1    2    0    0 -0.65102780482E+02 -0.13249402509E+03  0.33488102457E+03  0.37783161273E+03  0.93906273735E+02 0.  0.
          5    1    1    2  502    0  0.50662230597E+02  0.12918987401E+03  0.23088790557E+03  0.26941303327E+03  0.41800000000E+01 0. -1.
         -5    1    1    2    0  502  0.14440549885E+02  0.33041510859E+01  0.22900200721E+03  0.22951871078E+03  0.41800000000E+01 0. -1.
        -11    1    3    3    0    0 -0.10386125442E+02 -0.88439307513E+02  0.26150465911E+03  0.27625001258E+03  0.00000000000E+00 0.  1.
         11    1    3    3    0    0 -0.54716655041E+02 -0.44054717580E+02  0.73376365458E+02  0.10158160014E+03  0.00000000000E+00 0. -1.
</event>
<event>
 7    1  0.6145388E-006  0.1370276E+03  0.7561462E-02  0.1217385E+00
         -1   -1    0    0    0  501 -0.00000000000E+00  0.00000000000E+00  0.18946310322E+02  0.18946310322E+02  0.00000000000E+00 0.  1.
          1   -1    0    0  501    0  0.00000000000E+00 -0.00000000000E+00 -0.11261753191E+04  0.11261753191E+04  0.00000000000E+00 0. -1.
         23    2    1    2    0    0 -0.66198196349E+02 -0.64019639567E+02 -0.59787425781E+03  0.61260781175E+03  0.96716014286E+02 0.  0.
          5    1    1    2  502    0  0.62004174992E+02 -0.14705917897E+02 -0.12768611157E+03  0.14276553234E+03  0.41800000000E+01 0. -1.
         -5    1    1    2    0  502  0.41940213568E+01  0.78725557465E+02 -0.38166863941E+03  0.38974828534E+03  0.41800000000E+01 0. -1.
        -11    1    3    3    0    0 -0.16999298434E+01 -0.66671704059E+02 -0.24704481243E+03  0.25588893144E+03  0.00000000000E+00 0. -1.
         11    1    3    3    0    0 -0.64498266505E+02  0.26520644919E+01 -0.35082944538E+03  0.35671888032E+03  0.00000000000E+00 0.  1.
</event>
<event>
 7    1  0.6145388E-006  0.7945336E+02  0.7561462E-02  0.1330610E+00
          1   -1    0    0  501    0  0.00000000000E+00  0.00000000000E+00  0.38528527979E+02  0.38528527979E+02  0.00000000000E+00 0.  1.
         -1   -1    0    0    0  501 -0.00000000000E+00 -0.00000000000E+00 -0.39373469953E+03  0.39373469953E+03  0.00000000000E+00 0. -1.
         23    2    1    2    0    0 -0.11806863928E+02  0.47495567481E+02 -0.10260274964E+03  0.14617041961E+03  0.91887084885E+02 0.  0.
          5    1    1    2  502    0 -0.32567014306E+02 -0.16344532832E+02 -0.21926017784E+03  0.22230666243E+03  0.41800000000E+01 0.  1.
         -5    1    1    2    0  502  0.44373878234E+02 -0.31151034650E+02 -0.33343244078E+02  0.63786145478E+02  0.41800000000E+01 0.  1.
        -11    1    3    3    0    0 -0.29762457927E+02  0.23722183569E+02 -0.10921204690E+03  0.11565386756E+03  0.00000000000E+00 0. -1.
         11    1    3    3    0    0  0.17955593999E+02  0.23773383912E+02  0.66092972565E+01  0.30516552045E+02  0.00000000000E+00 0.  1.
</event>
<event>
 7    1  0.6145388E-006  0.1199470E+03  0.7561462E-02  0.1243184E+00
          2   -1    0    0  501    0  0.00000000000E+00  0.00000000000E+00  0.69686244398E+03  0.69686244398E+03  0.00000000000E+00 0. -1.
         -2   -1    0    0    0  501 -0.00000000000E+00 -0.00000000000E+00 -0.30302180673E+02  0.30302180673E+02  0.00000000000E+00 0.  1.
         23    2    1    2    0    0 -0.84869659521E+02  0.39907042756E+02  0.24810201805E+03  0.28045422427E+03  0.91129190619E+02 0.  0.
          5    1    1    2  502    0  0.29762078994E+02 -0.66581504571E+02  0.33642054995E+03  0.34426027497E+03  0.41800000000E+01 0. -1.
         -5    1    1    2    0  502  0.55107580528E+02  0.26674461814E+02  0.82037695316E+02  0.10245012541E+03  0.41800000000E+01 0. -1.
        -11    1    3    3    0    0 -0.19645182654E+02 -0.11201207159E+02  0.43845022262E+01  0.23035279532E+02  0.00000000000E+00 0.  1.
         11    1    3    3    0    0 -0.65224476867E+02  0.51108249915E+02  0.24371751582E+03  0.25741894474E+03  0.00000000000E+00 0. -1.
</event>
<event>
 7    1  0.6145388E-006  0.2843988E+03  0.7561462E-02  0.1093310E+00
         -3   -1    0    0    0  501 -0.00000000000E+00  0.00000000000E+00  0.31383129751E+03  0.31383129751E+03  0.00000000000E+00 0.  1.
          3   -1    0    0  501    0  0.00000000000E+00 -0.00000000000E+00 -0.28551318081E+03  0.28551318081E+03  0.00000000000E+00 0. -1.
         23    2    1    2    0    0 -0.12183306675E+03  0.24568731454E+03 -0.36976777947E+02  0.29095291648E+03  0.89893074389E+02 0.  0.
          5    1    1    2  502    0  0.11351877940E+03 -0.24593583989E+03  0.30783166290E+02  0.27264633932E+03  0.41800000000E+01 0. -1.
         -5    1    1    2    0  502  0.83142873504E+01  0.24852534455E+00  0.34511728359E+02  0.35745222524E+02  0.41800000000E+01 0. -1.
        -11    1    3    3    0    0 -0.84304360231E+02  0.71926300783E+02 -0.13131907423E+02  0.11159330128E+03  0.00000000000E+00 0.  1.
         11    1    3    3    0    0 -0.37528706517E+02  0.17376101376E+03 -0.23844870524E+02  0.17935961520E+03  0.00000000000E+00 0. -1.
</event>
<event>
 7    1  0.6145388E-006  0.1149778E+03  0.7561462E-02  0.1251620E+00
          2   -1    0    0  501    0  0.00000000000E+00  0.00000000000E+00  0.80051441954E+03  0.80051441954E+03  0.00000000000E+00 0. -1.
         -2   -1    0    0    0  501 -0.00000000000E+00 -0.00000000000E+00 -0.21063015651E+02  0.21063015651E+02  0.00000000000E+00 0.  1.
         23    2    1    2    0    0  0.65318180001E+02 -0.76852306394E+01  0.44340674228E+03  0.45702610336E+03  0.89094290745E+02 0.  0.
          5    1    1    2  502    0 -0.21913564547E+01 -0.46151005088E+02  0.19865509233E+03  0.20400008682E+03  0.41800000000E+01 0.  1.
         -5    1    1    2    0  502 -0.63126823547E+02  0.53836235727E+02  0.13738956928E+03  0.16055124501E+03  0.41800000000E+01 0.  1.
        -11    1    3    3    0    0  0.74286487081E+02 -0.27125219028E+02  0.40844051723E+03  0.41602634025E+03  0.00000000000E+00 0. -1.
         11    1    3    3    0    0 -0.89683070797E+01  0.19439988389E+02  0.34966225052E+02  0.40999763106E+02  0.00000000000E+00 0.  1.
</event>
<event>
 7    1  0.6145388E-006  0.1150044E+03  0.7561462E-02  0.1251574E+00
          1   -1    0    0  501    0  0.00000000000E+00  0.00000000000E+00  0.39195279531E+03  0.39195279531E+03  0.00000000000E+00 0. -1.
         -1   -1    0    0    0  501 -0.00000000000E+00 -0.00000000000E+00 -0.44468079998E+02  0.44468079998E+02  0.00000000000E+00 0.  1.
         23    2    1    2    0    0  0.40788210549E+02 -0.55535219397E+02  0.20595102801E+03  0.23534736687E+03  0.90690233444E+02 0.  0.
          5    1    1    2  502    0  0.17787928413E+02 -0.15993201150E+02 -0.76983479734E+01  0.25474101393E+02  0.41800000000E+01 0.  1.
         -5    1    1    2    0  502 -0.58576138962E+02  0.71528420548E+02  0.14923203528E+03  0.17559940705E+03  0.41800000000E+01 0.  1.
        -11    1    3    3    0    0  0.39910684285E+00 -0.70206347483E+02  0.11463114695E+03  0.13442243252E+03  0.00000000000E+00 0.  1.
         11    1    3    3    0    0  0.40389103706E+02  0.14671128086E+02  0.91319881056E+02  0.10092493435E+03  0.00000000000E+00 0. -1.
</event>
<event>
 7    1  0.6145388E-006  0.1364160E+03  0.7561462E-02  0.1218235E+00
          1   -1    0    0  501    0  0.00000000000E+00  0.00000000000E+00  0.14141049614E+03  0.14141049614E+03  0.00000000000E+00 0. -1.
         -1   -1    0    0    0  501 -0.00000000000E+00 -0.00000000000E+00 -0.15515894506E+03  0.15515894506E+03  0.00000000000E+00 0.  1.
         23    2    1    2    0    0  0.71330915515E+02  0.49484247704E+02  0.43548579163E+02  0.13388226527E+03  0.92147663713E+02 0.  0.
          5    1    1    2  502    0 -0.55266381218E+02 -0.89105870414E+02 -0.57645181573E+02  0.11972747552E+03  0.41800000000E+01 0. -1.
         -5    1    1    2    0  502 -0.16064534297E+02  0.39621622710E+02  0.34815349578E+00  0.42959700409E+02  0.41800000000E+01 0. -1.
        -11    1    3    3    0    0  0.29429200717E+02 -0.25565049481E+02  0.23849272406E+02  0.45699424549E+02  0.00000000000E+00 0.  1.
         11    1    3    3    0    0  0.41901714798E+02  0.75049297185E+02  0.19699306757E+02  0.88182840721E+02  0.00000000000E+00 0. -1.
</event>
<event>
 7    1  0.6145388E-006  0.2704963E+03  0.7561462E-02  0.1100996E+00
          2   -1    0    0  501    0  0.00000000000E+00  0.00000000000E+00  0.11620919010E+04  0.11620919010E+04  0.00000000000E+00 0. -1.
         -2   -1    0    0    0  501 -0.00000000000E+00 -0.00000000000E+00 -0.13757021755E+03  0.13757021755E+03  0.00000000000E+00 0.  1.
         23    2    1    2    0    0 -0.23806524223E+03  0.11221559065E+03  0.96187504586E+03  0.10016025220E+04  0.93469833642E+02 0.  0.
          5    1    1    2  502    0  0.78035179578E+02 -0.12555905441E+02  0.75059144585E+02  0.10908018885E+03  0.41800000000E+01 0.  1.
         -5    1    1    2    0  502  0.16003006266E+03 -0.99659685207E+02 -0.12412507015E+02  0.18897940771E+03  0.41800000000E+01 0.  1.
        -11    1    3    3    0    0 -0.54438695004E+02 -0.61760340902E+01  0.28892304059E+03  0.29407182506E+03  0.00000000000E+00 0. -1.
         11    1    3    3    0    0 -0.18362654723E+03  0.11839162474E+03  0.67295200527E+03  0.70753069690E+03  0.00000000000E+00 0.  1.
</event>
<event>
 7    1  0.6145388E-006  0.1168949E+03  0.7561462E-02  0.1248309E+00
          1   -1    0    0  501    0  0.00000000000E+00  0.00000000000E+00  0.11186723612E+04  0.11186723612E+04  0.00000000000E+00 0. -1.
         -1   -1    0    0    0  501 -0.00000000000E+00 -0.00000000000E+00 -0.14907847789E+02  0.14907847789E+02  0.00000000000E+00 0.  1.
         23    2    1    2    0    0 -0.28017760133E+02  0.56873650672E+02  0.41755785599E+03  0.43318972348E+03  0.96328429906E+02 0.  0.
          5    1    1    2  502    0  0.61475108634E+01 -0.91329767564E+02  0.35427548843E+03  0.36593375416E+03  0.41800000000E+01 0.  1.
         -5    1    1    2    0  502  0.21870249269E+02  0.34456116892E+02  0.33193116897E+03  0.33445673132E+03  0.41800000000E+01 0.  1.
        -11    1    3    3    0    0 -0.32111495780E+02  0.75509232239E+02  0.39595409032E+03  0.40436670728E+03  0.00000000000E+00 0. -1.
         11    1    3    3    0    0  0.40937356476E+01 -0.18635581567E+02  0.21603765668E+02  0.28823016201E+02  0.00000000000E+00 0.  1.
</event>
<event>
 7    1  0.6145388E-006  0.1127350E+03  0.7561462E-02  0.1255587E+00
         -1   -1    0    0    0  501 -0.00000000000E+00  0.00000000000E+00  0.45404006418E+02  0.45404006418E+02  0.00000000000E+00 0.  1.
          1   -1    0    0  501    0  0.00000000000E+00 -0.00000000000E+00 -0.37197430698E+03  0.37197430698E+03  0.00000000000E+00 0. -1.
         23    2    1    2    0    0 -0.67364545206E+02 -0.24608636741E+02 -0.13415196047E+03  0.17692820394E+03  0.90350837849E+02 0.  0.
          5    1    1    2  502    0 -0.19630470607E+02  0.49510178116E+02 -0.77303190673E+02  0.93967381583E+02  0.41800000000E+01 0. -1.
         -5    1    1    2    0  502  0.86995015813E+02 -0.24901541375E+02 -0.11511514942E+03  0.14648272788E+03  0.41800000000E+01 0. -1.
        -11    1    3    3    0    0 -0.36893414255E+02  0.70055863819E+01 -0.19254698336E+01  0.37601990506E+02  0.00000000000E+00 0. -1.
         11    1    3    3    0    0 -0.30471130952E+02 -0.31614223123E+02 -0.13222649064E+03  0.13932621344E+03  0.00000000000E+00 0.  1.
</event>
<event>
 7    1  0.1046140E-005  0.1883919E+03  0.7561462E-02  0.1159920E+00
         -2   -1    0    0    0  501 -0.00000000000E+00  0.00000000000E+00  0.14675541117E+03  0.14675541117E+03  0.00000000000E+00 0.  1.
          2   -1    0    0  501    0  0.00000000000E+00 -0.00000000000E+00 -0.32082741682E+03  0.32082741682E+03  0.00000000000E+00 0. -1.
         23    2    1    2    0    0  0.10460246570E+02  0.18618881153E+03 -0.10591096248E+03  0.23291456048E+03  0.90864570719E+02 0.  0.
          5    1    1    2  502    0 -0.22089686539E+02 -0.13567546374E+03  0.13146939075E+02  0.13815245246E+03  0.41800000000E+01 0. -1.
         -5    1    1    2    0  502  0.11629439970E+02 -0.50513347787E+02 -0.81307982239E+02  0.96515815049E+02  0.41800000000E+01 0. -1.
        -11    1    3    3    0    0 -0.30112543064E+01  0.97740913884E+02 -0.10494321363E+03  0.14344138868E+03  0.00000000000E+00 0.  1.
         11    1    3    3    0    0  0.13471500876E+02  0.88447897644E+02 -0.96774885103E+00  0.89473171797E+02  0.00000000000E+00 0. -1.
</event>
<event>
 7    1  0.6145388E-006  0.1530570E+03  0.7561462E-02  0.1196766E+00
          2   -1    0    0  501    0  0.00000000000E+00  0.00000000000E+00  0.48428524317E+03  0.48428524317E+03  0.00000000000E+00 0. -1.
         -2   -1    0    0    0  501 -0.00000000000E+00 -0.00000000000E+00 -0.62502845628E+02  0.62502845628E+02  0.00000000000E+00 0.  1.
         23    2    1    2    0    0 -0.23040224238E+02  0.12362211961E+03  0.26013391903E+03  0.30680081857E+03  0.10316882309E+03 0.  0.
          5    1    1    2  502    0  0.55273841621E+02 -0.66462152051E+01  0.46482316409E+02  0.72646045198E+02  0.41800000000E+01 0.  1.
         -5    1    1    2    0  502 -0.32233617383E+02 -0.11697590440E+03  0.11516616211E+03  0.16734122503E+03  0.41800000000E+01 0.  1.
        -11    1    3    3    0    0  0.56678625263E+01  0.41434453132E+02  0.19130183338E+03  0.19581963646E+03  0.00000000000E+00 0. -1.
         11    1    3    3    0    0 -0.28708086765E+02  0.82187666477E+02  0.68832085653E+02  0.11098118211E+03  0.00000000000E+00 0.  1.
</event>
<event>
 7    1  0.6145388E-006  0.1745162E+03  0.7561462E-02  0.1173218E+00
          1   -1    0    0  501    0  0.00000000000E+00  0.00000000000E+00  0.25190019745E+03  0.25190019745E+03  0.00000000000E+00 0. -1.
         -1   -1    0    0    0  501 -0.00000000000E+00 -0.00000000000E+00 -0.13803167212E+03  0.13803167212E+03  0.00000000000E+00 0.  1.
         23    2    1    2    0    0  0.30026644074E+02 -0.14496975094E+03  0.82707035234E+02  0.19362441373E+03  0.93445876711E+02 0.  0.
          5    1    1    2  502    0 -0.18490872775E+02 -0.19785738848E+02  0.12255042370E+02  0.30017433288E+02  0.41800000000E+01 0. -1.
         -5    1    1    2    0  502 -0.11535771299E+02  0.16475548978E+03  0.18906447722E+02  0.16629002255E+03  0.41800000000E+01 0. -1.
        -11    1    3    3    0    0  0.51691430253E+01 -0.12339825442E+03  0.23264426091E+02  0.12567848963E+03  0.00000000000E+00 0.  1.
         11    1    3    3    0    0  0.24857501048E+02 -0.21571496514E+02  0.59442609143E+02  0.67945924101E+02  0.00000000000E+00 0. -1.
</event>
<event>
 7    1  0.6145388E-006  0.7809703E+02  0.7561462E-02  0.1334540E+00
         -3   -1    0    0    0  501 -0.00000000000E+00  0.00000000000E+00  0.41893446366E+03  0.41893446366E+03  0.00000000000E+00 0.  1.
          3   -1    0    0  501    0  0.00000000000E+00 -0.00000000000E+00 -0.32522373845E+02  0.32522373845E+02  0.00000000000E+00 0. -1.
         23    2    1    2    0    0  0.12408964064E+01 -0.30739215948E+02  0.11318890892E+03  0.14939009054E+03  0.92516111170E+02 0.  0.
          5    1    1    2  502    0  0.35164508897E+02  0.41443587135E+02  0.45039732394E+02  0.70711834192E+02  0.41800000000E+01 0. -1.
         -5    1    1    2    0  502 -0.36405405304E+02 -0.10704371187E+02  0.22818344850E+03  0.23135491278E+03  0.41800000000E+01 0. -1.
        -11    1    3    3    0    0 -0.18937982170E+02  0.74199622400E+01 -0.71371444495E+01  0.21555552398E+02  0.00000000000E+00 0. -1.
         11    1    3    3    0    0  0.20178878576E+02 -0.38159178188E+02  0.12032605337E+03  0.12783453814E+03  0.00000000000E+00 0.  1.
</event>
<event>
 7    1  0.6145388E-006  0.9557726E+02  0.7561462E-02  0.1289881E+00
          2   -1    0    0  501    0  0.00000000000E+00  0.00000000000E+00  0.26347222692E+03  0.26347222692E+03  0.00000000000E+00 0. -1.
         -2   -1    0    0    0  501 -0.00000000000E+00 -0.00000000000E+00 -0.59574539130E+02  0.59574539130E+02  0.00000000000E+00 0.  1.
         23    2    1    2    0    0 -0.63578106228E+02  0.59107845851E+01  0.10108534013E+03  0.14898872915E+03  0.88894783074E+02 0.  0.
          5    1    1    2  502    0  0.32097006194E+02 -0.57164370678E+02  0.91613688995E+02  0.11273208724E+03  0.41800000000E+01 0. -1.
         -5    1    1    2    0  502  0.31481100034E+02  0.51253586093E+02  0.11198658670E+02  0.61325949669E+02  0.41800000000E+01 0. -1.
        -11    1    3    3    0    0 -0.17991912756E+02 -0.41954530359E+01 -0.15043199505E+02  0.23824537816E+02  0.00000000000E+00 0.  1.
         11    1    3    3    0    0 -0.45586193472E+02  0.10106237621E+02  0.11612853963E+03  0.12516419133E+03  0.00000000000E+00 0. -1.
</event>
<event>
 7    1  0.6145388E-006  0.1091630E+03  0.7561462E-02  0.1262128E+00
          2   -1    0    0  501    0  0.00000000000E+00  0.00000000000E+00  0.46826778055E+03  0.46826778055E+03  0.00000000000E+00 0.  1.
         -2   -1    0    0    0  501 -0.00000000000E+00 -0.00000000000E+00 -0.39212657558E+02  0.39212657558E+02  0.00000000000E+00 0. -1.
         23    2    1    2    0    0  0.11163480448E+01 -0.84494646331E+02  0.18829000225E+03  0.22330529396E+03  0.85273312771E+02 0.  0.
          5    1    1    2  502    0  0.23024540322E+02  0.84920459989E+02  0.72357780652E+02  0.11399445075E+03  0.41800000000E+01 0.  1.
         -5    1    1    2    0  502 -0.24140888367E+02 -0.42581365786E+00  0.16840734009E+03  0.17018069340E+03  0.41800000000E+01 0.  1.
        -11    1    3    3    0    0  0.30936595000E+02 -0.27410928731E+02  0.26322664278E+02  0.49003209882E+02  0.00000000000E+00 0. -1.
         11    1    3    3    0    0 -0.29820246955E+02 -0.57083717600E+02  0.16196733797E+03  0.17430208408E+03  0.00000000000E+00 0.  1.
</event>
<event>
 7    1  0.6145388E-006  0.1016510E+03  0.7561462E-02  0.1276862E+00
          1   -1    0    0  501    0  0.00000000000E+00  0.00000000000E+00  0.47771601360E+03  0.47771601360E+03  0.00000000000E+00 0. -1.
         -1   -1    0    0    0  501 -0.00000000000E+00 -0.00000000000E+00 -0.27990260339E+02  0.27990260339E+02  0.00000000000E+00 0.  1.
         23    2    1    2    0    0 -0.36853994111E+01 -0.23407063986E+02  0.25811551878E+03  0.27565568289E+03  0.93813440725E+02 0.  0.
          5    1    1    2  502    0  0.31310915085E+02  0.55766586462E+02  0.17094618860E+03  0.18256603563E+03  0.41800000000E+01 0.  1.
         -5    1    1    2    0  502 -0.27625515674E+02 -0.32359522477E+02  0.20664045882E+02  0.47484555420E+02  0.41800000000E+01 0.  1.
        -11    1    3    3    0    0  0.32800206080E+02 -0.43753094636E+02  0.15700298145E+03  0.16625318942E+03  0.00000000000E+00 0.  1.
         11    1    3    3    0    0 -0.36485605491E+02  0.20346030651E+02  0.10111253733E+03  0.10940249347E+03  0.00000000000E+00 0. -1.
</event>
<event>
 7    1  0.6145388E-006  0.2381491E+03  0.7561462E-02  0.1121032E+00
          1   -1    0    0  501    0  0.00000000000E+00  0.00000000000E+00  0.59776062343E+03  0.59776062343E+03  0.00000000000E+00 0. -1.
         -1   -1    0    0    0  501 -0.00000000000E+00 -0.00000000000E+00 -0.95497034485E+02  0.95497034485E+02  0.00000000000E+00 0.  1.
         23    2    1    2    0    0 -0.19484225361E+03 -0.85207384813E+02  0.24506231307E+03  0.33685413925E+03  0.90506196599E+02 0.  0.
          5    1    1    2  502    0  0.15217163799E+02  0.63200811728E+02  0.78960242616E+02  0.10236257613E+03  0.41800000000E+01 0. -1.
         -5    1    1    2    0  502  0.17962508981E+03  0.22006573085E+02  0.17824103325E+03  0.25404094253E+03  0.41800000000E+01 0. -1.
        -11    1    3    3    0    0 -0.13607173886E+03 -0.12490941441E+02  0.13011478612E+03  0.18868333074E+03  0.00000000000E+00 0.  1.
         11    1    3    3    0    0 -0.58770514756E+02 -0.72716443371E+02  0.11494752695E+03  0.14817080851E+03  0.00000000000E+00 0. -1.
</event>
<event>
 7    1  0.6145388E-006  0.4121130E+03  0.7561462E-02  0.1039664E+00
          1   -1    0    0  501    0  0.00000000000E+00  0.00000000000E+00  0.10776491550E+04  0.10776491550E+04  0.00000000000E+00 0. -1.
         -1   -1    0    0    0  501 -0.00000000000E+00 -0.00000000000E+00 -0.16168979328E+03  0.16168979328E+03  0.00000000000E+00 0.  1.
         23    2    1    2    0    0 -0.32732975436E+03 -0.23085418294E+03  0.51660289817E+03  0.66005452585E+03  0.91405693554E+02 0.  0.
          5    1    1    2  502    0  0.22086000007E+03  0.82884426169E+02  0.20210915920E+03  0.31066791332E+03  0.41800000000E+01 0.  1.
         -5    1    1    2    0  502  0.10646975429E+03  0.14796975677E+03  0.19724730433E+03  0.26861650910E+03  0.41800000000E+01 0.  1.
        -11    1    3    3    0    0 -0.21757633473E+03 -0.18992855491E+03  0.31879197226E+03  0.43016350261E+03  0.00000000000E+00 0.  1.
         11    1    3    3    0    0 -0.10975341963E+03 -0.40925628033E+02  0.19781092591E+03  0.22989102323E+03  0.00000000000E+00 0. -1.
</event>
<event>
 7    1  0.6145388E-006  0.7900972E+02  0.7561462E-02  0.1331885E+00
         -4   -1    0    0    0  501 -0.00000000000E+00  0.00000000000E+00  0.72991496986E+02  0.72991496986E+02  0.00000000000E+00 0.  1.
          4   -1    0    0  501    0  0.00000000000E+00 -0.00000000000E+00 -0.14189326254E+03  0.14189326254E+03  0.00000000000E+00 0. -1.
         23    2    1    2    0    0 -0.10956537760E+02 -0.12563801803E+02 -0.39463914662E+02  0.99176124109E+02  0.89446118962E+02 0.  0.
          5    1    1    2  502    0 -0.86871097389E+01 -0.47310037551E+02 -0.75398392244E+01  0.48867444216E+02  0.41800000000E+01 0. -1.
         -5    1    1    2    0  502  0.19643647499E+02  0.59873839354E+02 -0.21898011666E+02  0.66841191199E+02  0.41800000000E+01 0.  1.
        -11    1    3    3    0    0  0.16139364378E+02 -0.10824382612E+02  0.23567012312E+02  0.30545873875E+02  0.00000000000E+00 0.  1.
         11    1    3    3    0    0 -0.27095902139E+02 -0.17394191905E+01 -0.63030926975E+02  0.68630250233E+02  0.00000000000E+00 0. -1.
</event>
<event>
 7    1  0.6145388E-006  0.1060802E+03  0.7561462E-02  0.1268006E+00
         -4   -1    0    0    0  501 -0.00000000000E+00  0.00000000000E+00  0.13417055173E+03  0.13417055173E+03  0.00000000000E+00 0.  1.
          4   -1    0    0  501    0  0.00000000000E+00 -0.00000000000E+00 -0.12616457288E+03  0.12616457288E+03  0.00000000000E+00 0. -1.
         23    2    1    2    0    0 -0.32326816749E+02  0.49352532712E+02 -0.36551974315E+02  0.11539657355E+03  0.92193420557E+02 0.  0.
          5    1    1    2  502    0  0.65282128397E+02 -0.14915973871E+02 -0.14789222420E+02  0.68705429657E+02  0.41800000000E+01 0.  1.
         -5    1    1    2    0  502 -0.32955311648E+02 -0.34436558841E+02  0.59347175583E+02  0.76233121413E+02  0.41800000000E+01 0.  1.
        -11    1    3    3    0    0  0.95168784122E+01  0.54259211381E+02  0.61256014465E+01  0.55427033002E+02  0.00000000000E+00 0.  1.
         11    1    3    3    0    0 -0.41843695161E+02 -0.49066786684E+01 -0.42677575762E+02  0.59969540545E+02  0.00000000000E+00 0. -1.
</event>
<event>
 7    1  0.6145388E-006  0.7472710E+02  0.7561462E-02  0.1344718E+00
         -2   -1    0    0    0  501 -0.00000000000E+00  0.00000000000E+00  0.23115632252E+03  0.23115632252E+03  0.00000000000E+00 0.  1.
          2   -1    0    0  501    0  0.00000000000E+00 -0.00000000000E+00 -0.78460703758E+02  0.78460703758E+02  0.00000000000E+00 0. -1.
         23    2    1    2    0    0  0.10266660474E+02  0.12066572469E+01  0.33048291606E+02  0.92051161143E+02  0.85289895947E+02 0.  0.
          5    1    1    2  502    0  0.89224488503E+01 -0.31684285813E+02 -0.41076094296E+02  0.52803617145E+02  0.41800000000E+01 0. -1.
         -5    1    1    2    0  502 -0.19189109325E+02  0.30477628566E+02  0.16072342145E+03  0.16476224799E+03  0.41800000000E+01 0.  1.
        -11    1    3    3    0    0  0.64665057236E+01  0.40261152313E+02  0.33556030771E+02  0.52808931848E+02  0.00000000000E+00 0. -1.
         11    1    3    3    0    0  0.38001547507E+01 -0.39054495066E+02 -0.50773916480E+00  0.39242229295E+02  0.00000000000E+00 0.  1.
</event>
<event>
 7    1  0.6145388E-006  0.8845561E+02  0.7561462E-02  0.1306635E+00
         -1   -1    0    0    0  501 -0.00000000000E+00  0.00000000000E+00  0.36133702390E+03  0.36133702390E+03  0.00000000000E+00 0.  1.
          1   -1    0    0  501    0  0.00000000000E+00 -0.00000000000E+00 -0.46070881305E+02  0.46070881305E+02  0.00000000000E+00 0. -1.
         23    2    1    2    0    0 -0.60962863151E+01 -0.34986253505E+02  0.45390159390E+02  0.10783832575E+03  0.91146230253E+02 0.  0.
          5    1    1    2  502    0  0.13441167171E+02 -0.26881240940E+02  0.21286321961E+03  0.21501508959E+03  0.41800000000E+01 0. -1.
         -5    1    1    2    0  502 -0.73448808555E+01  0.61867494445E+02  0.57012763594E+02  0.84554489865E+02  0.41800000000E+01 0. -1.
        -11    1    3    3    0    0  0.34649093835E+02 -0.23238632926E+02  0.50072469121E+02  0.65175500978E+02  0.00000000000E+00 0.  1.
         11    1    3    3    0    0 -0.40745380150E+02 -0.11747620579E+02 -0.46823097308E+01  0.42662824769E+02  0.00000000000E+00 0. -1.
</event>
<event>
 7    1  0.6145388E-006  0.5380602E+02  0.7561462E-02  0.1425831E+00
          1   -1    0    0  501    0  0.00000000000E+00  0.00000000000E+00  0.10773072752E+03  0.10773072752E+03  0.00000000000E+00 0. -1.
         -1   -1    0    0    0  501 -0.00000000000E+00 -0.00000000000E+00 -0.11220910381E+03  0.11220910381E+03  0.00000000000E+00 0.  1.
         23    2    1    2    0    0 -0.19762430195E+02 -0.78777475142E+01  0.24451579970E+00  0.92971789932E+02  0.90504593155E+02 0.  0.
          5    1    1    2  502    0  0.40250728214E+02  0.18645991500E+02 -0.55402582523E+02  0.71096502523E+02  0.41800000000E+01 0. -1.
         -5    1    1    2    0  502 -0.20488298019E+02 -0.10768243986E+02  0.50679690432E+02  0.55871538877E+02  0.41800000000E+01 0. -1.
        -11    1    3    3    0    0 -0.17631192732E+02 -0.20325325903E+02  0.41704521171E+02  0.49631088204E+02  0.00000000000E+00 0. -1.
         11    1    3    3    0    0 -0.21312374634E+01  0.12447578389E+02 -0.41460005371E+02  0.43340701728E+02  0.00000000000E+00 0.  1.
</event>
<event>
 7    1  0.6145388E-006  0.8309248E+02  0.7561462E-02  0.1320498E+00
          2   -1    0    0  501    0  0.00000000000E+00  0.00000000000E+00  0.58411998329E+03  0.58411998329E+03  0.00000000000E+00 0. -1.
         -2   -1    0    0    0  501 -0.00000000000E+00 -0.00000000000E+00 -0.25498331466E+02  0.25498331466E+02  0.00000000000E+00 0.  1.
         23    2    1    2    0    0  0.45701202621E+02  0.25682340495E+02  0.22361667058E+03  0.24822979445E+03  0.94156428124E+02 0.  0.
          5    1    1    2  502    0 -0.35743622198E+02  0.17031745797E+01  0.32947099526E+03  0.33143493547E+03  0.41800000000E+01 0.  1.
         -5    1    1    2    0  502 -0.99575804234E+01 -0.27385515074E+02  0.55339859837E+01  0.29953584838E+02  0.41800000000E+01 0.  1.
        -11    1    3    3    0    0 -0.28334180665E+01 -0.28118949612E+02  0.28690823282E+02  0.40272408990E+02  0.00000000000E+00 0.  1.
         11    1    3    3    0    0  0.48534620688E+02  0.53801290107E+02  0.19492584730E+03  0.20795738546E+03  0.00000000000E+00 0. -1.
</event>
<event>
 7    1  0.6145388E-006  0.1356654E+03  0.7561462E-02  0.1219283E+00
         -1   -1    0    0    0  501 -0.00000000000E+00  0.00000000000E+00  0.10711150956E+03  0.10711150956E+03  0.00000000000E+00 0.  1.
          1   -1    0    0  501    0  0.00000000000E+00 -0.00000000000E+00 -0.26999300955E+03  0.26999300955E+03  0.00000000000E+00 0. -1.
         23    2    1    2    0    0  0.37819217529E+02  0.11236423298E+03 -0.13711852160E+03  0.20284308300E+03  0.91037427939E+02 0.  0.
          5    1    1    2  502    0 -0.31835668195E+02 -0.49874787532E+02  0.48722155236E+02  0.76761481302E+02  0.41800000000E+01 0. -1.
         -5    1    1    2    0  502 -0.59835493340E+01 -0.62489445453E+02 -0.74485133626E+02  0.97499954805E+02  0.41800000000E+01 0. -1.
        -11    1    3    3    0    0 -0.18062975102E+02  0.84961536687E+02 -0.72705869756E+02  0.11327346239E+03  0.00000000000E+00 0.  1.
         11    1    3    3    0    0  0.55882192630E+02  0.27402696297E+02 -0.64412651847E+02  0.89569620606E+02  0.00000000000E+00 0. -1.
</event>
<event>
 7    1  0.6145388E-006  0.1056236E+03  0.7561462E-02  0.1268896E+00
          1   -1    0    0  501    0  0.00000000000E+00  0.00000000000E+00  0.26536799677E+03  0.26536799677E+03  0.00000000000E+00 0.  1.
         -1   -1    0    0    0  501 -0.00000000000E+00 -0.00000000000E+00 -0.73693939833E+02  0.73693939833E+02  0.00000000000E+00 0. -1.
         23    2    1    2    0    0  0.79226808319E+02 -0.18559566062E+02  0.51973320957E+02  0.13464828935E+03  0.93848767087E+02 0.  0.
          5    1    1    2  502    0  0.14403688911E+02  0.17500646457E+02  0.10000160009E+03  0.10262324932E+03  0.41800000000E+01 0.  1.
         -5    1    1    2    0  502 -0.93630497231E+02  0.10589196049E+01  0.39699135896E+02  0.10179039794E+03  0.41800000000E+01 0.  1.
        -11    1    3    3    0    0  0.66853687024E+02 -0.33740022135E+02  0.73927332703E+02  0.10522858491E+03  0.00000000000E+00 0.  1.
         11    1    3    3    0    0  0.12373121295E+02  0.15180456073E+02 -0.21954011746E+02  0.29419704433E+02  0.00000000000E+00 0. -1.
</event>
<event>
 7    1  0.6145388E-006  0.9011931E+02  0.7561462E-02  0.1302563E+00
          1   -1    0    0  501    0  0.00000000000E+00  0.00000000000E+00  0.14882575730E+03  0.14882575730E+03  0.00000000000E+00 0. -1.
         -1   -1    0    0    0  501 -0.00000000000E+00 -0.00000000000E+00 -0.91402628411E+02  0.91402628411E+02  0.00000000000E+00 0.  1.
         23    2    1    2    0    0 -0.34038209216E+02 -0.23554857609E+02  0.23850803514E+02  0.10425476261E+03  0.92664792103E+02 0.  0.
          5    1    1    2  502    0  0.20747281524E+02  0.51787927940E+02 -0.31126109955E+02  0.64021451810E+02  0.41800000000E+01 0. -1.
         -5    1    1    2    0  502  0.13290927693E+02 -0.28233070330E+02  0.64698435332E+02  0.71952171292E+02  0.41800000000E+01 0. -1.
        -11    1    3    3    0    0 -0.31722535336E+02 -0.53810505505E+02  0.35386332778E+02  0.71791937558E+02  0.00000000000E+00 0. -1.
         11    1    3    3    0    0 -0.23156738804E+01  0.30255647896E+02 -0.11535529264E+02  0.32462825054E+02  0.00000000000E+00 0.  1.
</event>
<event>
 7    1  0.6145388E-006  0.1725466E+03  0.7561462E-02  0.1175218E+00
         -1   -1    0    0    0  501 -0.00000000000E+00  0.00000000000E+00  0.32887626701E+02  0.32887626701E+02  0.00000000000E+00 0.  1.
          1   -1    0    0  501    0  0.00000000000E+00 -0.00000000000E+00 -0.11074063948E+04  0.11074063948E+04  0.00000000000E+00 0. -1.
         23    2    1    2    0    0 -0.50532519146E+02 -0.14884989750E+03 -0.53379446362E+03  0.56345808660E+03  0.88536198756E+02 0.  0.
          5    1    1    2  502    0 -0.55833865110E+01  0.56424227221E+02 -0.37250834515E+03  0.37682198347E+03  0.41800000000E+01 0.  1.
         -5    1    1    2    0  502  0.56115905657E+02  0.92425670280E+02 -0.16821595938E+03  0.20001395147E+03  0.41800000000E+01 0.  1.
        -11    1    3    3    0    0 -0.75660322276E+02 -0.11896732710E+03 -0.40230769018E+03  0.42629706410E+03  0.00000000000E+00 0.  1.
         11    1    3    3    0    0  0.25127803131E+02 -0.29882570403E+02 -0.13148677344E+03  0.13716102250E+03  0.00000000000E+00 0. -1.
</event>
<event>
 7    1  0.6145388E-006  0.8903024E+02  0.7561462E-02  0.1305217E+00
         -1   -1    0    0    0  501 -0.00000000000E+00  0.00000000000E+00  0.81622548996E+02  0.81622548996E+02  0.00000000000E+00 0.  1.
          1   -1    0    0  501    0  0.00000000000E+00 -0.00000000000E+00 -0.15699681499E+03  0.15699681499E+03  0.00000000000E+00 0. -1.
         23    2    1    2    0    0 -0.14681346836E+02 -0.13742105893E+02 -0.57515334875E+02  0.11066765349E+03  0.92384676025E+02 0.  0.
          5    1    1    2  502    0 -0.36522824193E+02  0.43809612012E+01 -0.53259876353E+02  0.64862904168E+02  0.41800000000E+01 0. -1.
         -5    1    1    2    0  502  0.51204171029E+02  0.93611446919E+01  0.35400945231E+02  0.63088806328E+02  0.41800000000E+01 0. -1.
        -11    1    3    3    0    0  0.36219889126E+02 -0.50068494160E+00 -0.53971280751E+01  0.36623217297E+02  0.00000000000E+00 0.  1.
         11    1    3    3    0    0 -0.50901235963E+02 -0.13241420951E+02 -0.52118206800E+02  0.74044436194E+02  0.00000000000E+00 0. -1.
</event>
<event>
 7    1  0.6145388E-006  0.1673652E+03  0.7561462E-02  0.1180624E+00
          4   -1    0    0  501    0  0.00000000000E+00  0.00000000000E+00  0.31704058940E+02  0.31704058940E+02  0.00000000000E+00 0.  1.
         -4   -1    0    0    0  501 -0.00000000000E+00 -0.00000000000E+00 -0.10530545790E+04  0.10530545790E+04  0.00000000000E+00 0. -1.
         23    2    1    2    0    0  0.98962572711E+02  0.99372962655E+02 -0.41180487764E+03  0.44690187730E+03  0.10232035077E+03 0.  0.
          5    1    1    2  502    0 -0.64737875497E+02 -0.10769961829E+03 -0.57412059012E+03  0.58772623279E+03  0.41800000000E+01 0. -1.
         -5    1    1    2    0  502 -0.34224697214E+02  0.83266556350E+01 -0.35425052329E+02  0.50130527884E+02  0.41800000000E+01 0. -1.
        -11    1    3    3    0    0  0.94945117980E+02  0.23840551948E+02 -0.23863939227E+03  0.25793740886E+03  0.00000000000E+00 0.  1.
         11    1    3    3    0    0  0.40174547310E+01  0.75532410707E+02 -0.17316548537E+03  0.18896446844E+03  0.00000000000E+00 0. -1.
</event>
<event>
 7    1  0.6145388E-006  0.1212674E+03  0.7561462E-02  0.1241021E+00
         -1   -1    0    0    0  501 -0.00000000000E+00  0.00000000000E+00  0.22545645679E+02  0.22545645679E+02  0.00000000000E+00 0.  1.
          1   -1    0    0  501    0  0.00000000000E+00 -0.00000000000E+00 -0.87544106270E+03  0.87544106270E+03  0.00000000000E+00 0. -1.
         23    2    1    2    0    0 -0.35452974999E+02  0.58326838850E+02 -0.61646675793E+03  0.62689868876E+03  0.91168902422E+02 0.  0.
          5    1    1    2  502    0 -0.68154887447E+01  0.29810487444E+02 -0.88540749728E+02  0.93765946969E+02  0.41800000000E+01 0. -1.
         -5    1    1    2    0  502  0.42268463744E+02 -0.88137326295E+02 -0.14788790936E+03  0.17732207265E+03  0.41800000000E+01 0.  1.
        -11    1    3    3    0    0 -0.66491180904E+02  0.36121887851E+02 -0.41899837960E+03  0.42577636151E+03  0.00000000000E+00 0. -1.
         11    1    3    3    0    0  0.31038205905E+02  0.22204950999E+02 -0.19746837833E+03  0.20112232724E+03  0.00000000000E+00 0.  1.
</event>
<event>
 7    1  0.9861587E-006  0.2749956E+03  0.7561462E-02  0.1098454E+00
          1   -1    0    0  501    0  0.00000000000E+00  0.00000000000E+00  0.22552134235E+04  0.22552134235E+04  0.00000000000E+00 0. -1.
         -1   -1    0    0    0  501 -0.00000000000E+00 -0.00000000000E+00 -0.36858831103E+02  0.36858831103E+02  0.00000000000E+00 0.  1.
         23    2    1    2    0    0 -0.12288137813E+03  0.23797635555E+03  0.11298792289E+04  0.11641722986E+04  0.83291596392E+02 0.  0.
          5    1    1    2  502    0  0.22231081299E+02  0.10042529047E+01  0.27177119199E+02  0.35373686655E+02  0.41800000000E+01 0.  1.
         -5    1    1    2    0  502  0.10065029683E+03 -0.23898060846E+03  0.10612982443E+04  0.10925262694E+04  0.41800000000E+01 0.  1.
        -11    1    3    3    0    0 -0.69367323438E+02  0.14465786210E+03  0.49805128654E+03  0.52325214443E+03  0.00000000000E+00 0.  1.
         11    1    3    3    0    0 -0.53514054690E+02  0.93318493454E+02  0.63182794233E+03  0.64092015413E+03  0.00000000000E+00 0. -1.
</event>
<event>
 7    1  0.6145388E-006  0.1041909E+03  0.7561462E-02  0.1271722E+00
          3   -1    0    0  501    0  0.00000000000E+00  0.00000000000E+00  0.67964502333E+02  0.67964502333E+02  0.00000000000E+00 0. -1.
         -3   -1    0    0    0  501 -0.00000000000E+00 -0.00000000000E+00 -0.19343592610E+03  0.19343592610E+03  0.00000000000E+00 0.  1.
         23    2    1    2    0    0  0.62510257512E+01  0.31237220163E+02 -0.37632872626E+02  0.10526571199E+03  0.93004289001E+02 0.  0.
          5    1    1    2  502    0  0.30962325820E+02 -0.68973079723E+02 -0.55866932607E+02  0.94098554216E+02  0.41800000000E+01 0.  1.
         -5    1    1    2    0  502 -0.37213351572E+02  0.37735859561E+02 -0.31971618534E+02  0.62036162225E+02  0.41800000000E+01 0.  1.
        -11    1    3    3    0    0  0.39670934849E+02  0.17746834755E+02 -0.50838399810E+02  0.66882554608E+02  0.00000000000E+00 0.  1.
         11    1    3    3    0    0 -0.33419909098E+02  0.13490385408E+02  0.13205527184E+02  0.38383157384E+02  0.00000000000E+00 0. -1.
</event>
<event>
 7    1  0.6145388E-006  0.1023134E+03  0.7561462E-02  0.1275505E+00
         -1   -1    0    0    0  501 -0.00000000000E+00  0.00000000000E+00  0.84640447901E+03  0.84640447901E+03  0.00000000000E+00 0.  1.
          1   -1    0    0  501    0  0.00000000000E+00 -0.00000000000E+00 -0.14360386054E+02  0.14360386054E+02  0.00000000000E+00 0. -1.
         23    2    1    2    0    0 -0.53540502976E+01 -0.16057361106E+02  0.25697086243E+03  0.27200067271E+03  0.87543344191E+02 0.  0.
          5    1    1    2  502    0  0.53482746713E+02  0.41031180795E+02  0.24063920643E+03  0.24993731627E+03  0.41800000000E+01 0.  1.
         -5    1    1    2    0  502 -0.48128696415E+02 -0.24973819689E+02  0.33443402409E+03  0.33882687609E+03  0.41800000000E+01 0.  1.
        -11    1    3    3    0    0 -0.14524461175E+02  0.31280013897E+02  0.16034971604E+03  0.16401655611E+03  0.00000000000E+00 0.  1.
         11    1    3    3    0    0  0.91704108775E+01 -0.47337375004E+02  0.96621146390E+02  0.10798411660E+03  0.00000000000E+00 0. -1.
</event>
<event>
 7    1  0.6145388E-006  0.1618743E+03  0.7561462E-02  0.1186597E+00
         -1   -1    0    0    0  501 -0.00000000000E+00  0.00000000000E+00  0.35306643716E+03  0.35306643716E+03  0.00000000000E+00 0.  1.
          1   -1    0    0  501    0  0.00000000000E+00 -0.00000000000E+00 -0.90722557665E+02  0.90722557665E+02  0.00000000000E+00 0. -1.
         23    2    1    2    0    0 -0.43633229724E+02 -0.12375732686E+03  0.52091440390E+02  0.16616862583E+03  0.87628530513E+02 0.  0.
          5    1    1    2  502    0  0.83123174012E+02  0.66284388451E+02  0.93899980030E+02  0.14190757858E+03  0.41800000000E+01 0.  1.
         -5    1    1    2    0  502 -0.39489944288E+02  0.57472938408E+02  0.11635245908E+03  0.13571279042E+03  0.41800000000E+01 0.  1.
        -11    1    3    3    0    0 -0.30001757950E+02 -0.81557562516E+01 -0.11954895193E+02  0.33309778733E+02  0.00000000000E+00 0.  1.
         11    1    3    3    0    0 -0.13631471774E+02 -0.11560157061E+03  0.64046335583E+02  0.13285884709E+03  0.00000000000E+00 0. -1.
</event>
<event>
 7    1  0.6145388E-006  0.1026083E+03  0.7561462E-02  0.1274905E+00
          2   -1    0    0  501    0  0.00000000000E+00  0.00000000000E+00  0.63270192691E+02  0.63270192691E+02  0.00000000000E+00 0. -1.
         -2   -1    0    0    0  501 -0.00000000000E+00 -0.00000000000E+00 -0.37486648334E+03  0.37486648334E+03  0.00000000000E+00 0.  1.
         23    2    1    2    0    0  0.35227417358E+02 -0.21635261001E+02 -0.19257139104E+00  0.10001188074E+03  0.91067468138E+02 0.  0.
          5    1    1    2  502    0 -0.73896959140E+02 -0.15788822166E+02 -0.15138716766E+03  0.16925009427E+03  0.41800000000E+01 0.  1.
         -5    1    1    2    0  502  0.38669541782E+02  0.37424083167E+02 -0.16001655160E+03  0.16887470103E+03  0.41800000000E+01 0.  1.
        -11    1    3    3    0    0  0.35984423549E+02 -0.41928698345E+02  0.30573697631E+02  0.63147806533E+02  0.00000000000E+00 0. -1.
         11    1    3    3    0    0 -0.75700619123E+00  0.20293437344E+02 -0.30766269022E+02  0.36864074207E+02  0.00000000000E+00 0.  1.
</event>
<event>
 7    1  0.6145388E-006  0.1077024E+03  0.7561462E-02  0.1264885E+00
         -1   -1    0    0    0  501 -0.00000000000E+00  0.00000000000E+00  0.34405959066E+03  0.34405959066E+03  0.00000000000E+00 0.  1.
          1   -1    0    0  501    0  0.00000000000E+00 -0.00000000000E+00 -0.48757742566E+02  0.48757742566E+02  0.00000000000E+00 0. -1.
         23    2    1    2    0    0 -0.54140615629E+02  0.26310547344E+02  0.64544050564E+02  0.12352281873E+03  0.86420490171E+02 0.  0.
          5    1    1    2  502    0 -0.26252891409E+02  0.16552088352E+00  0.35784697734E+01  0.26823861586E+02  0.41800000000E+01 0.  1.
         -5    1    1    2    0  502  0.80393507037E+02 -0.26476068228E+02  0.22717932775E+03  0.24247065291E+03  0.41800000000E+01 0.  1.
        -11    1    3    3    0    0 -0.75446053576E+02  0.77909521936E+01  0.38256946201E+02  0.84949395930E+02  0.00000000000E+00 0.  1.
         11    1    3    3    0    0  0.21305437947E+02  0.18519595151E+02  0.26287104362E+02  0.38573422799E+02  0.00000000000E+00 0. -1.
</event>
<event>
 7    1  0.6145388E-006  0.1287249E+03  0.7561462E-02  0.1229360E+00
         -1   -1    0    0    0  501 -0.00000000000E+00  0.00000000000E+00  0.11076918628E+03  0.11076918628E+03  0.00000000000E+00 0.  1.
          1   -1    0    0  501    0  0.00000000000E+00 -0.00000000000E+00 -0.19741993415E+03  0.19741993415E+03  0.00000000000E+00 0. -1.
         23    2    1    2    0    0  0.37856983220E+02  0.91715024536E+02 -0.52910437762E+02  0.14500506930E+03  0.91554130411E+02 0.  0.
          5    1    1    2  502    0 -0.66966919190E+02 -0.95972990359E+02 -0.52191782687E+02  0.12820623122E+03  0.41800000000E+01 0. -1.
         -5    1    1    2    0  502  0.29109935970E+02  0.42579658230E+01  0.18451472580E+02  0.34977819908E+02  0.41800000000E+01 0. -1.
        -11    1    3    3    0    0 -0.11213116495E+02  0.86714171759E+01  0.19701883485E+02  0.24271210729E+02  0.00000000000E+00 0.  1.
         11    1    3    3    0    0  0.49070099715E+02  0.83043607360E+02 -0.72612321248E+02  0.12073385858E+03  0.00000000000E+00 0. -1.
</event>
<event>
 7    1  0.6145388E-006  0.2212652E+03  0.7561462E-02  0.1132943E+00
          2   -1    0    0  501    0  0.00000000000E+00  0.00000000000E+00  0.36783022829E+03  0.36783022829E+03  0.00000000000E+00 0.  1.
         -2   -1    0    0    0  501 -0.00000000000E+00 -0.00000000000E+00 -0.14965437328E+03  0.14965437328E+03  0.00000000000E+00 0. -1.
         23    2    1    2    0    0 -0.17638070519E+03  0.98482819698E+02  0.16197676110E+03  0.27332253441E+03  0.87519813427E+02 0.  0.
          5    1    1    2  502    0  0.16397282774E+02 -0.71913311181E+02  0.30432685903E+02  0.79900037413E+02  0.41800000000E+01 0.  1.
         -5    1    1    2    0  502  0.15998342242E+03 -0.26569508517E+02  0.25766408011E+02  0.16426202974E+03  0.41800000000E+01 0.  1.
        -11    1    3    3    0    0 -0.50819351171E+02  0.75113885301E+01  0.33155210659E+01  0.51478345846E+02  0.00000000000E+00 0. -1.
         11    1    3    3    0    0 -0.12556135402E+03  0.90971431168E+02  0.15866124003E+03  0.22184418857E+03  0.00000000000E+00 0.  1.
</event>
<event>
 7    1  0.6145388E-006  0.2471120E+03  0.7561462E-02  0.1115144E+00
         -2   -1    0    0    0  501 -0.00000000000E+00  0.00000000000E+00  0.14041179389E+03  0.14041179389E+03  0.00000000000E+00 0.  1.
          2   -1    0    0  501    0  0.00000000000E+00 -0.00000000000E+00 -0.82092536439E+03  0.82092536439E+03  0.00000000000E+00 0. -1.
         23    2    1    2    0    0  0.17472513895E+03  0.15380978272E+03 -0.64882126493E+03  0.69517944322E+03  0.90106054253E+02 0.  0.
          5    1    1    2  502    0 -0.49582918004E+02 -0.12168884129E+03 -0.37650543463E+02  0.13675407005E+03  0.41800000000E+01 0.  1.
         -5    1    1    2    0  502 -0.12514222095E+03 -0.32120941427E+02  0.59582378928E+01  0.12940364500E+03  0.41800000000E+01 0.  1.
        -11    1    3    3    0    0  0.11391027868E+03  0.11154221051E+03 -0.31270958375E+03  0.35100498584E+03  0.00000000000E+00 0. -1.
         11    1    3    3    0    0  0.60814860271E+02  0.42267572210E+02 -0.33611168118E+03  0.34417445739E+03  0.00000000000E+00 0.  1.
</event>
<event>
 7    1  0.6145388E-006  0.8403314E+02  0.7561462E-02  0.1317981E+00
          2   -1    0    0  501    0  0.00000000000E+00  0.00000000000E+00  0.42032480184E+02  0.42032480184E+02  0.00000000000E+00 0. -1.
         -2   -1    0    0    0  501 -0.00000000000E+00 -0.00000000000E+00 -0.13300365343E+04  0.13300365343E+04  0.00000000000E+00 0.  1.
         23    2    1    2    0    0  0.13896661530E+02  0.60708163242E+01 -0.14392789139E+02  0.91742514016E+02  0.89328408059E+02 0.  0.
          5    1    1    2  502    0  0.44536116878E+02 -0.19446429560E+02 -0.23658045675E+03  0.24155623412E+03  0.41800000000E+01 0. -1.
         -5    1    1    2    0  502 -0.58432778408E+02  0.13375613236E+02 -0.10370308083E+04  0.10387702664E+04  0.41800000000E+01 0.  1.
        -11    1    3    3    0    0  0.33353005020E+02 -0.90504022927E+01  0.26806158659E+02  0.43736745050E+02  0.00000000000E+00 0. -1.
         11    1    3    3    0    0 -0.19456343489E+02  0.15121218617E+02 -0.41198947797E+02  0.48005768966E+02  0.00000000000E+00 0.  1.
</event>
<event>
 7    1  0.6145388E-006  0.1075046E+03  0.7561462E-02  0.1265262E+00
          1   -1    0    0  501    0  0.00000000000E+00  0.00000000000E+00  0.32098443075E+03  0.32098443075E+03  0.00000000000E+00 0. -1.
         -1   -1    0    0    0  501 -0.00000000000E+00 -0.00000000000E+00 -0.51736641323E+02  0.51736641323E+02  0.00000000000E+00 0.  1.
         23    2    1    2    0    0 -0.67016694248E+02  0.13488480364E+02  0.12240914681E+03  0.16806840232E+03  0.92681239875E+02 0.  0.
          5    1    1    2  502    0  0.99103825565E+02 -0.20893131890E+02  0.13622543267E+03  0.16980262692E+03  0.41800000000E+01 0.  1.
         -5    1    1    2    0  502 -0.32087131317E+02  0.74046515254E+01  0.10613209947E+02  0.34850042837E+02  0.41800000000E+01 0.  1.
        -11    1    3    3    0    0 -0.12085126846E+02 -0.14433909612E+02  0.10114465550E+03  0.10288162797E+03  0.00000000000E+00 0. -1.
         11    1    3    3    0    0 -0.54931567402E+02  0.27922389976E+02  0.21264491307E+02  0.65186774347E+02  0.00000000000E+00 0.  1.
</event>
<event>
 7    1  0.6145388E-006  0.1307870E+03  0.7561462E-02  0.1226293E+00
          1   -1    0    0  501    0  0.00000000000E+00  0.00000000000E+00  0.10241889251E+03  0.10241889251E+03  0.00000000000E+00 0. -1.
         -1   -1    0    0    0  501 -0.00000000000E+00 -0.00000000000E+00 -0.33866983489E+03  0.33866983489E+03  0.00000000000E+00 0.  1.
         23    2    1    2    0    0  0.36268903685E+02  0.96436459044E+02  0.20049962189E+02  0.13784925680E+03  0.89358785850E+02 0.  0.
          5    1    1    2  502    0  0.11200329570E+02  0.91114649075E+01 -0.13388417188E+03  0.13472531334E+03  0.41800000000E+01 0.  1.
         -5    1    1    2    0  502 -0.47469233255E+02 -0.10554792395E+03 -0.12241673269E+03  0.16851415726E+03  0.41800000000E+01 0.  1.
        -11    1    3    3    0    0  0.45739523561E+02  0.14109534666E+02  0.26529304363E+02  0.54726474161E+02  0.00000000000E+00 0. -1.
         11    1    3    3    0    0 -0.94706198759E+01  0.82326924378E+02 -0.64793421742E+01  0.83122782638E+02  0.00000000000E+00 0.  1.
</event>
<event>
 7    1  0.6145388E-006  0.1588831E+03  0.7561462E-02  0.1189964E+00
          2   -1    0    0  501    0  0.00000000000E+00  0.00000000000E+00  0.42819675608E+03  0.42819675608E+03  0.00000000000E+00 0. -1.
         -2   -1    0    0    0  501 -0.00000000000E+00 -0.00000000000E+00 -0.94855319269E+02  0.94855319269E+02  0.00000000000E+00 0.  1.
         23    2    1    2    0    0  0.98565282523E+02  0.61880172057E+02  0.31567775300E+03  0.35117797733E+03  0.10064421200E+03 0.  0.
          5    1    1    2  502    0  0.11702260399E+02  0.22030349122E+02  0.21496823622E+02  0.33194352031E+02  0.41800000000E+01 0. -1.
         -5    1    1    2    0  502 -0.11026754292E+03 -0.83910521179E+02 -0.38331398107E+01  0.13867974599E+03  0.41800000000E+01 0. -1.
        -11    1    3    3    0    0 -0.16675328359E+02  0.29924341778E+02  0.72416549050E+02  0.80110482355E+02  0.00000000000E+00 0.  1.
         11    1    3    3    0    0  0.11524061088E+03  0.31955830279E+02  0.24326120395E+03  0.27106749497E+03  0.00000000000E+00 0. -1.
</event>
<event>
 7    1  0.6145388E-006  0.1072808E+03  0.7561462E-02  0.1265690E+00
          2   -1    0    0  501    0  0.00000000000E+00  0.00000000000E+00  0.42906275010E+03  0.42906275010E+03  0.00000000000E+00 0. -1.
         -2   -1    0    0    0  501 -0.00000000000E+00 -0.00000000000E+00 -0.35291189158E+02  0.35291189158E+02  0.00000000000E+00 0.  1.
         23    2    1    2    0    0 -0.35642019666E+02  0.41468508857E+02  0.14227435606E+03  0.17819166902E+03  0.92305404623E+02 0.  0.
          5    1    1    2  502    0 -0.47135681023E+01  0.40125901611E+02  0.11571875618E+03  0.12264015915E+03  0.41800000000E+01 0. -1.
         -5    1    1    2    0  502  0.40355587768E+02 -0.81594410467E+02  0.13577844871E+03  0.16352211109E+03  0.41800000000E+01 0. -1.
        -11    1    3    3    0    0  0.64910367118E+01 -0.12659302741E+02 -0.55166221184E+01  0.15258591779E+02  0.00000000000E+00 0.  1.
         11    1    3    3    0    0 -0.42133056378E+02  0.54127811597E+02  0.14779097818E+03  0.16293307724E+03  0.00000000000E+00 0. -1.
</event>
<event>
 7    1  0.6145388E-006  0.8587213E+02  0.7561462E-02  0.1313167E+00
          2   -1    0    0  501    0  0.00000000000E+00  0.00000000000E+00  0.22040631617E+03  0.22040631617E+03  0.00000000000E+00 0. -1.
         -2   -1    0    0    0  501 -0.00000000000E+00 -0.00000000000E+00 -0.79561115190E+02  0.79561115190E+02  0.00000000000E+00 0.  1.
         23    2    1    2    0    0  0.36998980569E+01  0.19333002856E+02  0.14589499217E+03  0.17323898738E+03  0.91317817339E+02 0.  0.
          5    1    1    2  502    0  0.37334104861E+02  0.80851503973E+01 -0.47779729179E+02  0.61315413749E+02  0.41800000000E+01 0.  1.
         -5    1    1    2    0  502 -0.41034002918E+02 -0.27418153254E+02  0.42729937987E+02  0.65413030229E+02  0.41800000000E+01 0.  1.
        -11    1    3    3    0    0 -0.29110758017E+02 -0.17890605580E+02  0.99894930137E+02  0.10557701960E+03  0.00000000000E+00 0. -1.
         11    1    3    3    0    0  0.32810656074E+02  0.37223608437E+02  0.46000062032E+02  0.67661967781E+02  0.00000000000E+00 0.  1.
</event>
<event>
 7    1  0.6145388E-006  0.8161519E+02  0.7561462E-02  0.1324529E+00
         -4   -1    0    0    0  501 -0.00000000000E+00  0.00000000000E+00  0.88442405939E+02  0.88442405939E+02  0.00000000000E+00 0.  1.
          4   -1    0    0  501    0  0.00000000000E+00 -0.00000000000E+00 -0.12067818439E+03  0.12067818439E+03  0.00000000000E+00 0. -1.
         23    2    1    2    0    0 -0.39927059325E+01 -0.30650678335E+02 -0.19409094655E+02  0.79631375204E+02  0.70774551772E+02 0.  0.
          5    1    1    2  502    0 -0.45479978561E+02 -0.15566752585E+02 -0.33310206603E+02  0.58632708447E+02  0.41800000000E+01 0.  1.
         -5    1    1    2    0  502  0.49472684493E+02  0.46217430920E+02  0.20483522809E+02  0.70856506677E+02  0.41800000000E+01 0.  1.
        -11    1    3    3    0    0 -0.15431476675E+02 -0.11121675034E+01 -0.39294666182E+02  0.42230772894E+02  0.00000000000E+00 0. -1.
         11    1    3    3    0    0  0.11438770742E+02 -0.29538510831E+02  0.19885571526E+02  0.37400602310E+02  0.00000000000E+00 0.  1.
</event>
<event>
 7    1  0.6145388E-006  0.1007842E+03  0.7561462E-02  0.1278655E+00
          1   -1    0    0  501    0  0.00000000000E+00  0.00000000000E+00  0.49088444905E+03  0.49088444905E+03  0.00000000000E+00 0. -1.
         -1   -1    0    0    0  501 -0.00000000000E+00 -0.00000000000E+00 -0.39865322056E+02  0.39865322056E+02  0.00000000000E+00 0.  1.
         23    2    1    2    0    0  0.21300709514E+02 -0.22246446306E+02  0.36194426754E+03  0.37412767402E+03  0.89550204142E+02 0.  0.
          5    1    1    2  502    0 -0.66843958115E+02  0.25690349221E+02  0.84026530728E+02  0.11048094427E+03  0.41800000000E+01 0.  1.
         -5    1    1    2    0  502  0.45543248601E+02 -0.34439029143E+01  0.50483287196E+01  0.46141152817E+02  0.41800000000E+01 0.  1.
        -11    1    3    3    0    0  0.50077806626E+02 -0.47725477726E+01  0.29430054922E+03  0.29856888183E+03  0.00000000000E+00 0. -1.
         11    1    3    3    0    0 -0.28777097112E+02 -0.17473898534E+02  0.67643718329E+02  0.75558792192E+02  0.00000000000E+00 0.  1.
</event>
<event>
 7    1  0.6145388E-006  0.1329348E+03  0.7561462E-02  0.1223165E+00
         -2   -1    0    0    0  501 -0.00000000000E+00  0.00000000000E+00  0.66193893908E+02  0.66193893908E+02  0.00000000000E+00 0.  1.
          2   -1    0    0  501    0  0.00000000000E+00 -0.00000000000E+00 -0.68248351166E+03  0.68248351166E+03  0.00000000000E+00 0. -1.
         23    2    1    2    0    0  0.11164105177E+02 -0.10802780965E+03 -0.46343518657E+03  0.48468400340E+03  0.91387997581E+02 0.  0.
          5    1    1    2  502    0 -0.36401841837E+02  0.82231947391E+02 -0.19109984329E+03  0.21124348455E+03  0.41800000000E+01 0. -1.
         -5    1    1    2    0  502  0.25237736660E+02  0.25795862258E+02  0.38245412104E+02  0.52749917615E+02  0.41800000000E+01 0.  1.
        -11    1    3    3    0    0 -0.35613846057E+02 -0.22782559574E+02 -0.18464587942E+03  0.18942410575E+03  0.00000000000E+00 0. -1.
         11    1    3    3    0    0  0.46777951234E+02 -0.85245250075E+02 -0.27878930715E+03  0.29525989765E+03  0.00000000000E+00 0.  1.
</event>
<event>
 7    1  0.6145388E-006  0.1021582E+03  0.7561462E-02  0.1275822E+00
          2   -1    0    0  501    0  0.00000000000E+00  0.00000000000E+00  0.18645110067E+02  0.18645110067E+02  0.00000000000E+00 0. -1.
         -2   -1    0    0    0  501 -0.00000000000E+00 -0.00000000000E+00 -0.96961353773E+03  0.96961353773E+03  0.00000000000E+00 0.  1.
         23    2    1    2    0    0 -0.45319871104E+02  0.22390671951E+02 -0.19915352870E+03  0.22443218459E+03  0.90290888679E+02 0.  0.
          5    1    1    2  502    0  0.55209182488E+01 -0.59024509529E+02 -0.18250488187E+03  0.19193717089E+03  0.41800000000E+01 0. -1.
         -5    1    1    2    0  502  0.39798952856E+02  0.36633837577E+02 -0.56931001709E+03  0.57188929232E+03  0.41800000000E+01 0. -1.
        -11    1    3    3    0    0 -0.46038493647E+01  0.44203478586E+02 -0.43961848936E+02  0.62512295670E+02  0.00000000000E+00 0. -1.
         11    1    3    3    0    0 -0.40716021740E+02 -0.21812806634E+02 -0.15519167977E+03  0.16191988892E+03  0.00000000000E+00 0.  1.
</event>
<event>
 7    1  0.6145388E-006  0.1478284E+03  0.7561462E-02  0.1203167E+00
         -1   -1    0    0    0  501 -0.00000000000E+00  0.00000000000E+00  0.16352015150E+03  0.16352015150E+03  0.00000000000E+00 0.  1.
          1   -1    0    0  501    0  0.00000000000E+00 -0.00000000000E+00 -0.27142426363E+03  0.27142426363E+03  0.00000000000E+00 0. -1.
         23    2    1    2    0    0 -0.94593046875E+02 -0.64055981958E+02 -0.19547487907E+03  0.24419808632E+03  0.91494610094E+02 0.  0.
          5    1    1    2  502    0 -0.25111443762E+02  0.37593653849E+02  0.34830097734E+02  0.57223033175E+02  0.41800000000E+01 0.  1.
         -5    1    1    2    0  502  0.11970449064E+03  0.26462328109E+02  0.52740669206E+02  0.13352329563E+03  0.41800000000E+01 0.  1.
        -11    1    3    3    0    0 -0.48938648602E+02 -0.65677705523E+02 -0.17678965723E+03  0.19484130782E+03  0.00000000000E+00 0. -1.
         11    1    3    3    0    0 -0.45654398273E+02  0.16217235650E+01 -0.18685221835E+02  0.49356778502E+02  0.00000000000E+00 0.  1.
</event>
<event>
 7    1  0.6145388E-006  0.1816788E+03  0.7561462E-02  0.1166188E+00
          2   -1    0    0  501    0  0.00000000000E+00  0.00000000000E+00  0.71408807434E+03  0.71408807434E+03  0.00000000000E+00 0. -1.
         -2   -1    0    0    0  501 -0.00000000000E+00 -0.00000000000E+00 -0.54521323412E+02  0.54521323412E+02  0.00000000000E+00 0.  1.
         23    2    1    2    0    0  0.67428264485E+02 -0.14972464518E+03  0.31535269292E+03  0.36724357414E+03  0.91959129985E+02 0.  0.
          5    1    1    2  502    0  0.74696272188E+01  0.11680375792E+03  0.14797390151E+03  0.18871317157E+03  0.41800000000E+01 0. -1.
         -5    1    1    2    0  502 -0.74897891703E+02  0.32920887253E+02  0.19624015649E+03  0.21265265204E+03  0.41800000000E+01 0. -1.
        -11    1    3    3    0    0  0.24799538606E+02 -0.62354956293E+02  0.47281647809E+02  0.82089657746E+02  0.00000000000E+00 0.  1.
         11    1    3    3    0    0  0.42628725879E+02 -0.87369688885E+02  0.26807104511E+03  0.28515391639E+03  0.00000000000E+00 0. -1.
</event>
<event>
 7    1  0.6145388E-006  0.8624558E+02  0.7561462E-02  0.1312207E+00
          1   -1    0    0  501    0  0.00000000000E+00  0.00000000000E+00  0.35597470620E+03  0.35597470620E+03  0.00000000000E+00 0. -1.
         -1   -1    0    0    0  501 -0.00000000000E+00 -0.00000000000E+00 -0.44021230457E+02  0.44021230457E+02  0.00000000000E+00 0.  1.
         23    2    1    2    0    0  0.32751026177E+02  0.88746211016E+00  0.22464869889E+03  0.24397625543E+03  0.89352996581E+02 0.  0.
          5    1    1    2  502    0  0.37832675719E+02 -0.13300587725E+02  0.72145591270E+02  0.82647902125E+02  0.41800000000E+01 0.  1.
         -5    1    1    2    0  502 -0.70583701896E+02  0.12413125615E+02  0.15159185587E+02  0.73371779102E+02  0.41800000000E+01 0.  1.
        -11    1    3    3    0    0  0.29580897709E+02  0.23356999485E+02  0.21666784458E+03  0.21992165380E+03  0.00000000000E+00 0. -1.
         11    1    3    3    0    0  0.31701284678E+01 -0.22469537374E+02  0.79808543083E+01  0.24054601635E+02  0.00000000000E+00 0.  1.
</event>
<event>
 7    1  0.6145388E-006  0.2955041E+03  0.7561462E-02  0.1087510E+00
         -1   -1    0    0    0  501 -0.00000000000E+00  0.00000000000E+00  0.11140524181E+03  0.11140524181E+03  0.00000000000E+00 0.  1.
          1   -1    0    0  501    0  0.00000000000E+00 -0.00000000000E+00 -0.11067270084E+04  0.11067270084E+04  0.00000000000E+00 0. -1.
         23    2    1    2    0    0 -0.19636758230E+03 -0.20329714642E+03 -0.79703819360E+03  0.85090949731E+03  0.94271593991E+02 0.  0.
          5    1    1    2  502    0  0.63705950567E+02  0.13145049531E+03 -0.14838482537E+03  0.20826235775E+03  0.41800000000E+01 0.  1.
         -5    1    1    2    0  502  0.13266163173E+03  0.71846651113E+02 -0.49898747609E+02  0.15896039514E+03  0.41800000000E+01 0.  1.
        -11    1    3    3    0    0 -0.62207396644E+02 -0.12235940381E+03 -0.44228045953E+03  0.46309133956E+03  0.00000000000E+00 0. -1.
         11    1    3    3    0    0 -0.13416018566E+03 -0.80937742611E+02 -0.35475773408E+03  0.38781815775E+03  0.00000000000E+00 0.  1.
</event>
<event>
 7    1  0.6145388E-006  0.1027889E+03  0.7561462E-02  0.1274538E+00
         -1   -1    0    0    0  501 -0.00000000000E+00  0.00000000000E+00  0.32813527297E+02  0.32813527297E+02  0.00000000000E+00 0.  1.
          1   -1    0    0  501    0  0.00000000000E+00 -0.00000000000E+00 -0.62423528516E+03  0.62423528516E+03  0.00000000000E+00 0. -1.
         23    2    1    2    0    0 -0.31483278945E+02 -0.63086228317E+02 -0.40893641672E+03  0.42484386225E+03  0.91061766510E+02 0.  0.
          5    1    1    2  502    0  0.24374388275E+02 -0.22273671496E+01  0.11492115280E+02  0.27360794612E+02  0.41800000000E+01 0. -1.
         -5    1    1    2    0  502  0.71088906696E+01  0.65313595466E+02 -0.19397745643E+03  0.20484415560E+03  0.41800000000E+01 0. -1.
        -11    1    3    3    0    0 -0.25337527876E+02  0.19579769828E+02 -0.12692287419E+03  0.13089986133E+03  0.00000000000E+00 0. -1.
         11    1    3    3    0    0 -0.61457510685E+01 -0.82665998145E+02 -0.28201354253E+03  0.29394400092E+03  0.00000000000E+00 0.  1.
</event>
<event>
 7    1  0.6145388E-006  0.7802300E+02  0.7561462E-02  0.1334757E+00
         -2   -1    0    0    0  501 -0.00000000000E+00  0.00000000000E+00  0.12451634376E+03  0.12451634376E+03  0.00000000000E+00 0.  1.
          2   -1    0    0  501    0  0.00000000000E+00 -0.00000000000E+00 -0.99416151989E+02  0.99416151989E+02  0.00000000000E+00 0. -1.
         23    2    1    2    0    0  0.71764839067E+01  0.21245360870E+02 -0.22774842857E+02  0.88124645984E+02  0.82124250273E+02 0.  0.
          5    1    1    2  502    0 -0.61018589153E+02 -0.19706191267E+02  0.50486395512E+02  0.81718729360E+02  0.41800000000E+01 0.  1.
         -5    1    1    2    0  502  0.53842105246E+02 -0.15391696022E+01 -0.26113608853E+01  0.54089120404E+02  0.41800000000E+01 0.  1.
        -11    1    3    3    0    0 -0.10086115015E+02 -0.37799513396E+00  0.28294903324E+02  0.30041207541E+02  0.00000000000E+00 0.  1.
         11    1    3    3    0    0  0.17262598922E+02  0.21623356003E+02 -0.51069746181E+02  0.58083438443E+02  0.00000000000E+00 0. -1.
</event>
<event>
 7    1  0.6682673E-006  0.3236178E+03  0.7561462E-02  0.1073996E+00
         -2   -1    0    0    0  501 -0.00000000000E+00  0.00000000000E+00  0.46364494500E+03  0.46364494500E+03  0.00000000000E+00 0.  1.
          2   -1    0    0  501    0  0.00000000000E+00 -0.00000000000E+00 -0.24992584155E+03  0.24992584155E+03  0.00000000000E+00 0. -1.
         23    2    1    2    0    0  0.28981757057E+03  0.11430674705E+03  0.18450813406E+02  0.32519332512E+03  0.91378386676E+02 0.  0.
          5    1    1    2  502    0  0.12370420684E+02 -0.63665846512E+01  0.11831693922E+02  0.18735583500E+02  0.41800000000E+01 0. -1.
         -5    1    1    2    0  502 -0.30218799126E+03 -0.10794016240E+03  0.18343659613E+03  0.36964187793E+03  0.41800000000E+01 0. -1.
        -11    1    3    3    0    0  0.91697977256E+02  0.42434527238E+02  0.48900173939E+02  0.11225165988E+03  0.00000000000E+00 0. -1.
         11    1    3    3    0    0  0.19811959332E+03  0.71872219817E+02 -0.30449360533E+02  0.21294166524E+03  0.00000000000E+00 0.  1.
</event>
<event>
 7    1  0.6145388E-006  0.1008125E+03  0.7561462E-02  0.1278597E+00
          3   -1    0    0  501    0  0.00000000000E+00  0.00000000000E+00  0.96463478690E+02  0.96463478690E+02  0.00000000000E+00 0. -1.
         -3   -1    0    0    0  501 -0.00000000000E+00 -0.00000000000E+00 -0.14243288409E+03  0.14243288409E+03  0.00000000000E+00 0.  1.
         23    2    1    2    0    0  0.33903662936E+01  0.39998101197E+02 -0.35787608024E+02  0.10713165904E+03  0.92655797436E+02 0.  0.
          5    1    1    2  502    0  0.26784962245E+02 -0.70051792418E+02 -0.34374892130E+02  0.82606255407E+02  0.41800000000E+01 0.  1.
         -5    1    1    2    0  502 -0.30175328539E+02  0.30053691221E+02  0.24193094753E+02  0.49158448329E+02  0.41800000000E+01 0.  1.
        -11    1    3    3    0    0 -0.33607983263E+02  0.74130282642E+01  0.13916806487E+02  0.37123133351E+02  0.00000000000E+00 0. -1.
         11    1    3    3    0    0  0.36998349556E+02  0.32585072933E+02 -0.49704414511E+02  0.70008525694E+02  0.00000000000E+00 0.  1.
</event>
<event>
 7    1  0.6145388E-006  0.1131629E+03  0.7561462E-02  0.1254822E+00
         -2   -1    0    0    0  501 -0.00000000000E+00  0.00000000000E+00  0.38572164017E+03  0.38572164017E+03  0.00000000000E+00 0.  1.
          2   -1    0    0  501    0  0.00000000000E+00 -0.00000000000E+00 -0.80228284196E+02  0.80228284196E+02  0.00000000000E+00 0. -1.
         23    2    1    2    0    0 -0.69891501323E+02 -0.55242916642E+02  0.43492175383E+00  0.12442359439E+03  0.86858735242E+02 0.  0.
          5    1    1    2  502    0  0.83735180066E+02  0.10224913696E+02  0.26932789774E+03  0.28226072724E+03  0.41800000000E+01 0. -1.
         -5    1    1    2    0  502 -0.13843678743E+02  0.45018002946E+02  0.35730536478E+02  0.59265602733E+02  0.41800000000E+01 0. -1.
        -11    1    3    3    0    0 -0.53821961641E+02 -0.57025123389E+02  0.35299480941E+02  0.85992567162E+02  0.00000000000E+00 0.  1.
         11    1    3    3    0    0 -0.16069539682E+02  0.17822067469E+01 -0.34864559188E+02  0.38431027228E+02  0.00000000000E+00 0. -1.
</event>
<event>
 7    1  0.6145388E-006  0.1381135E+03  0.7561462E-02  0.1215890E+00
         -1   -1    0    0    0  501 -0.00000000000E+00  0.00000000000E+00  0.88416443798E+02  0.88416443798E+02  0.00000000000E+00 0.  1.
          1   -1    0    0  501    0  0.00000000000E+00 -0.00000000000E+00 -0.25153710221E+03  0.25153710221E+03  0.00000000000E+00 0. -1.
         23    2    1    2    0    0 -0.95719052837E+02 -0.28769779570E+02 -0.77872783286E+02  0.15855922631E+03  0.95325865221E+02 0.  0.
          5    1    1    2  502    0 -0.16153739108E+02  0.35573334681E+02  0.19315092537E+01  0.39339656270E+02  0.41800000000E+01 0.  1.
         -5    1    1    2    0  502  0.11187279194E+03 -0.68035551114E+01 -0.87179384382E+02  0.14205466343E+03  0.41800000000E+01 0.  1.
        -11    1    3    3    0    0 -0.80237013827E+01  0.22019804929E+02 -0.47166461847E+02  0.52668080619E+02  0.00000000000E+00 0. -1.
         11    1    3    3    0    0 -0.87695351455E+02 -0.50789584498E+02 -0.30706321439E+02  0.10589114569E+03  0.00000000000E+00 0.  1.
</event>
<event>
 7    1  0.6145388E-006  0.1032019E+03  0.7561462E-02  0.1273703E+00
         -2   -1    0    0    0  501 -0.00000000000E+00  0.00000000000E+00  0.48476622376E+02  0.48476622376E+02  0.00000000000E+00 0.  1.
          2   -1    0    0  501    0  0.00000000000E+00 -0.00000000000E+00 -0.40562308448E+03  0.40562308448E+03  0.00000000000E+00 0. -1.
         23    2    1    2    0    0  0.62530059485E+02  0.29291620727E+01 -0.25472897602E+03  0.28073715785E+03  0.10003955340E+03 0.  0.
          5    1    1    2  502    0 -0.96648707444E+02 -0.22058632895E+02 -0.83644419725E+02  0.12977448627E+03  0.41800000000E+01 0.  1.
         -5    1    1    2    0  502  0.34118647960E+02  0.19129470822E+02 -0.18773066364E+02  0.43588062738E+02  0.41800000000E+01 0.  1.
        -11    1    3    3    0    0  0.43289235929E+02  0.14182673868E+02 -0.25439827307E+03  0.25844455407E+03  0.00000000000E+00 0.  1.
         11    1    3    3    0    0  0.19240823555E+02 -0.11253511796E+02 -0.33070294359E+00  0.22292603779E+02  0.00000000000E+00 0. -1.
</event>
<event>
 7    1  0.6145388E-006  0.1324854E+03  0.7561462E-02  0.1223814E+00
          2   -1    0    0  501    0  0.00000000000E+00  0.00000000000E+00  0.16322064020E+03  0.16322064020E+03  0.00000000000E+00 0. -1.
         -2   -1    0    0    0  501 -0.00000000000E+00 -0.00000000000E+00 -0.14968826482E+03  0.14968826482E+03  0.00000000000E+00 0.  1.
         23    2    1    2    0    0 -0.78645381927E+02  0.75620485064E+02  0.39763831639E+02  0.14486192018E+03  0.86604040041E+02 0.  0.
          5    1    1    2  502    0  0.78398331440E+02 -0.27855975134E+02  0.34929709579E+02  0.90331670717E+02  0.41800000000E+01 0. -1.
         -5    1    1    2    0  502  0.24705048720E+00 -0.47764509930E+02 -0.61161165837E+02  0.77715314124E+02  0.41800000000E+01 0. -1.
        -11    1    3    3    0    0 -0.44269177174E+02 -0.64522397247E+01  0.33063096966E+02  0.55628767972E+02  0.00000000000E+00 0.  1.
         11    1    3    3    0    0 -0.34376204753E+02  0.82072724789E+02  0.67007346731E+01  0.89233152206E+02  0.00000000000E+00 0. -1.
</event>
<event>
 7    1  0.6145388E-006  0.1019495E+03  0.7561462E-02  0.1276249E+00
         -2   -1    0    0    0  501 -0.00000000000E+00  0.00000000000E+00  0.71143430697E+03  0.71143430697E+03  0.00000000000E+00 0.  1.
          2   -1    0    0  501    0  0.00000000000E+00 -0.00000000000E+00 -0.19260453420E+02  0.19260453420E+02  0.00000000000E+00 0. -1.
         23    2    1    2    0    0  0.18691890036E+02  0.41393831886E+01  0.18543587911E+03  0.20839084990E+03  0.93133022135E+02 0.  0.
          5    1    1    2  502    0 -0.71372627673E+02 -0.13852679356E+02  0.29412184460E+03  0.30300343328E+03  0.41800000000E+01 0. -1.
         -5    1    1    2    0  502  0.52680737637E+02  0.97132961677E+01  0.21261612983E+03  0.21930047721E+03  0.41800000000E+01 0. -1.
        -11    1    3    3    0    0  0.47751752090E+02  0.64773913525E+01  0.48440198365E+02  0.68327441369E+02  0.00000000000E+00 0. -1.
         11    1    3    3    0    0 -0.29059862054E+02 -0.23380081639E+01  0.13699568075E+03  0.14006340853E+03  0.00000000000E+00 0.  1.
</event>
<event>
 7    1  0.6145388E-006  0.1032558E+03  0.7561462E-02  0.1273595E+00
          3   -1    0    0  501    0  0.00000000000E+00  0.00000000000E+00  0.25210084813E+03  0.25210084813E+03  0.00000000000E+00 0. -1.
         -3   -1    0    0    0  501 -0.00000000000E+00 -0.00000000000E+00 -0.61664547659E+02  0.61664547659E+02  0.00000000000E+00 0.  1.
         23    2    1    2    0    0  0.23452470174E+02  0.34096137355E+02  0.15720967442E+03  0.18683882220E+03  0.92093967272E+02 0.  0.
          5    1    1    2  502    0 -0.58800090231E+02  0.89667719826E+01  0.38236727452E+02  0.70833419636E+02  0.41800000000E+01 0. -1.
         -5    1    1    2    0  502  0.35347620058E+02 -0.43062909337E+02 -0.50101014077E+01  0.56093153954E+02  0.41800000000E+01 0.  1.
        -11    1    3    3    0    0  0.27656734484E+01 -0.26676281640E+02  0.89936186964E+02  0.93849830460E+02  0.00000000000E+00 0.  1.
         11    1    3    3    0    0  0.20686796725E+02  0.60772418995E+02  0.67273487460E+02  0.92988991737E+02  0.00000000000E+00 0. -1.
</event>
<event>
 7    1  0.6145388E-006  0.2811770E+03  0.7561462E-02  0.1095048E+00
          1   -1    0    0  501    0  0.00000000000E+00  0.00000000000E+00  0.86810834542E+03  0.86810834542E+03  0.00000000000E+00 0. -1.
         -1   -1    0    0    0  501 -0.00000000000E+00 -0.00000000000E+00 -0.99653334601E+02  0.99653334601E+02  0.00000000000E+00 0.  1.
         23    2    1    2    0    0 -0.99035109084E+02  0.25138060972E+03  0.31154601193E+03  0.42240486853E+03  0.91459234788E+02 0.  0.
          5    1    1    2  502    0  0.24781683634E+02 -0.15458860612E+03  0.15793484636E+03  0.22242449748E+03  0.41800000000E+01 0. -1.
         -5    1    1    2    0  502  0.74253425450E+02 -0.96792003598E+02  0.29897415253E+03  0.32293231401E+03  0.41800000000E+01 0. -1.
        -11    1    3    3    0    0  0.11506577202E+02  0.72381416534E+02  0.61890035794E+02  0.95926259747E+02  0.00000000000E+00 0.  1.
         11    1    3    3    0    0 -0.11054168629E+03  0.17899919319E+03  0.24965597614E+03  0.32647860878E+03  0.00000000000E+00 0. -1.
</event>
<event>
 7    1  0.6145388E-006  0.1085694E+03  0.7561462E-02  0.1263242E+00
         -1   -1    0    0    0  501 -0.00000000000E+00  0.00000000000E+00  0.90858711447E+02  0.90858711447E+02  0.00000000000E+00 0.  1.
          1   -1    0    0  501    0  0.00000000000E+00 -0.00000000000E+00 -0.21673219723E+03  0.21673219723E+03  0.00000000000E+00 0. -1.
         23    2    1    2    0    0  0.72598812878E+02 -0.31847081393E+01 -0.11467185819E+03  0.16249393154E+03  0.89296767753E+02 0.  0.
          5    1    1    2  502    0 -0.73992108549E+02 -0.33191416070E+02 -0.47038544209E+02  0.93843482830E+02  0.41800000000E+01 0.  1.
         -5    1    1    2    0  502  0.13932956711E+01  0.36376124209E+02  0.35836916618E+02  0.51253494300E+02  0.41800000000E+01 0.  1.
        -11    1    3    3    0    0  0.43507085862E+02  0.31729075281E+02 -0.19932836730E+02  0.57418801089E+02  0.00000000000E+00 0.  1.
         11    1    3    3    0    0  0.29091727016E+02 -0.34913783420E+02 -0.94739021456E+02  0.10507513045E+03  0.00000000000E+00 0. -1.
</event>
<event>
 7    1  0.6145388E-006  0.1038540E+03  0.7561462E-02  0.1272394E+00
         -2   -1    0    0    0  501 -0.00000000000E+00  0.00000000000E+00  0.19208529631E+02  0.19208529631E+02  0.00000000000E+00 0. -1.
          2   -1    0    0  501    0  0.00000000000E+00 -0.00000000000E+00 -0.70214903980E+03  0.70214903980E+03  0.00000000000E+00 0.  1.
         23    2    1    2    0    0 -0.32605687101E+02 -0.23688409620E+02 -0.31229093995E+03  0.32809039380E+03  0.92159664436E+02 0.  0.
          5    1    1    2  502    0  0.67519296667E+02  0.35638755893E+01 -0.32605067503E+03  0.33301362092E+03  0.41800000000E+01 0.  1.
         -5    1    1    2    0  502 -0.34913609566E+02  0.20124534030E+02 -0.44598895191E+02  0.60253554710E+02  0.41800000000E+01 0.  1.
        -11    1    3    3    0    0 -0.56058225426E+02  0.11439702547E+02 -0.15482444670E+03  0.16505756792E+03  0.00000000000E+00 0.  1.
         11    1    3    3    0    0  0.23452538325E+02 -0.35128112166E+02 -0.15746649325E+03  0.16303282588E+03  0.00000000000E+00 0. -1.
</event>
<event>
 7    1  0.6145388E-006  0.2050999E+03  0.7561462E-02  0.1145506E+00
         -2   -1    0    0    0  501 -0.00000000000E+00  0.00000000000E+00  0.49366818084E+02  0.49366818084E+02  0.00000000000E+00 0. -1.
          2   -1    0    0  501    0  0.00000000000E+00 -0.00000000000E+00 -0.10240488265E+04  0.10240488265E+04  0.00000000000E+00 0.  1.
         23    2    1    2    0    0  0.18118440400E+03  0.43209903814E+02 -0.61655309192E+03  0.65080645626E+03  0.93361899694E+02 0.  0.
          5    1    1    2  502    0 -0.29181110141E+02  0.40106676688E+02 -0.99196195222E+02  0.11098396393E+03  0.41800000000E+01 0. -1.
         -5    1    1    2    0  502 -0.15200329386E+03 -0.83316580502E+02 -0.25893272128E+03  0.31162522439E+03  0.41800000000E+01 0. -1.
        -11    1    3    3    0    0  0.11981090277E+03  0.20267232080E+02 -0.52075901480E+03  0.53474794494E+03  0.00000000000E+00 0.  1.
         11    1    3    3    0    0  0.61373501227E+02  0.22942671734E+02 -0.95794077116E+02  0.11605851132E+03  0.00000000000E+00 0. -1.
</event>
<event>
 7    1  0.6145388E-006  0.7775334E+02  0.7561462E-02  0.1335551E+00
          4   -1    0    0  501    0  0.00000000000E+00  0.00000000000E+00  0.44323569740E+02  0.44323569740E+02  0.00000000000E+00 0. -1.
         -4   -1    0    0    0  501 -0.00000000000E+00 -0.00000000000E+00 -0.29288949859E+03  0.29288949859E+03  0.00000000000E+00 0.  1.
         23    2    1    2    0    0  0.29297056667E+02 -0.44456354340E+01 -0.85885485366E+02  0.12987237723E+03  0.92803214210E+02 0.  0.
          5    1    1    2  502    0 -0.73139866082E+02 -0.18236861401E+02 -0.73729616313E+02  0.10552512424E+03  0.41800000000E+01 0. -1.
         -5    1    1    2    0  502  0.43842809415E+02  0.22682496835E+02 -0.88950827170E+02  0.10181556686E+03  0.41800000000E+01 0. -1.
        -11    1    3    3    0    0  0.17722989862E+02 -0.61786205385E+01 -0.10543230506E+03  0.10708991863E+03  0.00000000000E+00 0.  1.
         11    1    3    3    0    0  0.11574066806E+02  0.17329851045E+01  0.19546819696E+02  0.22782458603E+02  0.00000000000E+00 0. -1.
</event>
<event>
 7    1  0.6145388E-006  0.1441285E+03  0.7561462E-02  0.1207879E+00
         -4   -1    0    0    0  501 -0.00000000000E+00  0.00000000000E+00  0.11198944802E+03  0.11198944802E+03  0.00000000000E+00 0.  1.
          4   -1    0    0  501    0  0.00000000000E+00 -0.00000000000E+00 -0.27734296790E+03  0.27734296790E+03  0.00000000000E+00 0. -1.
         23    2    1    2    0    0  0.94935577103E+02  0.71574002655E+02 -0.15539273526E+03  0.21646550662E+03  0.92600279319E+02 0.  0.
          5    1    1    2  502    0 -0.10887174509E+03 -0.81975090133E+02 -0.36238403210E+02  0.14108035493E+03  0.41800000000E+01 0.  1.
         -5    1    1    2    0  502  0.13936167987E+02  0.10401087478E+02  0.26277618590E+02  0.31786554353E+02  0.41800000000E+01 0.  1.
        -11    1    3    3    0    0  0.49932965525E+02  0.73642754173E+02 -0.50499277270E+02  0.10230705398E+03  0.00000000000E+00 0.  1.
         11    1    3    3    0    0  0.45002611577E+02 -0.20687515177E+01 -0.10489345799E+03  0.11415845265E+03  0.00000000000E+00 0. -1.
</event>
<event>
 7    1  0.6145388E-006  0.7987833E+02  0.7561462E-02  0.1329397E+00
          1   -1    0    0  501    0  0.00000000000E+00  0.00000000000E+00  0.65217302559E+02  0.65217302559E+02  0.00000000000E+00 0. -1.
         -1   -1    0    0    0  501 -0.00000000000E+00 -0.00000000000E+00 -0.24858171391E+03  0.24858171391E+03  0.00000000000E+00 0.  1.
         23    2    1    2    0    0 -0.40805329168E+02  0.37938847949E+02 -0.70699929975E+02  0.12890887704E+03  0.92274521989E+02 0.  0.
          5    1    1    2  502    0  0.25031667860E+02 -0.34531415075E+02  0.22705518415E+02  0.48497587460E+02  0.41800000000E+01 0. -1.
         -5    1    1    2    0  502  0.15773661308E+02 -0.34074328737E+01 -0.13536999979E+03  0.13639255197E+03  0.41800000000E+01 0.  1.
        -11    1    3    3    0    0 -0.50286329381E+02  0.58768667746E+02 -0.72420197879E+02  0.10595827618E+03  0.00000000000E+00 0. -1.
         11    1    3    3    0    0  0.94810002124E+01 -0.20829819797E+02  0.17202679034E+01  0.22950600852E+02  0.00000000000E+00 0.  1.
</event>
<event>
 7    1  0.6145388E-006  0.1278003E+03  0.7561462E-02  0.1230757E+00
         -1   -1    0    0    0  501 -0.00000000000E+00  0.00000000000E+00  0.22043002916E+02  0.22043002916E+02  0.00000000000E+00 0.  1.
          1   -1    0    0  501    0  0.00000000000E+00 -0.00000000000E+00 -0.80124685225E+03  0.80124685225E+03  0.00000000000E+00 0. -1.
         23    2    1    2    0    0  0.23353450540E+02 -0.72634708323E+02 -0.35838068195E+03  0.37768833037E+03  0.91600093876E+02 0.  0.
          5    1    1    2  502    0 -0.74036540469E+02  0.47595990032E+02 -0.28827749563E+03  0.30144348471E+03  0.41800000000E+01 0. -1.
         -5    1    1    2    0  502  0.50683089929E+02  0.25038718291E+02 -0.13254567175E+03  0.14415804008E+03  0.41800000000E+01 0. -1.
        -11    1    3    3    0    0  0.14755376655E+02 -0.90117672609E+02 -0.33515703004E+03  0.34737465486E+03  0.00000000000E+00 0. -1.
         11    1    3    3    0    0  0.85980738845E+01  0.17482964286E+02 -0.23223651916E+02  0.30313675512E+02  0.00000000000E+00 0.  1.
</event>
<event>
 7    1  0.6145388E-006  0.1201454E+03  0.7561462E-02  0.1242857E+00
         -1   -1    0    0    0  501 -0.00000000000E+00  0.00000000000E+00  0.85459469337E+03  0.85459469337E+03  0.00000000000E+00 0.  1.
          1   -1    0    0  501    0  0.00000000000E+00 -0.00000000000E+00 -0.24633172971E+02  0.24633172971E+02  0.00000000000E+00 0. -1.
         23    2    1    2    0    0  0.18233606486E+02  0.96580865688E+02  0.27164726313E+03  0.29869154705E+03  0.75921516651E+02 0.  0.
          5    1    1    2  502    0  0.41622430952E+02 -0.36935610131E+02  0.36875814916E+03  0.37295671469E+03  0.41800000000E+01 0.  1.
         -5    1    1    2    0  502 -0.59856037437E+02 -0.59645255557E+02  0.18955610810E+03  0.20757960460E+03  0.41800000000E+01 0.  1.
        -11    1    3    3    0    0  0.41040868487E+01  0.66735935977E+02  0.80190330023E+02  0.10440793892E+03  0.00000000000E+00 0. -1.
         11    1    3    3    0    0  0.14129519637E+02  0.29844929711E+02  0.19145693311E+03  0.19428360813E+03  0.00000000000E+00 0.  1.
</event>
<event>
 7    1  0.6145388E-006  0.1032443E+03  0.7561462E-02  0.1273618E+00
         -1   -1    0    0    0  501 -0.00000000000E+00  0.00000000000E+00  0.32468767582E+02  0.32468767582E+02  0.00000000000E+00 0.  1.
          1   -1    0    0  501    0  0.00000000000E+00 -0.00000000000E+00 -0.51630055059E+03  0.51630055059E+03  0.00000000000E+00 0. -1.
         23    2    1    2    0    0 -0.52220568225E+02 -0.15465422396E+02 -0.31879360809E+03  0.33464239214E+03  0.85965103518E+02 0.  0.
          5    1    1    2  502    0  0.55132370608E+02 -0.44723861278E+02 -0.11713912954E+03  0.13703594465E+03  0.41800000000E+01 0. -1.
         -5    1    1    2    0  502 -0.29118023829E+01  0.60189283674E+02 -0.47899045373E+02  0.77090981379E+02  0.41800000000E+01 0. -1.
        -11    1    3    3    0    0  0.15115063522E+00 -0.22170026353E+02 -0.16153671819E+02  0.27431260056E+02  0.00000000000E+00 0.  1.
         11    1    3    3    0    0 -0.52371718860E+02  0.67046039573E+01 -0.30263993627E+03  0.30721113208E+03  0.00000000000E+00 0. -1.
</event>
<event>
 7    1  0.6145388E-006  0.9351549E+02  0.7561462E-02  0.1294555E+00
          2   -1    0    0  501    0  0.00000000000E+00  0.00000000000E+00  0.57820614968E+02  0.57820614968E+02  0.00000000000E+00 0. -1.
         -2   -1    0    0    0  501 -0.00000000000E+00 -0.00000000000E+00 -0.38133014826E+03  0.38133014826E+03  0.00000000000E+00 0.  1.
         23    2    1    2    0    0  0.22948268987E+02  0.45635459291E+02 -0.19501686092E+02  0.10646878164E+03  0.91356814251E+02 0.  0.
          5    1    1    2  502    0  0.24854186891E+02 -0.42211086588E+02 -0.26831020408E+03  0.27277709664E+03  0.41800000000E+01 0.  1.
         -5    1    1    2    0  502 -0.47802455878E+02 -0.34243727031E+01 -0.35697643126E+02  0.59904884952E+02  0.41800000000E+01 0.  1.
        -11    1    3    3    0    0  0.32772154003E+02  0.62313019453E+02 -0.37732495555E+02  0.79879081693E+02  0.00000000000E+00 0.  1.
         11    1    3    3    0    0 -0.98238850157E+01 -0.16677560162E+02  0.18230809464E+02  0.26589699951E+02  0.00000000000E+00 0. -1.
</event>
<event>
 7    1  0.6145388E-006  0.2009008E+03  0.7561462E-02  0.1148981E+00
          2   -1    0    0  501    0  0.00000000000E+00  0.00000000000E+00  0.12885244420E+04  0.12885244420E+04  0.00000000000E+00 0. -1.
         -2   -1    0    0    0  501 -0.00000000000E+00 -0.00000000000E+00 -0.35808687583E+02  0.35808687583E+02  0.00000000000E+00 0.  1.
         23    2    1    2    0    0 -0.16329368879E+03 -0.74040631869E+02  0.45711364567E+03  0.49924064628E+03  0.90230227063E+02 0.  0.
          5    1    1    2  502    0  0.68092162598E+02  0.92142105588E+02  0.32585389223E+03  0.34543442462E+03  0.41800000000E+01 0. -1.
         -5    1    1    2    0  502  0.95201526191E+02 -0.18101473718E+02  0.46974821652E+03  0.47965805869E+03  0.41800000000E+01 0. -1.
        -11    1    3    3    0    0 -0.71874395136E+02 -0.67340020000E+02  0.15605613731E+03  0.18453759769E+03  0.00000000000E+00 0.  1.
         11    1    3    3    0    0 -0.91419293652E+02 -0.67006118690E+01  0.30105750836E+03  0.31470304859E+03  0.00000000000E+00 0. -1.
</event>
<event>
 7    1  0.6145388E-006  0.1111930E+03  0.7561462E-02  0.1258376E+00
          3   -1    0    0  501    0  0.00000000000E+00  0.00000000000E+00  0.10155126840E+02  0.10155126840E+02  0.00000000000E+00 0. -1.
         -3   -1    0    0    0  501 -0.00000000000E+00 -0.00000000000E+00 -0.17912432863E+04  0.17912432863E+04  0.00000000000E+00 0.  1.
         23    2    1    2    0    0  0.23606710663E+02  0.18644838864E+02 -0.31447143999E+03  0.32915006013E+03  0.92426017497E+02 0.  0.
          5    1    1    2  502    0  0.47818843390E+02  0.83700933368E+01 -0.41411076129E+03  0.41696749905E+03  0.41800000000E+01 0.  1.
         -5    1    1    2    0  502 -0.71425554053E+02 -0.27014932201E+02 -0.10525059581E+04  0.10552808539E+04  0.41800000000E+01 0.  1.
        -11    1    3    3    0    0 -0.26362811903E+02  0.35703226104E+02 -0.14656035493E+03  0.15313280459E+03  0.00000000000E+00 0.  1.
         11    1    3    3    0    0  0.49969522566E+02 -0.17058387240E+02 -0.16791108507E+03  0.17601725554E+03  0.00000000000E+00 0. -1.
</event>
<event>
 7    1  0.6145388E-006  0.8418216E+02  0.7561462E-02  0.1317585E+00
         -3   -1    0    0    0  501 -0.00000000000E+00  0.00000000000E+00  0.10812582452E+03  0.10812582452E+03  0.00000000000E+00 0.  1.
          3   -1    0    0  501    0  0.00000000000E+00 -0.00000000000E+00 -0.12436554532E+03  0.12436554532E+03  0.00000000000E+00 0. -1.
         23    2    1    2    0    0 -0.97273494152E+01  0.32280388970E+02 -0.15480305601E+02  0.10294023278E+03  0.96022949472E+02 0.  0.
          5    1    1    2  502    0  0.47202290345E+02  0.57077565616E+01  0.39999285004E+02  0.62273990555E+02  0.41800000000E+01 0.  1.
         -5    1    1    2    0  502 -0.37474940929E+02 -0.37988145532E+02 -0.40758700203E+02  0.67277146498E+02  0.41800000000E+01 0.  1.
        -11    1    3    3    0    0 -0.33450741838E+02  0.26543147496E+02 -0.46720955189E+02  0.63295643312E+02  0.00000000000E+00 0. -1.
         11    1    3    3    0    0  0.23723392423E+02  0.57372414740E+01  0.31240649587E+02  0.39644589472E+02  0.00000000000E+00 0.  1.
</event>
<event>
 7    1  0.6145388E-006  0.1253180E+03  0.7561462E-02  0.1234573E+00
         -2   -1    0    0    0  501 -0.00000000000E+00  0.00000000000E+00  0.35395184988E+02  0.35395184988E+02  0.00000000000E+00 0.  1.
          2   -1    0    0  501    0  0.00000000000E+00 -0.00000000000E+00 -0.45351727108E+03  0.45351727108E+03  0.00000000000E+00 0. -1.
         23    2    1    2    0    0 -0.53933524246E+02 -0.39997428685E+02 -0.17559451794E+03  0.20788690288E+03  0.88740691444E+02 0.  0.
          5    1    1    2  502    0 -0.93560078981E+01  0.70298328055E+02 -0.10861337207E+03  0.12978338416E+03  0.41800000000E+01 0.  1.
         -5    1    1    2    0  502  0.63289532144E+02 -0.30300899370E+02 -0.13391419609E+03  0.15124216904E+03  0.41800000000E+01 0.  1.
        -11    1    3    3    0    0 -0.51696226375E+02  0.15335665666E+02 -0.10618872541E+03  0.11909545696E+03  0.00000000000E+00 0. -1.
         11    1    3    3    0    0 -0.22372978707E+01 -0.55333094351E+02 -0.69405792524E+02  0.88791445917E+02  0.00000000000E+00 0.  1.
</event>
<event>
 7    1  0.6145388E-006  0.1105977E+03  0.7561462E-02  0.1259467E+00
          1   -1    0    0  501    0  0.00000000000E+00  0.00000000000E+00  0.34049130516E+02  0.34049130516E+02  0.00000000000E+00 0. -1.
         -1   -1    0    0    0  501 -0.00000000000E+00 -0.00000000000E+00 -0.53911672723E+03  0.53911672723E+03  0.00000000000E+00 0.  1.
         23    2    1    2    0    0 -0.54234341446E+02 -0.48712861398E+02 -0.15051174207E+03  0.19018904065E+03  0.90574720669E+02 0.  0.
          5    1    1    2  502    0  0.61281227876E+02 -0.24365694171E+02 -0.21909298984E+03  0.22884118191E+03  0.41800000000E+01 0.  1.
         -5    1    1    2    0  502 -0.70468864294E+01  0.73078555570E+02 -0.13546286480E+03  0.15413563518E+03  0.41800000000E+01 0.  1.
        -11    1    3    3    0    0 -0.26877580748E+01 -0.24468376638E+02  0.45166978545E+01  0.25026507113E+02  0.00000000000E+00 0. -1.
         11    1    3    3    0    0 -0.51546583371E+02 -0.24244484761E+02 -0.15502843992E+03  0.16516253354E+03  0.00000000000E+00 0.  1.
</event>
<event>
 7    1  0.6145388E-006  0.1279368E+03  0.7561462E-02  0.1230550E+00
         -1   -1    0    0    0  501 -0.00000000000E+00  0.00000000000E+00  0.13851583654E+03  0.13851583654E+03  0.00000000000E+00 0.  1.
          1   -1    0    0  501    0  0.00000000000E+00 -0.00000000000E+00 -0.13292168301E+03  0.13292168301E+03  0.00000000000E+00 0. -1.
         23    2    1    2    0    0 -0.16757055953E+02 -0.72248215165E+02 -0.30589873351E+02  0.12157991586E+03  0.91352789059E+02 0.  0.
          5    1    1    2  502    0  0.32810953145E+02  0.10424473485E+03  0.28170586835E+02  0.11293616672E+03  0.41800000000E+01 0. -1.
         -5    1    1    2    0  502 -0.16053897192E+02 -0.31996519682E+02  0.80134400435E+01  0.36921436973E+02  0.41800000000E+01 0. -1.
        -11    1    3    3    0    0 -0.37658666785E+02 -0.79801976925E+02 -0.40686187553E+02  0.97169421953E+02  0.00000000000E+00 0. -1.
         11    1    3    3    0    0  0.20901610832E+02  0.75537617598E+01  0.10096314202E+02  0.24410493902E+02  0.00000000000E+00 0.  1.
</event>
<event>
 7    1  0.6145388E-006  0.9333474E+02  0.7561462E-02  0.1294971E+00
          1   -1    0    0  501    0  0.00000000000E+00  0.00000000000E+00  0.28517439487E+03  0.28517439487E+03  0.00000000000E+00 0. -1.
         -1   -1    0    0    0  501 -0.00000000000E+00 -0.00000000000E+00 -0.50707060618E+02  0.50707060618E+02  0.00000000000E+00 0.  1.
         23    2    1    2    0    0 -0.47237205088E+02  0.23570045913E+02  0.98529140230E+02  0.14375184744E+03  0.90386401398E+02 0.  0.
          5    1    1    2  502    0  0.56577696775E+02 -0.67672167511E+02  0.72850801187E+02  0.11447824973E+03  0.41800000000E+01 0.  1.
         -5    1    1    2    0  502 -0.93404916871E+01  0.44102121598E+02  0.63087392839E+02  0.77651358325E+02  0.41800000000E+01 0.  1.
        -11    1    3    3    0    0 -0.20164617198E+02  0.69836638190E+01 -0.14858473269E+02  0.26003030111E+02  0.00000000000E+00 0.  1.
         11    1    3    3    0    0 -0.27072587890E+02  0.16586382094E+02  0.11338761350E+03  0.11774881732E+03  0.00000000000E+00 0. -1.
</event>
<event>
 7    1  0.6145388E-006  0.1032798E+03  0.7561462E-02  0.1273546E+00
          3   -1    0    0  501    0  0.00000000000E+00  0.00000000000E+00  0.55633177397E+02  0.55633177397E+02  0.00000000000E+00 0. -1.
         -3   -1    0    0    0  501 -0.00000000000E+00 -0.00000000000E+00 -0.22600322263E+03  0.22600322263E+03  0.00000000000E+00 0.  1.
         23    2    1    2    0    0 -0.21284096580E+02 -0.16536505308E+02 -0.49055518821E+02  0.10530865931E+03  0.89202023653E+02 0.  0.
          5    1    1    2  502    0  0.59557716575E+02  0.41645774525E+02 -0.10456018284E+03  0.12740406734E+03  0.41800000000E+01 0.  1.
         -5    1    1    2    0  502 -0.38273619995E+02 -0.25109269217E+02 -0.16754343572E+02  0.48923673377E+02  0.41800000000E+01 0.  1.
        -11    1    3    3    0    0 -0.72474545714E+01  0.34302105418E+02 -0.37462298165E+02  0.51308710934E+02  0.00000000000E+00 0.  1.
         11    1    3    3    0    0 -0.14036642009E+02 -0.50838610726E+02 -0.11593220657E+02  0.53999948376E+02  0.00000000000E+00 0. -1.
</event>
<event>
 7    1  0.6145388E-006  0.1558583E+03  0.7561462E-02  0.1193454E+00
         -1   -1    0    0    0  501 -0.00000000000E+00  0.00000000000E+00  0.34238062128E+02  0.34238062128E+02  0.00000000000E+00 0.  1.
          1   -1    0    0  501    0  0.00000000000E+00 -0.00000000000E+00 -0.78926247738E+03  0.78926247738E+03  0.00000000000E+00 0. -1.
         23    2    1    2    0    0 -0.48814272020E+02  0.10663996344E+03 -0.44226067084E+03  0.46681650808E+03  0.92564768076E+02 0.  0.
          5    1    1    2  502    0  0.84767175427E+02 -0.91952029379E+02 -0.18708882159E+03  0.22507854029E+03  0.41800000000E+01 0.  1.
         -5    1    1    2    0  502 -0.35952903408E+02 -0.14687934060E+02 -0.12567492283E+03  0.13160549114E+03  0.41800000000E+01 0.  1.
        -11    1    3    3    0    0 -0.75438097027E+01  0.10597850338E+03 -0.28277602697E+03  0.30207719820E+03  0.00000000000E+00 0.  1.
         11    1    3    3    0    0 -0.41270462317E+02  0.66146005904E+00 -0.15948464388E+03  0.16473930988E+03  0.00000000000E+00 0. -1.
</event>
<event>
 7    1  0.6145388E-006  0.1062528E+03  0.7561462E-02  0.1267671E+00
          1   -1    0    0  501    0  0.00000000000E+00  0.00000000000E+00  0.51613269291E+03  0.51613269291E+03  0.00000000000E+00 0. -1.
         -1   -1    0    0    0  501 -0.00000000000E+00 -0.00000000000E+00 -0.30936484144E+02  0.30936484144E+02  0.00000000000E+00 0.  1.
         23    2    1    2    0    0 -0.52363845441E+02 -0.23846362365E+02  0.25767561916E+03  0.28112608688E+03  0.96563609644E+02 0.  0.
          5    1    1    2  502    0 -0.15030093015E+02  0.40179820700E+02  0.17110566062E+03  0.17645095971E+03  0.41800000000E+01 0.  1.
         -5    1    1    2    0  502  0.67393938455E+02 -0.16333458335E+02  0.56414928985E+02  0.89492130459E+02  0.41800000000E+01 0.  1.
        -11    1    3    3    0    0 -0.31047359036E+02  0.29288067891E+02  0.17780555447E+03  0.18285662313E+03  0.00000000000E+00 0. -1.
         11    1    3    3    0    0 -0.21316486405E+02 -0.53134430256E+02  0.79870064693E+02  0.98269463748E+02  0.00000000000E+00 0.  1.
</event>
<event>
 7    1  0.6145388E-006  0.1259401E+03  0.7561462E-02  0.1233607E+00
          3   -1    0    0  501    0  0.00000000000E+00  0.00000000000E+00  0.11498182540E+03  0.11498182540E+03  0.00000000000E+00 0. -1.
         -3   -1    0    0    0  501 -0.00000000000E+00 -0.00000000000E+00 -0.22352368960E+03  0.22352368960E+03  0.00000000000E+00 0.  1.
         23    2    1    2    0    0 -0.88498691641E+02  0.25071134046E+02  0.22506694529E+02  0.14050817768E+03  0.10380470370E+03 0.  0.
          5    1    1    2  502    0 -0.22430292001E+02 -0.26705063585E+02 -0.17684844437E+02  0.39325621966E+02  0.41800000000E+01 0. -1.
         -5    1    1    2    0  502  0.11092898364E+03  0.16339295381E+01 -0.11336371428E+03  0.15867171536E+03  0.41800000000E+01 0.  1.
        -11    1    3    3    0    0 -0.63894129054E+02 -0.81322305579E+01 -0.32149217552E+02  0.71987256446E+02  0.00000000000E+00 0.  1.
         11    1    3    3    0    0 -0.24604562587E+02  0.33203364604E+02  0.54655912081E+02  0.68520921232E+02  0.00000000000E+00 0. -1.
</event>
<event>
 7    1  0.6145388E-006  0.1602043E+03  0.7561462E-02  0.1188466E+00
          2   -1    0    0  501    0  0.00000000000E+00  0.00000000000E+00  0.24599501365E+03  0.24599501365E+03  0.00000000000E+00 0. -1.
         -2   -1    0    0    0  501 -0.00000000000E+00 -0.00000000000E+00 -0.12857399373E+03  0.12857399373E+03  0.00000000000E+00 0.  1.
         23    2    1    2    0    0 -0.13706634163E+03 -0.12317434704E+02  0.87347241771E+02  0.18617981161E+03  0.89969330327E+02 0.  0.
          5    1    1    2  502    0 -0.51587925915E+00 -0.35630643732E+02 -0.99561247261E+01  0.37234469564E+02  0.41800000000E+01 0.  1.
         -5    1    1    2    0  502  0.13758222089E+03  0.47948078436E+02  0.40029902870E+02  0.15115472621E+03  0.41800000000E+01 0.  1.
        -11    1    3    3    0    0 -0.90395961331E+02  0.41144783807E+00  0.48271716450E+01  0.90525690830E+02  0.00000000000E+00 0.  1.
         11    1    3    3    0    0 -0.46670380302E+02 -0.12728882542E+02  0.82520070126E+02  0.95654120779E+02  0.00000000000E+00 0. -1.
</event>
<event>
 7    1  0.6145388E-006  0.2120768E+03  0.7561462E-02  0.1139932E+00
          1   -1    0    0  501    0  0.00000000000E+00  0.00000000000E+00  0.28712070139E+03  0.28712070139E+03  0.00000000000E+00 0. -1.
         -1   -1    0    0    0  501 -0.00000000000E+00 -0.00000000000E+00 -0.16742570016E+03  0.16742570016E+03  0.00000000000E+00 0.  1.
         23    2    1    2    0    0  0.42917688321E+02 -0.18630367004E+03  0.69797129095E+02  0.22069009697E+03  0.85331671894E+02 0.  0.
          5    1    1    2  502    0 -0.48993917927E+02  0.21187852579E+02 -0.16062773957E+02  0.55900037549E+02  0.41800000000E+01 0.  1.
         -5    1    1    2    0  502  0.60762296068E+01  0.16511581747E+03  0.65960646094E+02  0.17795626703E+03  0.41800000000E+01 0.  1.
        -11    1    3    3    0    0 -0.71974479565E+01 -0.12901410305E+03  0.22733536023E+02  0.13119929765E+03  0.00000000000E+00 0. -1.
         11    1    3    3    0    0  0.50115136277E+02 -0.57289566989E+02  0.47063593072E+02  0.89490799319E+02  0.00000000000E+00 0.  1.
</event>
<event>
 7    1  0.6145388E-006  0.1095594E+03  0.7561462E-02  0.1261388E+00
         -2   -1    0    0    0  501 -0.00000000000E+00  0.00000000000E+00  0.23517067740E+03  0.23517067740E+03  0.00000000000E+00 0.  1.
          2   -1    0    0  501    0  0.00000000000E+00 -0.00000000000E+00 -0.86552228965E+02  0.86552228965E+02  0.00000000000E+00 0. -1.
         23    2    1    2    0    0 -0.32713483977E+02  0.13613133969E+02 -0.28091906675E+02  0.10233736877E+03  0.91805731710E+02 0.  0.
          5    1    1    2  502    0  0.56649409624E+02 -0.50947151601E+02  0.14764626318E+03  0.16619765130E+03  0.41800000000E+01 0. -1.
         -5    1    1    2    0  502 -0.23935925647E+02  0.37334017632E+02  0.29064091927E+02  0.53187886296E+02  0.41800000000E+01 0. -1.
        -11    1    3    3    0    0  0.35080224722E+01 -0.36372202275E+02 -0.78586305890E+01  0.37376481840E+02  0.00000000000E+00 0. -1.
         11    1    3    3    0    0 -0.36221506449E+02  0.49985336244E+02 -0.20233276086E+02  0.64960886925E+02  0.00000000000E+00 0.  1.
</event>
<event>
 7    1  0.6145388E-006  0.9241874E+02  0.7561462E-02  0.1297098E+00
         -4   -1    0    0    0  501 -0.00000000000E+00  0.00000000000E+00  0.49358066327E+03  0.49358066327E+03  0.00000000000E+00 0.  1.
          4   -1    0    0  501    0  0.00000000000E+00 -0.00000000000E+00 -0.31984450878E+02  0.31984450878E+02  0.00000000000E+00 0. -1.
         23    2    1    2    0    0 -0.14119854007E+02 -0.62226194893E+02  0.20716079043E+03  0.23495035555E+03  0.90634468481E+02 0.  0.
          5    1    1    2  502    0  0.37929176472E+02  0.29216973714E+02  0.19045905195E+02  0.51695965853E+02  0.41800000000E+01 0. -1.
         -5    1    1    2    0  502 -0.23809322464E+02  0.33009221179E+02  0.23538951677E+03  0.23891879274E+03  0.41800000000E+01 0. -1.
        -11    1    3    3    0    0  0.19785315246E+02 -0.58499057973E+02  0.18303266320E+03  0.19316975509E+03  0.00000000000E+00 0.  1.
         11    1    3    3    0    0 -0.33905169253E+02 -0.37271369200E+01  0.24128127224E+02  0.41780600463E+02  0.00000000000E+00 0. -1.
</event>
<event>
 7    1  0.6145388E-006  0.1107109E+03  0.7561462E-02  0.1259259E+00
          1   -1    0    0  501    0  0.00000000000E+00  0.00000000000E+00  0.16365345119E+03  0.16365345119E+03  0.00000000000E+00 0. -1.
         -1   -1    0    0    0  501 -0.00000000000E+00 -0.00000000000E+00 -0.10575237495E+03  0.10575237495E+03  0.00000000000E+00 0.  1.
         23    2    1    2    0    0  0.59220815586E+02  0.43513470062E+02  0.35018152382E+02  0.12252918210E+03  0.91578394802E+02 0.  0.
          5    1    1    2  502    0 -0.68583454041E+02 -0.79614578443E+02  0.28430087928E+02  0.10893995396E+03  0.41800000000E+01 0. -1.
         -5    1    1    2    0  502  0.93626384541E+01  0.36101108382E+02 -0.55471640743E+01  0.37936690083E+02  0.41800000000E+01 0. -1.
        -11    1    3    3    0    0  0.37726020599E+02  0.10197856534E+02  0.62905136785E+02  0.74056094564E+02  0.00000000000E+00 0. -1.
         11    1    3    3    0    0  0.21494794987E+02  0.33315613527E+02 -0.27886984403E+02  0.48473087537E+02  0.00000000000E+00 0.  1.
</event>
<event>
 7    1  0.6145388E-006  0.1056413E+03  0.7561462E-02  0.1268861E+00
          4   -1    0    0  501    0  0.00000000000E+00  0.00000000000E+00  0.16011233483E+03  0.16011233483E+03  0.00000000000E+00 0. -1.
         -4   -1    0    0    0  501 -0.00000000000E+00 -0.00000000000E+00 -0.78294707092E+02  0.78294707092E+02  0.00000000000E+00 0.  1.
         23    2    1    2    0    0 -0.11074673828E+02  0.20535860453E+02  0.57809602114E+02  0.10891278695E+03  0.89306635252E+02 0.  0.
          5    1    1    2  502    0 -0.37576714556E+02 -0.53290326690E+02  0.26815257313E+02  0.70628597752E+02  0.41800000000E+01 0.  1.
         -5    1    1    2    0  502  0.48651388384E+02  0.32754466237E+02 -0.28072316876E+01  0.58865657220E+02  0.41800000000E+01 0.  1.
        -11    1    3    3    0    0 -0.46396180532E+02  0.22065605695E+00  0.48494503792E+02  0.67114612084E+02  0.00000000000E+00 0.  1.
         11    1    3    3    0    0  0.35321506705E+02  0.20315204396E+02  0.93150983216E+01  0.41798174868E+02  0.00000000000E+00 0. -1.
</event>
<event>
 7    1  0.6145388E-006  0.1986563E+03  0.7561462E-02  0.1150878E+00
          1   -1    0    0  501    0  0.00000000000E+00  0.00000000000E+00  0.32172623401E+03  0.32172623401E+03  0.00000000000E+00 0. -1.
         -1   -1    0    0    0  501 -0.00000000000E+00 -0.00000000000E+00 -0.20720217956E+03  0.20720217956E+03  0.00000000000E+00 0.  1.
         23    2    1    2    0    0  0.83750864769E+02 -0.42001807309E+02  0.61972112078E+02  0.14420476156E+03  0.90421852528E+02 0.  0.
          5    1    1    2  502    0 -0.12068868260E+03 -0.78806603492E+02  0.16245844411E+03  0.21722443998E+03  0.41800000000E+01 0. -1.
         -5    1    1    2    0  502  0.36937817829E+02  0.12080841080E+03 -0.10990650173E+03  0.16749921203E+03  0.41800000000E+01 0.  1.
        -11    1    3    3    0    0  0.98161799526E+02 -0.19634575364E+02  0.34309127348E+02  0.10582235896E+03  0.00000000000E+00 0.  1.
         11    1    3    3    0    0 -0.14410934757E+02 -0.22367231945E+02  0.27662984730E+02  0.38382402603E+02  0.00000000000E+00 0. -1.
</event>
<event>
 7    1  0.6145388E-006  0.1014832E+03  0.7561462E-02  0.1277208E+00
         -1   -1    0    0    0  501 -0.00000000000E+00  0.00000000000E+00  0.80390356726E+03  0.80390356726E+03  0.00000000000E+00 0.  1.
          1   -1    0    0  501    0  0.00000000000E+00 -0.00000000000E+00 -0.18649893660E+02  0.18649893660E+02  0.00000000000E+00 0. -1.
         23    2    1    2    0    0  0.33841248056E+02  0.17271771417E+02  0.36788978384E+03  0.38519290514E+03  0.10764356444E+03 0.  0.
          5    1    1    2  502    0 -0.14807495378E+01  0.36150461446E+02  0.31692654594E+03  0.31901247061E+03  0.41800000000E+01 0. -1.
         -5    1    1    2    0  502 -0.32360498519E+02 -0.53422232863E+02  0.10043734382E+03  0.11834808517E+03  0.41800000000E+01 0. -1.
        -11    1    3    3    0    0  0.63683903070E+02 -0.88374617097E+01  0.29782702274E+03  0.30468783322E+03  0.00000000000E+00 0.  1.
         11    1    3    3    0    0 -0.29842655014E+02  0.26109233126E+02  0.70062761098E+02  0.80505071923E+02  0.00000000000E+00 0. -1.
</event>
<event>
 7    1  0.6145388E-006  0.9742791E+02  0.7561462E-02  0.1285800E+00
          1   -1    0    0  501    0  0.00000000000E+00  0.00000000000E+00  0.49567531686E+03  0.49567531686E+03  0.00000000000E+00 0. -1.
         -1   -1    0    0    0  501 -0.00000000000E+00 -0.00000000000E+00 -0.36811088440E+02  0.36811088440E+02  0.00000000000E+00 0.  1.
         23    2    1    2    0    0 -0.13229446440E+02  0.55608901376E+02  0.31520456330E+03  0.33360623943E+03  0.93122704517E+02 0.  0.
          5    1    1    2  502    0  0.33377168993E+02 -0.73126637023E+02  0.36528288910E+02  0.88393035602E+02  0.41800000000E+01 0. -1.
         -5    1    1    2    0  502 -0.20147722553E+02  0.17517735647E+02  0.10713137620E+03  0.11048713026E+03  0.41800000000E+01 0. -1.
        -11    1    3    3    0    0  0.25022842390E+02  0.80065205658E+01  0.22473158634E+02  0.34572964463E+02  0.00000000000E+00 0.  1.
         11    1    3    3    0    0 -0.38252288829E+02  0.47602380810E+02  0.29273140467E+03  0.29903327497E+03  0.00000000000E+00 0. -1.
</event>
<event>
 7    1  0.6145388E-006  0.3597631E+03  0.7561462E-02  0.1058678E+00
          1   -1    0    0  501    0  0.00000000000E+00  0.00000000000E+00  0.25847175774E+03  0.25847175774E+03  0.00000000000E+00 0. -1.
         -1   -1    0    0    0  501 -0.00000000000E+00 -0.00000000000E+00 -0.57109611054E+03  0.57109611054E+03  0.00000000000E+00 0.  1.
         23    2    1    2    0    0 -0.25082783029E+03  0.23931479070E+03 -0.19562935725E+02  0.35869750109E+03  0.89972325443E+02 0.  0.
          5    1    1    2  502    0  0.10051975936E+03 -0.22572190494E+02 -0.10298686942E+03  0.14573089405E+03  0.41800000000E+01 0. -1.
         -5    1    1    2    0  502  0.15030807093E+03 -0.21674260020E+03 -0.19007454765E+03  0.32513947314E+03  0.41800000000E+01 0. -1.
        -11    1    3    3    0    0 -0.21182415404E+03  0.16429619231E+03  0.12266375756E+02  0.26835270637E+03  0.00000000000E+00 0. -1.
         11    1    3    3    0    0 -0.39003676246E+02  0.75018598384E+02 -0.31829311481E+02  0.90344794723E+02  0.00000000000E+00 0.  1.
</event>
<event>
 7    1  0.6145388E-006  0.1059428E+03  0.7561462E-02  0.1268273E+00
          1   -1    0    0  501    0  0.00000000000E+00  0.00000000000E+00  0.65659726014E+02  0.65659726014E+02  0.00000000000E+00 0. -1.
         -1   -1    0    0    0  501 -0.00000000000E+00 -0.00000000000E+00 -0.33437922874E+03  0.33437922874E+03  0.00000000000E+00 0.  1.
         23    2    1    2    0    0  0.39501368744E+02 -0.61660946375E+02 -0.32709006887E+02  0.12307690446E+03  0.93357457327E+02 0.  0.
          5    1    1    2  502    0 -0.69217355453E+02  0.27627316018E+02 -0.61702311170E+02  0.96845023052E+02  0.41800000000E+01 0.  1.
         -5    1    1    2    0  502  0.29715986708E+02  0.34033630357E+02 -0.17430818466E+03  0.18011702724E+03  0.41800000000E+01 0.  1.
        -11    1    3    3    0    0 -0.10627815574E+02 -0.31775362458E+02  0.24379374292E+02  0.41436433414E+02  0.00000000000E+00 0. -1.
         11    1    3    3    0    0  0.50129184318E+02 -0.29885583916E+02 -0.57088381179E+02  0.81640471043E+02  0.00000000000E+00 0.  1.
</event>
<event>
 7    1  0.6145388E-006  0.7331686E+02  0.7561462E-02  0.1349164E+00
          1   -1    0    0  501    0  0.00000000000E+00  0.00000000000E+00  0.18749526379E+03  0.18749526379E+03  0.00000000000E+00 0. -1.
         -1   -1    0    0    0  501 -0.00000000000E+00 -0.00000000000E+00 -0.52730664295E+02  0.52730664295E+02  0.00000000000E+00 0.  1.
         23    2    1    2    0    0 -0.33774268537E+01 -0.30644588014E+02  0.44255534176E+02  0.84845857481E+02  0.65496331498E+02 0.  0.
          5    1    1    2  502    0  0.34441677251E+02  0.26651417936E+02  0.10991319170E+03  0.11830008165E+03  0.41800000000E+01 0. -1.
         -5    1    1    2    0  502 -0.31064250398E+02  0.39931700773E+01 -0.19404126379E+02  0.37079988951E+02  0.41800000000E+01 0.  1.
        -11    1    3    3    0    0 -0.32599680288E+02 -0.25999202710E+02  0.18499787064E+02  0.45617319275E+02  0.00000000000E+00 0. -1.
         11    1    3    3    0    0  0.29222253435E+02 -0.46453853035E+01  0.25755747112E+02  0.39228538205E+02  0.00000000000E+00 0.  1.
</event>
<event>
 7    1  0.6145388E-006  0.8752894E+02  0.7561462E-02  0.1308948E+00
         -4   -1    0    0    0  501 -0.00000000000E+00  0.00000000000E+00  0.23691541805E+03  0.23691541805E+03  0.00000000000E+00 0. -1.
          4   -1    0    0  501    0  0.00000000000E+00 -0.00000000000E+00 -0.84947537345E+02  0.84947537345E+02  0.00000000000E+00 0.  1.
         23    2    1    2    0    0  0.11838228542E+02  0.82957694992E+02  0.27130275755E+02  0.12627502149E+03  0.90483182844E+02 0.  0.
          5    1    1    2  502    0 -0.73181999135E+01 -0.61203187180E+02  0.14972133294E+03  0.16196708341E+03  0.41800000000E+01 0.  1.
         -5    1    1    2    0  502 -0.45200286284E+01 -0.21754507812E+02 -0.24883727991E+02  0.33620850490E+02  0.41800000000E+01 0.  1.
        -11    1    3    3    0    0 -0.85278074282E+01  0.57198010697E+02  0.57496527143E+02  0.81548676020E+02  0.00000000000E+00 0. -1.
         11    1    3    3    0    0  0.20366035970E+02  0.25759684295E+02 -0.30366251388E+02  0.44726345474E+02  0.00000000000E+00 0.  1.
</event>
<event>
 7    1  0.6145388E-006  0.1031643E+03  0.7561462E-02  0.1273779E+00
          4   -1    0    0  501    0  0.00000000000E+00  0.00000000000E+00  0.62272635359E+02  0.62272635359E+02  0.00000000000E+00 0. -1.
         -4   -1    0    0    0  501 -0.00000000000E+00 -0.00000000000E+00 -0.27761875664E+03  0.27761875664E+03  0.00000000000E+00 0.  1.
         23    2    1    2    0    0  0.41779267878E+02 -0.12869150171E+01 -0.18247441299E+02  0.10276434763E+03  0.92088971410E+02 0.  0.
          5    1    1    2  502    0 -0.60788348076E+02 -0.47058247665E+02 -0.14034588429E+03  0.16007542464E+03  0.41800000000E+01 0.  1.
         -5    1    1    2    0  502  0.19009080199E+02  0.48345162682E+02 -0.56752795691E+02  0.77051619733E+02  0.41800000000E+01 0.  1.
        -11    1    3    3    0    0  0.57636261481E+02  0.89832651691E+01  0.18708949246E+02  0.61258978709E+02  0.00000000000E+00 0. -1.
         11    1    3    3    0    0 -0.15856993603E+02 -0.10270180186E+02 -0.36956390545E+02  0.41505368922E+02  0.00000000000E+00 0.  1.
</event>
<event>
 7    1  0.6145388E-006  0.1172773E+03  0.7561462E-02  0.1247658E+00
          2   -1    0    0  501    0  0.00000000000E+00  0.00000000000E+00  0.31126145611E+02  0.31126145611E+02  0.00000000000E+00 0. -1.
         -2   -1    0    0    0  501 -0.00000000000E+00 -0.00000000000E+00 -0.88612079099E+03  0.88612079099E+03  0.00000000000E+00 0.  1.
         23    2    1    2    0    0 -0.32748147789E+02  0.59501111385E+02 -0.12089047614E+03  0.16597078793E+03  0.91208397568E+02 0.  0.
          5    1    1    2  502    0  0.28435852386E+01  0.31725429635E+02 -0.43815367519E+02  0.54330909189E+02  0.41800000000E+01 0. -1.
         -5    1    1    2    0  502  0.29904562551E+02 -0.91226541020E+02 -0.69028880173E+03  0.69694523948E+03  0.41800000000E+01 0.  1.
        -11    1    3    3    0    0 -0.45992658522E+02  0.73727973321E+02 -0.70294817438E+02  0.11176985303E+03  0.00000000000E+00 0. -1.
         11    1    3    3    0    0  0.13244510733E+02 -0.14226861936E+02 -0.50595658698E+02  0.54200934901E+02  0.00000000000E+00 0.  1.
</event>
<event>
 7    1  0.6145388E-006  0.7852178E+02  0.7561462E-02  0.1333300E+00
          2   -1    0    0  501    0  0.00000000000E+00  0.00000000000E+00  0.10065152362E+03  0.10065152362E+03  0.00000000000E+00 0. -1.
         -2   -1    0    0    0  501 -0.00000000000E+00 -0.00000000000E+00 -0.14730942254E+03  0.14730942254E+03  0.00000000000E+00 0.  1.
         23    2    1    2    0    0 -0.11948529651E+02  0.39899303870E+01  0.58829389590E+01  0.93135951836E+02  0.92092397343E+02 0.  0.
          5    1    1    2  502    0  0.28762449460E+02  0.19546190882E+02  0.42684563190E+02  0.55215726126E+02  0.41800000000E+01 0. -1.
         -5    1    1    2    0  502 -0.16813919809E+02 -0.23536121268E+02 -0.95225401063E+02  0.99609268200E+02  0.41800000000E+01 0.  1.
        -11    1    3    3    0    0 -0.38312828619E+02  0.35136890613E+02  0.60308178876E+00  0.51988822129E+02  0.00000000000E+00 0. -1.
         11    1    3    3    0    0  0.26364298968E+02 -0.31146960226E+02  0.52798571703E+01  0.41147129707E+02  0.00000000000E+00 0.  1.
</event>
<event>
 7    1  0.6145388E-006  0.1769040E+03  0.7561462E-02  0.1170833E+00
          2   -1    0    0  501    0  0.00000000000E+00  0.00000000000E+00  0.12011937961E+04  0.12011937961E+04  0.00000000000E+00 0. -1.
         -2   -1    0    0    0  501 -0.00000000000E+00 -0.00000000000E+00 -0.29659970215E+02  0.29659970215E+02  0.00000000000E+00 0.  1.
         23    2    1    2    0    0 -0.77193083464E+02  0.12955817515E+03  0.64223681284E+03  0.66645376245E+03  0.94595987471E+02 0.  0.
          5    1    1    2  502    0  0.58245506263E+02  0.49205918207E+01  0.12940825493E+03  0.14205886128E+03  0.41800000000E+01 0.  1.
         -5    1    1    2    0  502  0.18947577200E+02 -0.13447876697E+03  0.39988875810E+03  0.42234114256E+03  0.41800000000E+01 0.  1.
        -11    1    3    3    0    0 -0.27383334285E+02  0.94594610441E+02  0.52712956220E+03  0.53624953396E+03  0.00000000000E+00 0. -1.
         11    1    3    3    0    0 -0.49809749179E+02  0.34963564706E+02  0.11510725063E+03  0.13020422850E+03  0.00000000000E+00 0.  1.
</event>
<event>
 7    1  0.6145388E-006  0.1160514E+03  0.7561462E-02  0.1249757E+00
         -2   -1    0    0    0  501 -0.00000000000E+00  0.00000000000E+00  0.26042580402E+02  0.26042580402E+02  0.00000000000E+00 0. -1.
          2   -1    0    0  501    0  0.00000000000E+00 -0.00000000000E+00 -0.57323930946E+03  0.57323930946E+03  0.00000000000E+00 0.  1.
         23    2    1    2    0    0  0.13170169466E+02 -0.54188974656E+02 -0.25665178142E+03  0.27807545230E+03  0.91356017495E+02 0.  0.
          5    1    1    2  502    0  0.32895094532E+02  0.77219439112E+02 -0.20031066919E+03  0.21722514959E+03  0.41800000000E+01 0. -1.
         -5    1    1    2    0  502 -0.46065263999E+02 -0.23030464457E+02 -0.90234278452E+02  0.10398128797E+03  0.41800000000E+01 0. -1.
        -11    1    3    3    0    0  0.45995106049E+02 -0.24397152883E+02 -0.76407216185E+02  0.92459902306E+02  0.00000000000E+00 0. -1.
         11    1    3    3    0    0 -0.32824936582E+02 -0.29791821772E+02 -0.18024456523E+03  0.18561555000E+03  0.00000000000E+00 0.  1.
</event>
<event>
 7    1  0.6145388E-006  0.1227174E+03  0.7561462E-02  0.1238680E+00
         -2   -1    0    0    0  501 -0.00000000000E+00  0.00000000000E+00  0.19908321089E+02  0.19908321089E+02  0.00000000000E+00 0.  1.
          2   -1    0    0  501    0  0.00000000000E+00 -0.00000000000E+00 -0.93762737236E+03  0.93762737236E+03  0.00000000000E+00 0. -1.
         23    2    1    2    0    0  0.67209611333E+02  0.30760475497E+02 -0.29020437517E+03  0.31341982218E+03  0.92466571583E+02 0.  0.
          5    1    1    2  502    0 -0.96338196753E+02 -0.24169237588E+02 -0.57523804064E+03  0.58376491501E+03  0.41800000000E+01 0. -1.
         -5    1    1    2    0  502  0.29128585420E+02 -0.65912379095E+01 -0.52276635458E+02  0.60350956252E+02  0.41800000000E+01 0. -1.
        -11    1    3    3    0    0  0.39369001802E+01  0.49672556079E+02 -0.93848904288E+02  0.10625666495E+03  0.00000000000E+00 0.  1.
         11    1    3    3    0    0  0.63272711153E+02 -0.18912080582E+02 -0.19635547088E+03  0.20716315723E+03  0.00000000000E+00 0. -1.
</event>
<event>
 7    1  0.6145388E-006  0.9789856E+02  0.7561462E-02  0.1284778E+00
         -1   -1    0    0    0  501 -0.00000000000E+00  0.00000000000E+00  0.40639219267E+02  0.40639219267E+02  0.00000000000E+00 0.  1.
          1   -1    0    0  501    0  0.00000000000E+00 -0.00000000000E+00 -0.40023221540E+03  0.40023221540E+03  0.00000000000E+00 0. -1.
         23    2    1    2    0    0 -0.35909054581E+02 -0.54327271477E+02 -0.15188571020E+03  0.18983582983E+03  0.93420879345E+02 0.  0.
          5    1    1    2  502    0  0.81911684438E+01  0.58093181747E+02 -0.21410594269E+03  0.22203769973E+03  0.41800000000E+01 0. -1.
         -5    1    1    2    0  502  0.27717886137E+02 -0.37659102699E+01  0.63986567592E+01  0.28997905104E+02  0.41800000000E+01 0. -1.
        -11    1    3    3    0    0 -0.38794563331E+02 -0.76798954408E+02 -0.13980486189E+03  0.16415997365E+03  0.00000000000E+00 0.  1.
         11    1    3    3    0    0  0.28855087499E+01  0.22471682932E+02 -0.12080848311E+02  0.25675856177E+02  0.00000000000E+00 0. -1.
</event>
<event>
 7    1  0.6145388E-006  0.1081316E+03  0.7561462E-02  0.1264070E+00
          2   -1    0    0  501    0  0.00000000000E+00  0.00000000000E+00  0.54852499014E+03  0.54852499014E+03  0.00000000000E+00 0. -1.
         -2   -1    0    0    0  501 -0.00000000000E+00 -0.00000000000E+00 -0.29697483189E+02  0.29697483189E+02  0.00000000000E+00 0.  1.
         23    2    1    2    0    0 -0.15162667245E+02 -0.35319163758E+01  0.37921161121E+03  0.39011666398E+03  0.90261755655E+02 0.  0.
          5    1    1    2  502    0  0.22515526325E+02  0.62458153405E+02  0.74608143433E+02  0.99959078222E+02  0.41800000000E+01 0. -1.
         -5    1    1    2    0  502 -0.73528590795E+01 -0.58926237029E+02  0.65007752315E+02  0.88146731126E+02  0.41800000000E+01 0. -1.
        -11    1    3    3    0    0  0.30902943691E+02  0.21628794591E+02  0.12613872181E+03  0.13165779060E+03  0.00000000000E+00 0.  1.
         11    1    3    3    0    0 -0.46065610936E+02 -0.25160710966E+02  0.25307288939E+03  0.25845887339E+03  0.00000000000E+00 0. -1.
</event>
<event>
 7    1  0.6145388E-006  0.6131506E+02  0.7561462E-02  0.1392394E+00
          1   -1    0    0  501    0  0.00000000000E+00  0.00000000000E+00  0.69134282011E+02  0.69134282011E+02  0.00000000000E+00 0. -1.
         -1   -1    0    0    0  501 -0.00000000000E+00 -0.00000000000E+00 -0.20319346942E+03  0.20319346942E+03  0.00000000000E+00 0.  1.
         23    2    1    2    0    0 -0.19633223192E+00 -0.25559761479E+02 -0.11936520877E+02  0.95653997651E+02  0.91399490057E+02 0.  0.
          5    1    1    2  502    0 -0.13636134315E+02  0.14342330839E+02 -0.14555093030E+03  0.14694962513E+03  0.41800000000E+01 0. -1.
         -5    1    1    2    0  502  0.13832466547E+02  0.11217430640E+02  0.23428263771E+02  0.29724128654E+02  0.41800000000E+01 0. -1.
        -11    1    3    3    0    0  0.26442045107E+02 -0.44264382724E+02  0.14677406781E+02  0.53609174562E+02  0.00000000000E+00 0. -1.
         11    1    3    3    0    0 -0.26638377339E+02  0.18704621246E+02 -0.26613927658E+02  0.42044823089E+02  0.00000000000E+00 0.  1.
</event>
<event>
 7    1  0.6145388E-006  0.6734553E+02  0.7561462E-02  0.1369360E+00
         -2   -1    0    0    0  501 -0.00000000000E+00  0.00000000000E+00  0.36031635598E+02  0.36031635598E+02  0.00000000000E+00 0.  1.
          2   -1    0    0  501    0  0.00000000000E+00 -0.00000000000E+00 -0.49517044722E+03  0.49517044722E+03  0.00000000000E+00 0. -1.
         23    2    1    2    0    0 -0.70989755270E+01 -0.23946260945E+02 -0.35718702926E+03  0.36949947482E+03  0.91233048589E+02 0.  0.
          5    1    1    2  502    0 -0.12804024136E+02  0.16679018756E+02 -0.12690405059E+03  0.12870214900E+03  0.41800000000E+01 0. -1.
         -5    1    1    2    0  502  0.19902999663E+02  0.72672421891E+01  0.24952268225E+02  0.33000459000E+02  0.41800000000E+01 0.  1.
        -11    1    3    3    0    0  0.60603194715E+01 -0.56353770547E+02 -0.26273660830E+03  0.26878058015E+03  0.00000000000E+00 0.  1.
         11    1    3    3    0    0 -0.13159294999E+02  0.32407509602E+02 -0.94450420961E+02  0.10071889467E+03  0.00000000000E+00 0. -1.
</event>
<event>
 7    1  0.6145388E-006  0.1217217E+03  0.7561462E-02  0.1240284E+00
         -2   -1    0    0    0  501 -0.00000000000E+00  0.00000000000E+00  0.59747372020E+02  0.59747372020E+02  0.00000000000E+00 0.  1.
          2   -1    0    0  501    0  0.00000000000E+00 -0.00000000000E+00 -0.30895132824E+03  0.30895132824E+03  0.00000000000E+00 0. -1.
         23    2    1    2    0    0 -0.45628545221E+02 -0.54452677292E+02 -0.16662062910E+03  0.20281904455E+03  0.91247315515E+02 0.  0.
          5    1    1    2  502    0 -0.20670570300E+02  0.67566384521E+02 -0.64578368701E+02  0.95814022449E+02  0.41800000000E+01 0.  1.
         -5    1    1    2    0  502  0.66299115521E+02 -0.13113707229E+02 -0.18004958419E+02  0.70065633258E+02  0.41800000000E+01 0.  1.
        -11    1    3    3    0    0 -0.21945713121E+01 -0.60987259775E+02 -0.13661387781E+03  0.14962490972E+03  0.00000000000E+00 0. -1.
         11    1    3    3    0    0 -0.43433973909E+02  0.65345824837E+01 -0.30006751288E+02  0.53194134833E+02  0.00000000000E+00 0.  1.
</event>
<event>
 7    1  0.6145388E-006  0.1403949E+03  0.7561462E-02  0.1212799E+00
         -1   -1    0    0    0  501 -0.00000000000E+00  0.00000000000E+00  0.61251444553E+02  0.61251444553E+02  0.00000000000E+00 0.  1.
          1   -1    0    0  501    0  0.00000000000E+00 -0.00000000000E+00 -0.39933025166E+03  0.39933025166E+03  0.00000000000E+00 0. -1.
         23    2    1    2    0    0 -0.11951556544E+01  0.10321425002E+03 -0.22299289541E+03  0.26171653308E+03  0.90083863580E+02 0.  0.
          5    1    1    2  502    0  0.56975142219E+02 -0.86430268091E+02 -0.69112444326E+02  0.12454059753E+03  0.41800000000E+01 0. -1.
         -5    1    1    2    0  502 -0.55779986564E+02 -0.16783981927E+02 -0.45973467370E+02  0.74324565606E+02  0.41800000000E+01 0. -1.
        -11    1    3    3    0    0  0.28191185733E+02  0.38560447153E+02 -0.30834544964E+02  0.56854377147E+02  0.00000000000E+00 0.  1.
         11    1    3    3    0    0 -0.29386341388E+02  0.64653802865E+02 -0.19215835045E+03  0.20486215593E+03  0.00000000000E+00 0. -1.
</event>
<event>
 7    1  0.6145388E-006  0.1825930E+03  0.7561462E-02  0.1165317E+00
         -2   -1    0    0    0  501 -0.00000000000E+00  0.00000000000E+00  0.12199039369E+03  0.12199039369E+03  0.00000000000E+00 0.  1.
          2   -1    0    0  501    0  0.00000000000E+00 -0.00000000000E+00 -0.28819575336E+03  0.28819575336E+03  0.00000000000E+00 0. -1.
         23    2    1    2    0    0  0.14975909144E+03 -0.32941560100E+02 -0.78527795023E+02  0.19374419084E+03  0.88641215257E+02 0.  0.
          5    1    1    2  502    0 -0.12300457010E+03  0.74081797513E+02 -0.85437884591E+02  0.16713868945E+03  0.41800000000E+01 0. -1.
         -5    1    1    2    0  502 -0.26754521332E+02 -0.41140237413E+02 -0.22396800577E+01  0.49303266756E+02  0.41800000000E+01 0. -1.
        -11    1    3    3    0    0  0.12791795600E+03  0.55364271734E+01 -0.77135626919E+02  0.14947762520E+03  0.00000000000E+00 0. -1.
         11    1    3    3    0    0  0.21841135431E+02 -0.38477987273E+02 -0.13921681044E+01  0.44266565640E+02  0.00000000000E+00 0.  1.
</event>
<event>
 7    1  0.6145388E-006  0.3343424E+03  0.7561462E-02  0.1069231E+00
          4   -1    0    0  501    0  0.00000000000E+00  0.00000000000E+00  0.52471051095E+03  0.52471051095E+03  0.00000000000E+00 0.  1.
         -4   -1    0    0    0  501 -0.00000000000E+00 -0.00000000000E+00 -0.25788284986E+03  0.25788284986E+03  0.00000000000E+00 0. -1.
         23    2    1    2    0    0 -0.28390264613E+03  0.16270421917E+03  0.26694092235E+03  0.43227563879E+03  0.92365558843E+02 0.  0.
          5    1    1    2  502    0  0.14680244351E+03 -0.66969146512E+02  0.60540957144E+02  0.17239055629E+03  0.41800000000E+01 0. -1.
         -5    1    1    2    0  502  0.13710020261E+03 -0.95735072655E+02 -0.60654218409E+02  0.17792716573E+03  0.41800000000E+01 0. -1.
        -11    1    3    3    0    0 -0.11511304254E+03  0.11917750123E+03  0.12932089126E+03  0.21018606585E+03  0.00000000000E+00 0.  1.
         11    1    3    3    0    0 -0.16878960358E+03  0.43526717934E+02  0.13762003109E+03  0.22208957294E+03  0.00000000000E+00 0. -1.
</event>
<event>
 7    1  0.6145388E-006  0.1579280E+03  0.7561462E-02  0.1191056E+00
          2   -1    0    0  501    0  0.00000000000E+00  0.00000000000E+00  0.25170900900E+03  0.25170900900E+03  0.00000000000E+00 0. -1.
         -2   -1    0    0    0  501 -0.00000000000E+00 -0.00000000000E+00 -0.11740901972E+03  0.11740901972E+03  0.00000000000E+00 0.  1.
         23    2    1    2    0    0  0.10869829224E+03 -0.62745910752E+02  0.11656170565E+03  0.19103199930E+03  0.84582654734E+02 0.  0.
          5    1    1    2  502    0 -0.13354478087E+03  0.52815062136E+02 -0.34322343749E+01  0.14371114056E+03  0.41800000000E+01 0. -1.
         -5    1    1    2    0  502  0.24846488632E+02  0.99308486163E+01  0.21170518006E+02  0.34374888861E+02  0.41800000000E+01 0. -1.
        -11    1    3    3    0    0  0.10473668885E+02  0.16059955011E+02  0.38116785835E+02  0.42667426185E+02  0.00000000000E+00 0.  1.
         11    1    3    3    0    0  0.98224623357E+02 -0.78805865762E+02  0.78444919813E+02  0.14836457312E+03  0.00000000000E+00 0. -1.
</event>
<event>
 7    1  0.6145388E-006  0.1102717E+03  0.7561462E-02  0.1260068E+00
         -2   -1    0    0    0  501 -0.00000000000E+00  0.00000000000E+00  0.40304677493E+02  0.40304677493E+02  0.00000000000E+00 0.  1.
          2   -1    0    0  501    0  0.00000000000E+00 -0.00000000000E+00 -0.46183718870E+03  0.46183718870E+03  0.00000000000E+00 0. -1.
         23    2    1    2    0    0  0.11215432610E+02 -0.56612653530E+02 -0.29928313326E+03  0.31795617393E+03  0.90525997459E+02 0.  0.
          5    1    1    2  502    0 -0.38645872021E+02  0.76681872419E+02 -0.39462519336E+02  0.94595855165E+02  0.41800000000E+01 0. -1.
         -5    1    1    2    0  502  0.27430439412E+02 -0.20069218889E+02 -0.82786858612E+02  0.89589837102E+02  0.41800000000E+01 0. -1.
        -11    1    3    3    0    0  0.22131633461E+02 -0.75409964693E+02 -0.27169602629E+03  0.28283423180E+03  0.00000000000E+00 0. -1.
         11    1    3    3    0    0 -0.10916200851E+02  0.18797311162E+02 -0.27587106968E+02  0.35121942128E+02  0.00000000000E+00 0.  1.
</event>
<event>
 7    1  0.6145388E-006  0.1860099E+03  0.7561462E-02  0.1162110E+00
         -2   -1    0    0    0  501 -0.00000000000E+00  0.00000000000E+00  0.46818711577E+03  0.46818711577E+03  0.00000000000E+00 0.  1.
          2   -1    0    0  501    0  0.00000000000E+00 -0.00000000000E+00 -0.90373814661E+02  0.90373814661E+02  0.00000000000E+00 0. -1.
         23    2    1    2    0    0  0.15577492518E+03 -0.76587546250E+02  0.16067646133E+03  0.25369946859E+03  0.91733394046E+02 0.  0.
          5    1    1    2  502    0 -0.93057735767E+02  0.23720201053E+02  0.19863349694E+03  0.22066972749E+03  0.41800000000E+01 0. -1.
         -5    1    1    2    0  502 -0.62717189416E+02  0.52867345197E+02  0.18503342843E+02  0.84191734350E+02  0.41800000000E+01 0. -1.
        -11    1    3    3    0    0  0.36475653092E+02 -0.64178158597E+02  0.41826118642E+02  0.84845350550E+02  0.00000000000E+00 0. -1.
         11    1    3    3    0    0  0.11929927209E+03 -0.12409387653E+02  0.11885034269E+03  0.16885411804E+03  0.00000000000E+00 0.  1.
</event>
<event>
 7    1  0.6145388E-006  0.1227867E+03  0.7561462E-02  0.1238569E+00
         -1   -1    0    0    0  501 -0.00000000000E+00  0.00000000000E+00  0.22136785398E+03  0.22136785398E+03  0.00000000000E+00 0.  1.
          1   -1    0    0  501    0  0.00000000000E+00 -0.00000000000E+00 -0.13261985688E+03  0.13261985688E+03  0.00000000000E+00 0. -1.
         23    2    1    2    0    0  0.52841750928E+02 -0.74251468769E+02 -0.57317486233E+02  0.14117332942E+03  0.91318582209E+02 0.  0.
          5    1    1    2  502    0  0.23668768698E+02  0.72942136039E+02  0.59149807359E+02  0.96937804453E+02  0.41800000000E+01 0. -1.
         -5    1    1    2    0  502 -0.76510519626E+02  0.13093327304E+01  0.86915675974E+02  0.11587657699E+03  0.41800000000E+01 0. -1.
        -11    1    3    3    0    0  0.41119960722E+02 -0.46859989222E+02  0.13988072141E+02  0.63893473234E+02  0.00000000000E+00 0.  1.
         11    1    3    3    0    0  0.11721790205E+02 -0.27391479547E+02 -0.71305558374E+02  0.77279856188E+02  0.00000000000E+00 0. -1.
</event>
<event>
 7    1  0.6145388E-006  0.1103117E+03  0.7561462E-02  0.1259994E+00
         -3   -1    0    0    0  501 -0.00000000000E+00  0.00000000000E+00  0.34663068947E+03  0.34663068947E+03  0.00000000000E+00 0.  1.
          3   -1    0    0  501    0  0.00000000000E+00 -0.00000000000E+00 -0.35381883037E+02  0.35381883037E+02  0.00000000000E+00 0. -1.
         23    2    1    2    0    0  0.98141819752E+01  0.22079682945E+02  0.12786232662E+03  0.15871513141E+03  0.90872921169E+02 0.  0.
          5    1    1    2  502    0  0.54736925847E+02 -0.28799416657E+02  0.98068849285E+02  0.11601943394E+03  0.41800000000E+01 0. -1.
         -5    1    1    2    0  502 -0.64551107822E+02  0.67197337127E+01  0.85317630532E+02  0.10727800717E+03  0.41800000000E+01 0. -1.
        -11    1    3    3    0    0  0.75305219731E+01 -0.35339266054E+02  0.42082912905E+02  0.55466602970E+02  0.00000000000E+00 0.  1.
         11    1    3    3    0    0  0.22836600021E+01  0.57418948998E+02  0.85779413715E+02  0.10324852844E+03  0.00000000000E+00 0. -1.
</event>
<event>
 7    1  0.6145388E-006  0.1043415E+03  0.7561462E-02  0.1271423E+00
         -4   -1    0    0    0  501 -0.00000000000E+00  0.00000000000E+00  0.34210031407E+03  0.34210031407E+03  0.00000000000E+00 0.  1.
          4   -1    0    0  501    0  0.00000000000E+00 -0.00000000000E+00 -0.39216146921E+02  0.39216146921E+02  0.00000000000E+00 0. -1.
         23    2    1    2    0    0  0.28988476687E+02 -0.12312116173E+02  0.84357090763E+02  0.12755486755E+03  0.90344925078E+02 0.  0.
          5    1    1    2  502    0 -0.33105242857E+02 -0.53356926514E+02  0.11257560336E+03  0.12897153788E+03  0.41800000000E+01 0. -1.
         -5    1    1    2    0  502  0.41167661695E+01  0.65669042687E+02  0.10595147303E+03  0.12479005556E+03  0.41800000000E+01 0. -1.
        -11    1    3    3    0    0  0.53473295500E+02 -0.14006774127E+02  0.86782306418E+02  0.10289194215E+03  0.00000000000E+00 0.  1.
         11    1    3    3    0    0 -0.24484818813E+02  0.16946579542E+01 -0.24252156552E+01  0.24662925391E+02  0.00000000000E+00 0. -1.
</event>
<event>
 7    1  0.6145388E-006  0.9634309E+02  0.7561462E-02  0.1288179E+00
         -3   -1    0    0    0  501 -0.00000000000E+00  0.00000000000E+00  0.47604328814E+02  0.47604328814E+02  0.00000000000E+00 0.  1.
          3   -1    0    0  501    0  0.00000000000E+00 -0.00000000000E+00 -0.28467937713E+03  0.28467937713E+03  0.00000000000E+00 0. -1.
         23    2    1    2    0    0 -0.99288559380E+01  0.11533981207E+02 -0.16088003903E+03  0.18502582321E+03  0.90114113164E+02 0.  0.
          5    1    1    2  502    0 -0.38184923691E+02  0.20657037284E+02 -0.77804451663E+02  0.89195328831E+02  0.41800000000E+01 0. -1.
         -5    1    1    2    0  502  0.48113779629E+02 -0.32191018491E+02  0.16094423779E+01  0.58062553909E+02  0.41800000000E+01 0. -1.
        -11    1    3    3    0    0 -0.73969164151E+01  0.50974888524E+02 -0.99073936306E+02  0.11166377429E+03  0.00000000000E+00 0.  1.
         11    1    3    3    0    0 -0.25319395229E+01 -0.39440907316E+02 -0.61806102729E+02  0.73362048923E+02  0.00000000000E+00 0. -1.
</event>
<event>
 7    1  0.6145388E-006  0.1709519E+03  0.7561462E-02  0.1176859E+00
         -2   -1    0    0    0  501 -0.00000000000E+00  0.00000000000E+00  0.10342930824E+03  0.10342930824E+03  0.00000000000E+00 0.  1.
          2   -1    0    0  501    0  0.00000000000E+00 -0.00000000000E+00 -0.77345301006E+03  0.77345301006E+03  0.00000000000E+00 0. -1.
         23    2    1    2    0    0  0.32800492771E+02 -0.57268880647E+02 -0.20239299561E+03  0.23191782933E+03  0.92018247495E+02 0.  0.
          5    1    1    2  502    0 -0.11631902300E+03 -0.17636887274E+02 -0.51117038492E+03  0.52455105540E+03  0.41800000000E+01 0. -1.
         -5    1    1    2    0  502  0.83518530232E+02  0.74905767921E+02  0.43539678718E+02  0.12041343356E+03  0.41800000000E+01 0.  1.
        -11    1    3    3    0    0  0.58540698541E+02 -0.11877908396E+02 -0.90228725715E+02  0.10820961620E+03  0.00000000000E+00 0.  1.
         11    1    3    3    0    0 -0.25740205770E+02 -0.45390972251E+02 -0.11216426990E+03  0.12370821314E+03  0.00000000000E+00 0. -1.
</event>
<event>
 7    1  0.6145388E-006  0.2131028E+03  0.7561462E-02  0.1139132E+00
          1   -1    0    0  501    0  0.00000000000E+00  0.00000000000E+00  0.62526840881E+03  0.62526840881E+03  0.00000000000E+00 0. -1.
         -1   -1    0    0    0  501 -0.00000000000E+00 -0.00000000000E+00 -0.79075541653E+02  0.79075541653E+02  0.00000000000E+00 0.  1.
         23    2    1    2    0    0 -0.18987995862E+03 -0.49805545040E+02  0.26403535504E+03  0.33864317630E+03  0.80184419547E+02 0.  0.
          5    1    1    2  502    0  0.46165826864E+02 -0.36639361768E+02  0.11268939995E+03  0.12724032247E+03  0.41800000000E+01 0.  1.
         -5    1    1    2    0  502  0.14371413176E+03  0.86444906808E+02  0.16946811216E+03  0.23846045169E+03  0.41800000000E+01 0.  1.
        -11    1    3    3    0    0 -0.98728300505E+02 -0.43801278783E+02  0.19928779342E+03  0.22667477573E+03  0.00000000000E+00 0. -1.
         11    1    3    3    0    0 -0.91151658119E+02 -0.60042662570E+01  0.64747561621E+02  0.11196840057E+03  0.00000000000E+00 0.  1.
</event>
<event>
 7    1  0.6145388E-006  0.1479983E+03  0.7561462E-02  0.1202954E+00
          2   -1    0    0  501    0  0.00000000000E+00  0.00000000000E+00  0.47226230672E+02  0.47226230672E+02  0.00000000000E+00 0. -1.
         -2   -1    0    0    0  501 -0.00000000000E+00 -0.00000000000E+00 -0.61431378320E+03  0.61431378320E+03  0.00000000000E+00 0.  1.
         23    2    1    2    0    0 -0.89424523913E+02 -0.93710409804E+02 -0.22237923441E+03  0.27263116807E+03  0.89982462311E+02 0.  0.
          5    1    1    2  502    0 -0.43549715705E+01  0.15437560281E+02 -0.19473274223E+03  0.19543693955E+03  0.41800000000E+01 0.  1.
         -5    1    1    2    0  502  0.93779495484E+02  0.78272849524E+02 -0.14997557589E+03  0.19347190626E+03  0.41800000000E+01 0.  1.
        -11    1    3    3    0    0 -0.33743171680E+02  0.13536281658E+02 -0.61184872398E+02  0.71171772259E+02  0.00000000000E+00 0.  1.
         11    1    3    3    0    0 -0.55681352233E+02 -0.10724669146E+03 -0.16119436201E+03  0.20145939581E+03  0.00000000000E+00 0. -1.
</event>
<event>
 7    1  0.6145388E-006  0.7647873E+02  0.7561462E-02  0.1339352E+00
          4   -1    0    0  501    0  0.00000000000E+00  0.00000000000E+00  0.67691835318E+03  0.67691835318E+03  0.00000000000E+00 0. -1.
         -4   -1    0    0    0  501 -0.00000000000E+00 -0.00000000000E+00 -0.23871484522E+02  0.23871484522E+02  0.00000000000E+00 0.  1.
         23    2    1    2    0    0 -0.14995073139E+02  0.35106142100E+02  0.43807241947E+03  0.44915747597E+03  0.91529777061E+02 0.  0.
          5    1    1    2  502    0  0.14240121845E+02 -0.42896895409E+02  0.22986200631E+03  0.23430095827E+03  0.41800000000E+01 0. -1.
         -5    1    1    2    0  502  0.75495129354E+00  0.77907533093E+01 -0.14887557121E+02  0.17331403452E+02  0.41800000000E+01 0. -1.
        -11    1    3    3    0    0  0.35197215535E+02  0.33321824776E+02  0.19313205802E+03  0.19912101804E+03  0.00000000000E+00 0.  1.
         11    1    3    3    0    0 -0.50192288673E+02  0.17843173241E+01  0.24494036145E+03  0.25003645794E+03  0.00000000000E+00 0. -1.
</event>
<event>
 7    1  0.6145388E-006  0.1894279E+03  0.7561462E-02  0.1158978E+00
         -2   -1    0    0    0  501 -0.00000000000E+00  0.00000000000E+00  0.10807823770E+03  0.10807823770E+03  0.00000000000E+00 0. -1.
          2   -1    0    0  501    0  0.00000000000E+00 -0.00000000000E+00 -0.34466922792E+03  0.34466922792E+03  0.00000000000E+00 0.  1.
         23    2    1    2    0    0  0.14643048158E+03 -0.50818742413E+02 -0.15343393432E+03  0.23690603051E+03  0.92509808000E+02 0.  0.
          5    1    1    2  502    0 -0.15286920177E+03  0.57016537578E+01 -0.69551509735E+02  0.16809636109E+03  0.41800000000E+01 0. -1.
         -5    1    1    2    0  502  0.64387201919E+01  0.45117088655E+02 -0.13605546174E+02  0.47745074019E+02  0.41800000000E+01 0. -1.
        -11    1    3    3    0    0  0.69950825627E+02 -0.72318543488E+02 -0.93978885975E+02  0.13767759711E+03  0.00000000000E+00 0.  1.
         11    1    3    3    0    0  0.76479655952E+02  0.21499801075E+02 -0.59455048340E+02  0.99228433395E+02  0.00000000000E+00 0. -1.
</event>
<event>
 7    1  0.6145388E-006  0.1571980E+03  0.7561462E-02  0.1191897E+00
         -1   -1    0    0    0  501 -0.00000000000E+00  0.00000000000E+00  0.14135165773E+03  0.14135165773E+03  0.00000000000E+00 0.  1.
          1   -1    0    0  501    0  0.00000000000E+00 -0.00000000000E+00 -0.23096221651E+03  0.23096221651E+03  0.00000000000E+00 0. -1.
         23    2    1    2    0    0 -0.10893610666E+03 -0.92386212844E+02 -0.19055667158E+02  0.16976059296E+03  0.89739917619E+02 0.  0.
          5    1    1    2  502    0 -0.59933035706E+01 -0.91208548260E+01  0.20913700089E+02  0.23957565233E+02  0.41800000000E+01 0. -1.
         -5    1    1    2    0  502  0.11492941023E+03  0.10150706767E+03 -0.91468591706E+02  0.17859571605E+03  0.41800000000E+01 0. -1.
        -11    1    3    3    0    0 -0.71457692020E+01 -0.27936937158E+02  0.28212144652E+02  0.40341784556E+02  0.00000000000E+00 0.  1.
         11    1    3    3    0    0 -0.10179033746E+03 -0.64449275686E+02 -0.47267811810E+02  0.12941880841E+03  0.00000000000E+00 0. -1.
</event>
<event>
 7    1  0.6145388E-006  0.1373653E+03  0.7561462E-02  0.1216919E+00
          1   -1    0    0  501    0  0.00000000000E+00  0.00000000000E+00  0.36376092133E+03  0.36376092133E+03  0.00000000000E+00 0.  1.
         -1   -1    0    0    0  501 -0.00000000000E+00 -0.00000000000E+00 -0.64954678747E+02  0.64954678747E+02  0.00000000000E+00 0. -1.
         23    2    1    2    0    0  0.51032800845E+02  0.94340134592E+02  0.11661328806E+03  0.18305909092E+03  0.91692769952E+02 0.  0.
          5    1    1    2  502    0  0.34965850843E+02 -0.21037581649E+02  0.92970490674E+02  0.10161778930E+03  0.41800000000E+01 0.  1.
         -5    1    1    2    0  502 -0.85998651688E+02 -0.73302552943E+02  0.89222463853E+02  0.14403871985E+03  0.41800000000E+01 0.  1.
        -11    1    3    3    0    0  0.22912624231E+01  0.62214447766E+02  0.12208489025E+02  0.63442372265E+02  0.00000000000E+00 0. -1.
         11    1    3    3    0    0  0.48741538421E+02  0.32125686826E+02  0.10440479903E+03  0.11961671866E+03  0.00000000000E+00 0.  1.
</event>
<event>
 7    1  0.6145388E-006  0.1588624E+03  0.7561462E-02  0.1189987E+00
         -1   -1    0    0    0  501 -0.00000000000E+00  0.00000000000E+00  0.48825659021E+02  0.48825659021E+02  0.00000000000E+00 0.  1.
          1   -1    0    0  501    0  0.00000000000E+00 -0.00000000000E+00 -0.82445241861E+03  0.82445241861E+03  0.00000000000E+00 0. -1.
         23    2    1    2    0    0  0.22051293233E+02 -0.11174630676E+03 -0.53628682536E+03  0.55641257916E+03  0.94962637834E+02 0.  0.
          5    1    1    2  502    0  0.54939096852E+02  0.19298051286E+02 -0.16584993761E+03  0.17582489400E+03  0.41800000000E+01 0. -1.
         -5    1    1    2    0  502 -0.76990390084E+02  0.92448255472E+02 -0.73489996616E+02  0.14104060446E+03  0.41800000000E+01 0.  1.
        -11    1    3    3    0    0  0.51417453393E+02 -0.84444780972E+02 -0.45689950505E+03  0.46747388511E+03  0.00000000000E+00 0. -1.
         11    1    3    3    0    0 -0.29366160160E+02 -0.27301525786E+02 -0.79387320312E+02  0.88938694049E+02  0.00000000000E+00 0.  1.
</event>
<event>
 7    1  0.6145388E-006  0.1662380E+03  0.7561462E-02  0.1181829E+00
          2   -1    0    0  501    0  0.00000000000E+00  0.00000000000E+00  0.13132092227E+04  0.13132092227E+04  0.00000000000E+00 0. -1.
         -2   -1    0    0    0  501 -0.00000000000E+00 -0.00000000000E+00 -0.25630978374E+02  0.25630978374E+02  0.00000000000E+00 0.  1.
         23    2    1    2    0    0  0.84264906905E+01  0.12922391461E+03  0.53088046035E+03  0.56101757546E+03  0.12703082670E+03 0.  0.
          5    1    1    2  502    0 -0.59771642407E+02 -0.70832779086E+02  0.53165224278E+03  0.53968649370E+03  0.41800000000E+01 0.  1.
         -5    1    1    2    0  502  0.51345151717E+02 -0.58391135529E+02  0.22504554117E+03  0.23813613190E+03  0.41800000000E+01 0.  1.
        -11    1    3    3    0    0 -0.23975724587E+02  0.12712090527E+03  0.49906457044E+03  0.51555795542E+03  0.00000000000E+00 0. -1.
         11    1    3    3    0    0  0.32402215277E+02  0.21030093467E+01  0.31815889916E+02  0.45459620041E+02  0.00000000000E+00 0.  1.
</event>
<event>
 7    1  0.6145388E-006  0.9363602E+02  0.7561462E-02  0.1294278E+00
         -2   -1    0    0    0  501 -0.00000000000E+00  0.00000000000E+00  0.31768520720E+02  0.31768520720E+02  0.00000000000E+00 0.  1.
          2   -1    0    0  501    0  0.00000000000E+00 -0.00000000000E+00 -0.39254440461E+03  0.39254440461E+03  0.00000000000E+00 0. -1.
         23    2    1    2    0    0 -0.25657036477E+02 -0.11185807677E+02 -0.14768467295E+03  0.17563734946E+03  0.90853233770E+02 0.  0.
          5    1    1    2  502    0  0.34504089282E+02 -0.36285803898E+02 -0.18699368969E+03  0.19362671335E+03  0.41800000000E+01 0.  1.
         -5    1    1    2    0  502 -0.88470528056E+01  0.47471611574E+02 -0.26097521251E+02  0.55048862516E+02  0.41800000000E+01 0.  1.
        -11    1    3    3    0    0 -0.54140140887E+02  0.72562304764E+01 -0.11998763297E+03  0.13183641303E+03  0.00000000000E+00 0. -1.
         11    1    3    3    0    0  0.28483104411E+02 -0.18442038153E+02 -0.27697039984E+02  0.43800936428E+02  0.00000000000E+00 0.  1.
</event>
<event>
 7    1  0.6145388E-006  0.7744703E+02  0.7561462E-02  0.1336457E+00
          1   -1    0    0  501    0  0.00000000000E+00  0.00000000000E+00  0.22200103023E+03  0.22200103023E+03  0.00000000000E+00 0. -1.
         -1   -1    0    0    0  501 -0.00000000000E+00 -0.00000000000E+00 -0.54994441456E+02  0.54994441456E+02  0.00000000000E+00 0.  1.
         23    2    1    2    0    0 -0.69569989857E+01 -0.22260178739E+02  0.94452319115E+02  0.13051959267E+03  0.87006942787E+02 0.  0.
          5    1    1    2  502    0  0.54934230328E+02  0.11878153989E+02 -0.28200113471E+01  0.56429469853E+02  0.41800000000E+01 0. -1.
         -5    1    1    2    0  502 -0.47977231342E+02  0.10382024750E+02  0.75374281007E+02  0.90046409160E+02  0.41800000000E+01 0. -1.
        -11    1    3    3    0    0 -0.17533019493E+02  0.64435923336E+01  0.97963562631E+02  0.99728562900E+02  0.00000000000E+00 0. -1.
         11    1    3    3    0    0  0.10576020507E+02 -0.28703771073E+02 -0.35112435156E+01  0.30791029775E+02  0.00000000000E+00 0.  1.
</event>
<event>
 7    1  0.6145388E-006  0.8669278E+02  0.7561462E-02  0.1311064E+00
          3   -1    0    0  501    0  0.00000000000E+00  0.00000000000E+00  0.10588431443E+03  0.10588431443E+03  0.00000000000E+00 0. -1.
         -3   -1    0    0    0  501 -0.00000000000E+00 -0.00000000000E+00 -0.16664419866E+03  0.16664419866E+03  0.00000000000E+00 0.  1.
         23    2    1    2    0    0  0.26821887521E+02 -0.53390212913E+02  0.20645232429E+02  0.11176382542E+03  0.92168316490E+02 0.  0.
          5    1    1    2  502    0 -0.21332263803E+02  0.16983141604E+02  0.31536967372E+02  0.41899227782E+02  0.41800000000E+01 0.  1.
         -5    1    1    2    0  502 -0.54896237182E+01  0.36407071309E+02 -0.11294208404E+03  0.11886545990E+03  0.41800000000E+01 0.  1.
        -11    1    3    3    0    0 -0.19887060294E+02 -0.58470909528E+02  0.19499056791E+02  0.64765389244E+02  0.00000000000E+00 0. -1.
         11    1    3    3    0    0  0.46708947815E+02  0.50806966149E+01  0.11461756378E+01  0.46998436172E+02  0.00000000000E+00 0.  1.
</event>
<event>
 7    1  0.6145388E-006  0.1454557E+03  0.7561462E-02  0.1206171E+00
          1   -1    0    0  501    0  0.00000000000E+00  0.00000000000E+00  0.16101075990E+03  0.16101075990E+03  0.00000000000E+00 0. -1.
         -1   -1    0    0    0  501 -0.00000000000E+00 -0.00000000000E+00 -0.19750412145E+03  0.19750412145E+03  0.00000000000E+00 0.  1.
         23    2    1    2    0    0 -0.12474057255E+03 -0.66776486561E+02 -0.20541746558E+02  0.16898792860E+03  0.90086886197E+02 0.  0.
          5    1    1    2  502    0  0.96076895054E+02  0.67569520192E+02 -0.63691610239E+02  0.13368060232E+03  0.41800000000E+01 0.  1.
         -5    1    1    2    0  502  0.28663677497E+02 -0.79303363137E+00  0.47739995245E+02  0.55846350426E+02  0.41800000000E+01 0.  1.
        -11    1    3    3    0    0 -0.10256815948E+03 -0.41152038735E+02 -0.52551621941E+02  0.12237397844E+03  0.00000000000E+00 0.  1.
         11    1    3    3    0    0 -0.22172413072E+02 -0.25624447826E+02  0.32009875382E+02  0.46613950163E+02  0.00000000000E+00 0. -1.
</event>
<event>
 7    1  0.6145388E-006  0.8222972E+02  0.7561462E-02  0.1322840E+00
          3   -1    0    0  501    0  0.00000000000E+00  0.00000000000E+00  0.30756072845E+02  0.30756072845E+02  0.00000000000E+00 0.  1.
         -3   -1    0    0    0  501 -0.00000000000E+00 -0.00000000000E+00 -0.53707618047E+03  0.53707618047E+03  0.00000000000E+00 0. -1.
         23    2    1    2    0    0  0.96417345014E+01 -0.54189195591E+02 -0.97662780525E+02  0.14038223140E+03  0.84496865207E+02 0.  0.
          5    1    1    2  502    0 -0.19035682288E+02  0.18844450658E+02 -0.37956433285E+03  0.38053124141E+03  0.41800000000E+01 0. -1.
         -5    1    1    2    0  502  0.93939477869E+01  0.35344744932E+02 -0.29092994255E+02  0.46918780505E+02  0.41800000000E+01 0.  1.
        -11    1    3    3    0    0 -0.36028607324E+02 -0.37266580709E+02 -0.55772825891E+02  0.76141097256E+02  0.00000000000E+00 0.  1.
         11    1    3    3    0    0  0.45670341825E+02 -0.16922614882E+02 -0.41889954634E+02  0.64241134144E+02  0.00000000000E+00 0. -1.
</event>
<event>
 7    1  0.6145388E-006  0.1271900E+03  0.7561462E-02  0.1231686E+00
          2   -1    0    0  501    0  0.00000000000E+00  0.00000000000E+00  0.19500127126E+03  0.19500127126E+03  0.00000000000E+00 0. -1.
         -2   -1    0    0    0  501 -0.00000000000E+00 -0.00000000000E+00 -0.14303371956E+03  0.14303371956E+03  0.00000000000E+00 0.  1.
         23    2    1    2    0    0 -0.11802463654E+03  0.46531376692E+02  0.15851677342E+02  0.15624847817E+03  0.89818302188E+02 0.  0.
          5    1    1    2  502    0  0.10017987383E+03 -0.39269332944E+02  0.79688258441E+02  0.13396185489E+03  0.41800000000E+01 0.  1.
         -5    1    1    2    0  502  0.17844762710E+02 -0.72620437481E+01 -0.43572384087E+02  0.47824657768E+02  0.41800000000E+01 0.  1.
        -11    1    3    3    0    0 -0.65561072810E+02  0.28754284208E+02 -0.36213085882E+02  0.80227493526E+02  0.00000000000E+00 0.  1.
         11    1    3    3    0    0 -0.52463563734E+02  0.17777092484E+02  0.52064763224E+02  0.76020984646E+02  0.00000000000E+00 0. -1.
</event>
<event>
 7    1  0.6145388E-006  0.1167510E+03  0.7561462E-02  0.1248555E+00
         -2   -1    0    0    0  501 -0.00000000000E+00  0.00000000000E+00  0.14965087100E+03  0.14965087100E+03  0.00000000000E+00 0.  1.
          2   -1    0    0  501    0  0.00000000000E+00 -0.00000000000E+00 -0.16363508461E+03  0.16363508461E+03  0.00000000000E+00 0. -1.
         23    2    1    2    0    0  0.54838251381E+02 -0.15337221077E+02 -0.10402221706E+03  0.14898101632E+03  0.90179029813E+02 0.  0.
          5    1    1    2  502    0 -0.58355960335E+02  0.60428854223E+02  0.83314686608E+02  0.11838865627E+03  0.41800000000E+01 0.  1.
         -5    1    1    2    0  502  0.35177089539E+01 -0.45091633147E+02  0.67233168460E+01  0.45916283011E+02  0.41800000000E+01 0.  1.
        -11    1    3    3    0    0  0.16021995217E+02 -0.49644558725E+02 -0.35582938873E+02  0.63146116908E+02  0.00000000000E+00 0.  1.
         11    1    3    3    0    0  0.38816256164E+02  0.34307337648E+02 -0.68439278187E+02  0.85834899416E+02  0.00000000000E+00 0. -1.
</event>
<event>
 7    1  0.6145388E-006  0.8477026E+02  0.7561462E-02  0.1316034E+00
          1   -1    0    0  501    0  0.00000000000E+00  0.00000000000E+00  0.56750450407E+03  0.56750450407E+03  0.00000000000E+00 0. -1.
         -1   -1    0    0    0  501 -0.00000000000E+00 -0.00000000000E+00 -0.28956580031E+02  0.28956580031E+02  0.00000000000E+00 0.  1.
         23    2    1    2    0    0  0.26808326177E+02  0.58944875981E+02  0.28872200475E+03  0.30966116169E+03  0.91304185405E+02 0.  0.
          5    1    1    2  502    0  0.82398459945E+01  0.96940702619E+01 -0.93778618306E+01  0.16348906776E+02  0.41800000000E+01 0.  1.
         -5    1    1    2    0  502 -0.35048172172E+02 -0.68638946243E+02  0.25920378111E+03  0.27045101563E+03  0.41800000000E+01 0.  1.
        -11    1    3    3    0    0 -0.12782196234E+02  0.17245603924E+02  0.76820023218E+01  0.22799310405E+02  0.00000000000E+00 0.  1.
         11    1    3    3    0    0  0.39590522411E+02  0.41699272057E+02  0.28104000243E+03  0.28686185128E+03  0.00000000000E+00 0. -1.
</event>
<event>
 7    1  0.6145388E-006  0.1130280E+03  0.7561462E-02  0.1255063E+00
          1   -1    0    0  501    0  0.00000000000E+00  0.00000000000E+00  0.15799470219E+03  0.15799470219E+03  0.00000000000E+00 0. -1.
         -1   -1    0    0    0  501 -0.00000000000E+00 -0.00000000000E+00 -0.12125897555E+03  0.12125897555E+03  0.00000000000E+00 0.  1.
         23    2    1    2    0    0  0.30647139682E+02 -0.84256992525E+02  0.26039162322E+02  0.12497081668E+03  0.83073335603E+02 0.  0.
          5    1    1    2  502    0 -0.37770943927E+02  0.10019442163E+03 -0.28746057511E+02  0.11094762077E+03  0.41800000000E+01 0.  1.
         -5    1    1    2    0  502  0.71238042450E+01 -0.15937429108E+02  0.39442621833E+02  0.43335240285E+02  0.41800000000E+01 0.  1.
        -11    1    3    3    0    0 -0.91811175955E+01 -0.41539505455E+02  0.46557714432E+02  0.63066981908E+02  0.00000000000E+00 0. -1.
         11    1    3    3    0    0  0.39828257278E+02 -0.42717487069E+02 -0.20518552110E+02  0.61903834776E+02  0.00000000000E+00 0.  1.
</event>
<event>
 7    1  0.6145388E-006  0.1127374E+03  0.7561462E-02  0.1255583E+00
         -2   -1    0    0    0  501 -0.00000000000E+00  0.00000000000E+00  0.13076208401E+02  0.13076208401E+02  0.00000000000E+00 0.  1.
          2   -1    0    0  501    0  0.00000000000E+00 -0.00000000000E+00 -0.10187116270E+04  0.10187116270E+04  0.00000000000E+00 0. -1.
         23    2    1    2    0    0  0.30694302924E+02 -0.22898785035E+02 -0.38569513115E+03  0.39819335462E+03  0.91272771875E+02 0.  0.
          5    1    1    2  502    0 -0.61120999243E+02  0.57765778561E+02 -0.41429738396E+03  0.42276761522E+03  0.41800000000E+01 0.  1.
         -5    1    1    2    0  502  0.30426696319E+02 -0.34866993526E+02 -0.20564290353E+03  0.21082686560E+03  0.41800000000E+01 0.  1.
        -11    1    3    3    0    0 -0.26280692321E+02  0.11022715122E+02 -0.69420591381E+02  0.75042611530E+02  0.00000000000E+00 0.  1.
         11    1    3    3    0    0  0.56974995246E+02 -0.33921500157E+02 -0.31627453977E+03  0.32315074309E+03  0.00000000000E+00 0. -1.
</event>
<event>
 7    1  0.6145388E-006  0.1246689E+03  0.7561462E-02  0.1235588E+00
         -1   -1    0    0    0  501 -0.00000000000E+00  0.00000000000E+00  0.10331445659E+03  0.10331445659E+03  0.00000000000E+00 0.  1.
          1   -1    0    0  501    0  0.00000000000E+00 -0.00000000000E+00 -0.19484074076E+03  0.19484074076E+03  0.00000000000E+00 0. -1.
         23    2    1    2    0    0 -0.32257250284E+02 -0.69630147634E+02 -0.91498475767E+02  0.15140241945E+03  0.93068973846E+02 0.  0.
          5    1    1    2  502    0 -0.44934703215E+02  0.31384456586E+02  0.19492772686E+02  0.58322827908E+02  0.41800000000E+01 0. -1.
         -5    1    1    2    0  502  0.77191953499E+02  0.38245691048E+02 -0.19520581093E+02  0.88429949988E+02  0.41800000000E+01 0. -1.
        -11    1    3    3    0    0 -0.12661461757E+01 -0.76390041364E+02 -0.92116505951E+02  0.11967661515E+03  0.00000000000E+00 0.  1.
         11    1    3    3    0    0 -0.30991104108E+02  0.67598937302E+01  0.61803018439E+00  0.31725804299E+02  0.00000000000E+00 0. -1.
</event>
<event>
 7    1  0.6145388E-006  0.2175704E+03  0.7561462E-02  0.1135707E+00
          1   -1    0    0  501    0  0.00000000000E+00  0.00000000000E+00  0.18343079671E+04  0.18343079671E+04  0.00000000000E+00 0. -1.
         -1   -1    0    0    0  501 -0.00000000000E+00 -0.00000000000E+00 -0.30011880185E+02  0.30011880185E+02  0.00000000000E+00 0.  1.
         23    2    1    2    0    0  0.54363753728E+02 -0.19086223807E+03  0.11249212645E+04  0.11455850410E+04  0.86795294526E+02 0.  0.
          5    1    1    2  502    0  0.40193809295E+01 -0.10754164506E+02  0.64391824133E+01  0.13810971994E+02  0.41800000000E+01 0.  1.
         -5    1    1    2    0  502 -0.58383134658E+02  0.20161640258E+03  0.67293564007E+03  0.70492383438E+03  0.41800000000E+01 0.  1.
        -11    1    3    3    0    0  0.53157603581E+02 -0.52832358813E+02  0.30158609400E+03  0.31075900800E+03  0.00000000000E+00 0. -1.
         11    1    3    3    0    0  0.12061501470E+01 -0.13802987926E+03  0.82333517048E+03  0.83482603297E+03  0.00000000000E+00 0.  1.
</event>
<event>
 7    1  0.6145388E-006  0.1313445E+03  0.7561462E-02  0.1225474E+00
         -1   -1    0    0    0  501 -0.00000000000E+00  0.00000000000E+00  0.92898445216E+02  0.92898445216E+02  0.00000000000E+00 0.  1.
          1   -1    0    0  501    0  0.00000000000E+00 -0.00000000000E+00 -0.49517938034E+03  0.49517938034E+03  0.00000000000E+00 0. -1.
         23    2    1    2    0    0 -0.75625498496E+02 -0.68578385191E+02 -0.40467765431E+03  0.42659927948E+03  0.88321743768E+02 0.  0.
          5    1    1    2  502    0 -0.14648515361E+02  0.62987846005E+02  0.22740216721E+02  0.68677781001E+02  0.41800000000E+01 0.  1.
         -5    1    1    2    0  502  0.90274013857E+02  0.55905391864E+01 -0.20343497542E+02  0.92800765075E+02  0.41800000000E+01 0.  1.
        -11    1    3    3    0    0 -0.12559839061E+02  0.19709999719E+01 -0.18996924433E+01  0.12854696788E+02  0.00000000000E+00 0.  1.
         11    1    3    3    0    0 -0.63065659435E+02 -0.70549385163E+02 -0.40277796186E+03  0.41374458270E+03  0.00000000000E+00 0. -1.
</event>
<event>
 7    1  0.6145388E-006  0.1195439E+03  0.7561462E-02  0.1243851E+00
         -2   -1    0    0    0  501 -0.00000000000E+00  0.00000000000E+00  0.55540320775E+02  0.55540320775E+02  0.00000000000E+00 0.  1.
          2   -1    0    0  501    0  0.00000000000E+00 -0.00000000000E+00 -0.47541723832E+03  0.47541723832E+03  0.00000000000E+00 0. -1.
         23    2    1    2    0    0  0.58867353489E+02  0.79573501055E+02 -0.31647151558E+03  0.34085939427E+03  0.78953145011E+02 0.  0.
          5    1    1    2  502    0 -0.57067355124E+02 -0.96303600983E+02 -0.12134749166E+03  0.16514766942E+03  0.41800000000E+01 0.  1.
         -5    1    1    2    0  502 -0.17999983654E+01  0.16730099929E+02  0.17942089706E+02  0.24950495401E+02  0.41800000000E+01 0.  1.
        -11    1    3    3    0    0  0.48670544419E+02  0.25972116472E+02 -0.73861035681E+02  0.92189073755E+02  0.00000000000E+00 0.  1.
         11    1    3    3    0    0  0.10196809070E+02  0.53601384583E+02 -0.24261047990E+03  0.24867032051E+03  0.00000000000E+00 0. -1.
</event>
<event>
 7    1  0.6145388E-006  0.1288929E+03  0.7561462E-02  0.1229108E+00
         -2   -1    0    0    0  501 -0.00000000000E+00  0.00000000000E+00  0.35564136218E+02  0.35564136218E+02  0.00000000000E+00 0. -1.
          2   -1    0    0  501    0  0.00000000000E+00 -0.00000000000E+00 -0.52126975704E+03  0.52126975704E+03  0.00000000000E+00 0.  1.
         23    2    1    2    0    0 -0.75585658322E+02 -0.31425079714E+02 -0.24937084296E+03  0.27718592351E+03  0.89137486476E+02 0.  0.
          5    1    1    2  502    0  0.77388991549E+02 -0.32021190742E+02 -0.15670471703E+03  0.17773084541E+03  0.41800000000E+01 0.  1.
         -5    1    1    2    0  502 -0.18033332269E+01  0.63446270456E+02 -0.79630060825E+02  0.10191712433E+03  0.41800000000E+01 0.  1.
        -11    1    3    3    0    0 -0.20816244506E+02  0.24428028399E+02 -0.13403896498E+03  0.13782775025E+03  0.00000000000E+00 0.  1.
         11    1    3    3    0    0 -0.54769413816E+02 -0.55853108114E+02 -0.11533187798E+03  0.13935817326E+03  0.00000000000E+00 0. -1.
</event>
<event>
 7    1  0.6145388E-006  0.2063952E+03  0.7561462E-02  0.1144453E+00
          1   -1    0    0  501    0  0.00000000000E+00  0.00000000000E+00  0.11874324557E+03  0.11874324557E+03  0.00000000000E+00 0. -1.
         -1   -1    0    0    0  501 -0.00000000000E+00 -0.00000000000E+00 -0.44739236126E+03  0.44739236126E+03  0.00000000000E+00 0.  1.
         23    2    1    2    0    0  0.66297483581E+02  0.18746293935E+03 -0.10765370604E+03  0.24361017675E+03  0.90658082019E+02 0.  0.
          5    1    1    2  502    0 -0.33107960109E+02 -0.92801154875E+02 -0.24116024737E+02  0.10152460991E+03  0.41800000000E+01 0.  1.
         -5    1    1    2    0  502 -0.33189523472E+02 -0.94661784477E+02 -0.19687938492E+03  0.22100082016E+03  0.41800000000E+01 0.  1.
        -11    1    3    3    0    0  0.50768253865E+02  0.37770938147E+02 -0.96294229836E+01  0.64006133737E+02  0.00000000000E+00 0. -1.
         11    1    3    3    0    0  0.15529229716E+02  0.14969200120E+03 -0.98024283053E+02  0.17960404302E+03  0.00000000000E+00 0.  1.
</event>
<event>
 7    1  0.6145388E-006  0.1169537E+03  0.7561462E-02  0.1248209E+00
          1   -1    0    0  501    0  0.00000000000E+00  0.00000000000E+00  0.19201136080E+03  0.19201136080E+03  0.00000000000E+00 0. -1.
         -1   -1    0    0    0  501 -0.00000000000E+00 -0.00000000000E+00 -0.76368116633E+02  0.76368116633E+02  0.00000000000E+00 0.  1.
         23    2    1    2    0    0 -0.47054745678E+02  0.23420494097E+02  0.48182633210E+02  0.11685620925E+03  0.92580445359E+02 0.  0.
          5    1    1    2  502    0 -0.35967599696E+02 -0.26472159954E+02  0.48780642646E+02  0.66268144515E+02  0.41800000000E+01 0. -1.
         -5    1    1    2    0  502  0.83022345374E+02  0.30516658573E+01  0.18679968314E+02  0.85255123671E+02  0.41800000000E+01 0. -1.
        -11    1    3    3    0    0 -0.23067881461E+02  0.58778479416E+02  0.34718824808E+02  0.72058542822E+02  0.00000000000E+00 0.  1.
         11    1    3    3    0    0 -0.23986864217E+02 -0.35357985319E+02  0.13463808402E+02  0.44797666429E+02  0.00000000000E+00 0. -1.
</event>
<event>
 7    1  0.6145388E-006  0.1279193E+03  0.7561462E-02  0.1230576E+00
          1   -1    0    0  501    0  0.00000000000E+00  0.00000000000E+00  0.96535544361E+02  0.96535544361E+02  0.00000000000E+00 0. -1.
         -1   -1    0    0    0  501 -0.00000000000E+00 -0.00000000000E+00 -0.19975853011E+03  0.19975853011E+03  0.00000000000E+00 0.  1.
         23    2    1    2    0    0 -0.35956141367E+02 -0.63160282681E+02  0.43390589080E+01  0.11601461452E+03  0.90324403903E+02 0.  0.
          5    1    1    2  502    0  0.79846105038E+02  0.31141429377E+02 -0.86563275231E+02  0.12188462632E+03  0.41800000000E+01 0. -1.
         -5    1    1    2    0  502 -0.43889963670E+02  0.32018853303E+02 -0.20998769429E+02  0.58394833636E+02  0.41800000000E+01 0. -1.
        -11    1    3    3    0    0  0.17077819028E+02 -0.60036498730E+02  0.70776321773E+01  0.62818197680E+02  0.00000000000E+00 0. -1.
         11    1    3    3    0    0 -0.53033960396E+02 -0.31237839509E+01 -0.27385732694E+01  0.53196416843E+02  0.00000000000E+00 0.  1.
</event>
<event>
 7    1  0.6145388E-006  0.9100659E+02  0.7561462E-02  0.1300432E+00
          1   -1    0    0  501    0  0.00000000000E+00  0.00000000000E+00  0.17720044228E+03  0.17720044228E+03  0.00000000000E+00 0. -1.
         -1   -1    0    0    0  501 -0.00000000000E+00 -0.00000000000E+00 -0.94013507538E+02  0.94013507538E+02  0.00000000000E+00 0.  1.
         23    2    1    2    0    0 -0.51199744862E+02  0.45743925441E+02  0.56360581608E+02  0.12603480189E+03  0.89411048202E+02 0.  0.
          5    1    1    2  502    0  0.26481446129E+02 -0.36419482266E+02 -0.47861068073E+02  0.65846791225E+02  0.41800000000E+01 0.  1.
         -5    1    1    2    0  502  0.24718298733E+02 -0.93244431752E+01  0.74687421203E+02  0.79332356695E+02  0.41800000000E+01 0.  1.
        -11    1    3    3    0    0 -0.70848443594E+02  0.13259658245E+02  0.23467103245E+02  0.75802542379E+02  0.00000000000E+00 0.  1.
         11    1    3    3    0    0  0.19648698732E+02  0.32484267196E+02  0.32893478363E+02  0.50232259515E+02  0.00000000000E+00 0. -1.
</event>
<event>
 7    1  0.6145388E-006  0.1073771E+03  0.7561462E-02  0.1265506E+00
          1   -1    0    0  501    0  0.00000000000E+00  0.00000000000E+00  0.34404286701E+03  0.34404286701E+03  0.00000000000E+00 0. -1.
         -1   -1    0    0    0  501 -0.00000000000E+00 -0.00000000000E+00 -0.41529732738E+02  0.41529732738E+02  0.00000000000E+00 0.  1.
         23    2    1    2    0    0 -0.25872491255E+02  0.39230496211E+02  0.10899941144E+03  0.15040514728E+03  0.92371093956E+02 0.  0.
          5    1    1    2  502    0  0.36405126216E+02  0.31130132841E+02  0.29681247968E+02  0.56505462270E+02  0.41800000000E+01 0. -1.
         -5    1    1    2    0  502 -0.10532634961E+02 -0.70360629052E+02  0.16383247487E+03  0.17866199020E+03  0.41800000000E+01 0. -1.
        -11    1    3    3    0    0 -0.56264400161E+02  0.21591566435E+02  0.38164359188E+02  0.71332999228E+02  0.00000000000E+00 0.  1.
         11    1    3    3    0    0  0.30391908907E+02  0.17638929776E+02  0.70835052253E+02  0.79072148056E+02  0.00000000000E+00 0. -1.
</event>
<event>
 7    1  0.6145388E-006  0.1332719E+03  0.7561462E-02  0.1222680E+00
          2   -1    0    0  501    0  0.00000000000E+00  0.00000000000E+00  0.76453565880E+03  0.76453565880E+03  0.00000000000E+00 0. -1.
         -2   -1    0    0    0  501 -0.00000000000E+00 -0.00000000000E+00 -0.30915158834E+02  0.30915158834E+02  0.00000000000E+00 0.  1.
         23    2    1    2    0    0  0.90600825550E+02 -0.48849700939E+02  0.42972212930E+03  0.45106117224E+03  0.90555341216E+02 0.  0.
          5    1    1    2  502    0 -0.71286582088E+02  0.77067928677E+02  0.28777290300E+03  0.30635267016E+03  0.41800000000E+01 0.  1.
         -5    1    1    2    0  502 -0.19314243462E+02 -0.28218227738E+02  0.16125467672E+02  0.38036975233E+02  0.41800000000E+01 0.  1.
        -11    1    3    3    0    0 -0.31074613688E+01 -0.31592284579E+02  0.47427243091E+02  0.57070764393E+02  0.00000000000E+00 0.  1.
         11    1    3    3    0    0  0.93708286919E+02 -0.17257416359E+02  0.38229488621E+03  0.39399040785E+03  0.00000000000E+00 0. -1.
</event>
<event>
 7    1  0.6145388E-006  0.5316116E+02  0.7561462E-02  0.1429001E+00
         -2   -1    0    0    0  501 -0.00000000000E+00  0.00000000000E+00  0.13365983384E+03  0.13365983384E+03  0.00000000000E+00 0.  1.
          2   -1    0    0  501    0  0.00000000000E+00 -0.00000000000E+00 -0.91517490776E+02  0.91517490776E+02  0.00000000000E+00 0. -1.
         23    2    1    2    0    0 -0.41588259185E+01 -0.55735204806E+01 -0.16480687272E+02  0.86835701221E+02  0.84973325168E+02 0.  0.
          5    1    1    2  502    0  0.37321007250E+02 -0.12084612970E+02 -0.24907320601E+02  0.46655572790E+02  0.41800000000E+01 0.  1.
         -5    1    1    2    0  502 -0.33162181332E+02  0.17658133451E+02  0.83530350939E+02  0.91686050606E+02  0.41800000000E+01 0.  1.
        -11    1    3    3    0    0 -0.12708744149E+02 -0.12679214609E+02  0.32219237952E+02  0.36882976495E+02  0.00000000000E+00 0.  1.
         11    1    3    3    0    0  0.85499182304E+01  0.71056941285E+01 -0.48699925224E+02  0.49952724726E+02  0.00000000000E+00 0. -1.
</event>
<event>
 7    1  0.6145388E-006  0.6994342E+02  0.7561462E-02  0.1360286E+00
          2   -1    0    0  501    0  0.00000000000E+00  0.00000000000E+00  0.11494759172E+03  0.11494759172E+03  0.00000000000E+00 0. -1.
         -2   -1    0    0    0  501 -0.00000000000E+00 -0.00000000000E+00 -0.17586388196E+03  0.17586388196E+03  0.00000000000E+00 0.  1.
         23    2    1    2    0    0  0.49002808518E+02  0.12811629467E+02  0.46890692910E+02  0.11808282769E+03  0.95809206348E+02 0.  0.
          5    1    1    2  502    0 -0.40420561467E+02 -0.97005444623E+01 -0.13627859906E+03  0.14253859587E+03  0.41800000000E+01 0.  1.
         -5    1    1    2    0  502 -0.85822470510E+01 -0.31110850045E+01  0.28471615904E+02  0.30190050125E+02  0.41800000000E+01 0.  1.
        -11    1    3    3    0    0  0.33601411564E+02 -0.28449027501E+02 -0.10964433864E+02  0.45372027008E+02  0.00000000000E+00 0.  1.
         11    1    3    3    0    0  0.15401396953E+02  0.41260656968E+02  0.57855126773E+02  0.72710800680E+02  0.00000000000E+00 0. -1.
</event>
<event>
 7    1  0.6145388E-006  0.1549716E+03  0.7561462E-02  0.1194494E+00
         -2   -1    0    0    0  501 -0.00000000000E+00  0.00000000000E+00  0.18290464581E+03  0.18290464581E+03  0.00000000000E+00 0.  1.
          2   -1    0    0  501    0  0.00000000000E+00 -0.00000000000E+00 -0.19154448676E+03  0.19154448676E+03  0.00000000000E+00 0. -1.
         23    2    1    2    0    0 -0.13351615287E+03 -0.73068411396E+02 -0.10712646009E+01  0.17730219324E+03  0.90936045112E+02 0.  0.
          5    1    1    2  502    0  0.52858968057E+02  0.10606052260E+02 -0.61323811572E+02  0.81759654563E+02  0.41800000000E+01 0.  1.
         -5    1    1    2    0  502  0.80657184810E+02  0.62462359136E+02  0.53755235224E+02  0.11538728476E+03  0.41800000000E+01 0.  1.
        -11    1    3    3    0    0 -0.87248128642E+02 -0.35601206290E+02 -0.43905503591E+02  0.10395852580E+03  0.00000000000E+00 0. -1.
         11    1    3    3    0    0 -0.46268024225E+02 -0.37467205106E+02  0.42834238990E+02  0.73343667443E+02  0.00000000000E+00 0.  1.
</event>
<event>
 7    1  0.6145388E-006  0.1623098E+03  0.7561462E-02  0.1186113E+00
         -1   -1    0    0    0  501 -0.00000000000E+00  0.00000000000E+00  0.50659613199E+03  0.50659613199E+03  0.00000000000E+00 0.  1.
          1   -1    0    0  501    0  0.00000000000E+00 -0.00000000000E+00 -0.61750985470E+02  0.61750985470E+02  0.00000000000E+00 0. -1.
         23    2    1    2    0    0  0.13156647152E+03  0.39437761241E+02  0.16642344759E+03  0.23363645077E+03  0.89577641082E+02 0.  0.
          5    1    1    2  502    0 -0.22209471270E+02  0.43125062066E+02  0.73110948747E+02  0.87839141725E+02  0.41800000000E+01 0.  1.
         -5    1    1    2    0  502 -0.10935700025E+03 -0.82562823307E+02  0.20531075018E+03  0.24687152496E+03  0.41800000000E+01 0.  1.
        -11    1    3    3    0    0  0.40107108961E+02  0.24286045878E+01  0.18270320156E-01  0.40180575447E+02  0.00000000000E+00 0. -1.
         11    1    3    3    0    0  0.91459362559E+02  0.37009156653E+02  0.16640517727E+03  0.19345587532E+03  0.00000000000E+00 0.  1.
</event>
<event>
 7    1  0.6145388E-006  0.1763905E+03  0.7561462E-02  0.1171343E+00
         -2   -1    0    0    0  501 -0.00000000000E+00  0.00000000000E+00  0.48422701378E+02  0.48422701378E+02  0.00000000000E+00 0.  1.
          2   -1    0    0  501    0  0.00000000000E+00 -0.00000000000E+00 -0.73668682873E+03  0.73668682873E+03  0.00000000000E+00 0. -1.
         23    2    1    2    0    0 -0.11981239441E+03 -0.97973795638E+02 -0.31816339925E+03  0.36489991414E+03  0.89275552261E+02 0.  0.
          5    1    1    2  502    0 -0.12301328600E+02 -0.16541122480E+02 -0.20837362818E+02  0.29607423181E+02  0.41800000000E+01 0.  1.
         -5    1    1    2    0  502  0.13211372301E+03  0.11451491812E+03 -0.34926336528E+03  0.39060219279E+03  0.41800000000E+01 0.  1.
        -11    1    3    3    0    0 -0.86052946210E+02 -0.54659729182E+02 -0.28011851162E+03  0.29809256297E+03  0.00000000000E+00 0. -1.
         11    1    3    3    0    0 -0.33759448200E+02 -0.43314066456E+02 -0.38044887631E+02  0.66807351172E+02  0.00000000000E+00 0.  1.
</event>
<event>
 7    1  0.6145388E-006  0.2120556E+03  0.7561462E-02  0.1139948E+00
         -2   -1    0    0    0  501 -0.00000000000E+00  0.00000000000E+00  0.76859519526E+03  0.76859519526E+03  0.00000000000E+00 0.  1.
          2   -1    0    0  501    0  0.00000000000E+00 -0.00000000000E+00 -0.67958591622E+02  0.67958591622E+02  0.00000000000E+00 0. -1.
         23    2    1    2    0    0 -0.12164573795E+03 -0.14388153351E+03  0.20653425136E+03  0.29312663465E+03  0.88131978906E+02 0.  0.
          5    1    1    2  502    0  0.13694596187E+03  0.93442143155E+02  0.42646351364E+03  0.45757429064E+03  0.41800000000E+01 0. -1.
         -5    1    1    2    0  502 -0.15300223924E+02  0.50439390358E+02  0.67638838638E+02  0.85852861595E+02  0.41800000000E+01 0. -1.
        -11    1    3    3    0    0 -0.66192370387E+02 -0.19171177886E+02  0.48249956200E+02  0.84125039270E+02  0.00000000000E+00 0. -1.
         11    1    3    3    0    0 -0.55453367562E+02 -0.12471035563E+03  0.15828429516E+03  0.20900159537E+03  0.00000000000E+00 0.  1.
</event>
<event>
 7    1  0.6145388E-006  0.2861550E+03  0.7561462E-02  0.1092374E+00
          1   -1    0    0  501    0  0.00000000000E+00  0.00000000000E+00  0.87133149801E+02  0.87133149801E+02  0.00000000000E+00 0. -1.
         -1   -1    0    0    0  501 -0.00000000000E+00 -0.00000000000E+00 -0.98541846472E+03  0.98541846472E+03  0.00000000000E+00 0.  1.
         23    2    1    2    0    0  0.17835788046E+03  0.18326736496E+03 -0.41758574531E+03  0.49772484085E+03  0.89183529488E+02 0.  0.
          5    1    1    2  502    0  0.28729238374E+02 -0.64666478392E+01 -0.10657120875E+02  0.31594830228E+02  0.41800000000E+01 0. -1.
         -5    1    1    2    0  502 -0.20708711884E+03 -0.17680071712E+03 -0.47004244874E+03  0.54323194345E+03  0.41800000000E+01 0.  1.
        -11    1    3    3    0    0  0.14425242410E+03  0.87815757286E+02 -0.24476840494E+03  0.29737508494E+03  0.00000000000E+00 0.  1.
         11    1    3    3    0    0  0.34105456365E+02  0.95451607675E+02 -0.17281734037E+03  0.20034975591E+03  0.00000000000E+00 0. -1.
</event>
<event>
 7    1  0.6145388E-006  0.1081253E+03  0.7561462E-02  0.1264081E+00
          2   -1    0    0  501    0  0.00000000000E+00  0.00000000000E+00  0.32897659238E+03  0.32897659238E+03  0.00000000000E+00 0. -1.
         -2   -1    0    0    0  501 -0.00000000000E+00 -0.00000000000E+00 -0.66911999778E+02  0.66911999778E+02  0.00000000000E+00 0.  1.
         23    2    1    2    0    0 -0.74085318263E+02  0.15420233909E+02  0.20211988029E+03  0.23788173646E+03  0.10004427290E+03 0.  0.
          5    1    1    2  502    0 -0.30699291347E+01 -0.25779979841E+02 -0.29391105392E+02  0.39437815630E+02  0.41800000000E+01 0. -1.
         -5    1    1    2    0  502  0.77155247398E+02  0.10359745931E+02  0.89335817700E+02  0.11856904006E+03  0.41800000000E+01 0. -1.
        -11    1    3    3    0    0 -0.56155295028E+02 -0.29640232564E+02  0.58659577152E+02  0.86445974677E+02  0.00000000000E+00 0.  1.
         11    1    3    3    0    0 -0.17930023235E+02  0.45060466473E+02  0.14346030314E+03  0.15143576179E+03  0.00000000000E+00 0. -1.
</event>
<event>
 7    1  0.6145388E-006  0.1623354E+03  0.7561462E-02  0.1186085E+00
         -1   -1    0    0    0  501 -0.00000000000E+00  0.00000000000E+00  0.10548668402E+03  0.10548668402E+03  0.00000000000E+00 0.  1.
          1   -1    0    0  501    0  0.00000000000E+00 -0.00000000000E+00 -0.30296527342E+03  0.30296527342E+03  0.00000000000E+00 0. -1.
         23    2    1    2    0    0 -0.11293725087E+03  0.83480244192E+02 -0.11409799945E+03  0.20272675696E+03  0.91411217605E+02 0.  0.
          5    1    1    2  502    0  0.12334714355E+03 -0.69217612590E+02 -0.23860376457E+02  0.14350047275E+03  0.41800000000E+01 0. -1.
         -5    1    1    2    0  502 -0.10409892679E+02 -0.14262631602E+02 -0.59520213502E+02  0.62224727730E+02  0.41800000000E+01 0. -1.
        -11    1    3    3    0    0  0.14630288365E+02  0.10979660631E+02 -0.25296731241E+02  0.31217349290E+02  0.00000000000E+00 0. -1.
         11    1    3    3    0    0 -0.12756753924E+03  0.72500583560E+02 -0.88801268207E+02  0.17150940767E+03  0.00000000000E+00 0.  1.
</event>
<event>
 7    1  0.6145388E-006  0.1996441E+03  0.7561462E-02  0.1150040E+00
          2   -1    0    0  501    0  0.00000000000E+00  0.00000000000E+00  0.93180330753E+02  0.93180330753E+02  0.00000000000E+00 0. -1.
         -2   -1    0    0    0  501 -0.00000000000E+00 -0.00000000000E+00 -0.78621962413E+03  0.78621962413E+03  0.00000000000E+00 0.  1.
         23    2    1    2    0    0 -0.13909501485E+03  0.11421337327E+03 -0.60920101074E+02  0.21035993346E+03  0.90265857899E+02 0.  0.
          5    1    1    2  502    0  0.12250200464E+03 -0.48538719621E+02 -0.26824194850E+03  0.29888787828E+03  0.41800000000E+01 0. -1.
         -5    1    1    2    0  502  0.16593010207E+02 -0.65674653648E+02 -0.36387724380E+03  0.37015214315E+03  0.41800000000E+01 0. -1.
        -11    1    3    3    0    0 -0.13520177779E+03  0.64637475319E+02 -0.57510190158E+02  0.16051462832E+03  0.00000000000E+00 0. -1.
         11    1    3    3    0    0 -0.38932370610E+01  0.49575897950E+02 -0.34099109159E+01  0.49845305143E+02  0.00000000000E+00 0.  1.
</event>
<event>
 7    1  0.6145388E-006  0.1405444E+03  0.7561462E-02  0.1212598E+00
         -1   -1    0    0    0  501 -0.00000000000E+00  0.00000000000E+00  0.53722770900E+03  0.53722770900E+03  0.00000000000E+00 0.  1.
          1   -1    0    0  501    0  0.00000000000E+00 -0.00000000000E+00 -0.40059023434E+02  0.40059023434E+02  0.00000000000E+00 0. -1.
         23    2    1    2    0    0 -0.87045848756E+02 -0.34418845289E+02  0.18292711748E+03  0.22634897844E+03  0.94920456354E+02 0.  0.
          5    1    1    2  502    0  0.11860592320E+03  0.33788248294E+02  0.23255999128E+03  0.26326912596E+03  0.41800000000E+01 0. -1.
         -5    1    1    2    0  502 -0.31560074444E+02  0.63059699439E+00  0.81681576800E+02  0.87668628026E+02  0.41800000000E+01 0. -1.
        -11    1    3    3    0    0 -0.14958006835E+02 -0.49922393864E+02  0.11429032085E+03  0.12561156323E+03  0.00000000000E+00 0.  1.
         11    1    3    3    0    0 -0.72087841921E+02  0.15503548575E+02  0.68636796634E+02  0.10073741521E+03  0.00000000000E+00 0. -1.
</event>
<event>
 7    1  0.6145388E-006  0.1685866E+03  0.7561462E-02  0.1179330E+00
          2   -1    0    0  501    0  0.00000000000E+00  0.00000000000E+00  0.10517127723E+04  0.10517127723E+04  0.00000000000E+00 0. -1.
         -2   -1    0    0    0  501 -0.00000000000E+00 -0.00000000000E+00 -0.28304885929E+02  0.28304885929E+02  0.00000000000E+00 0.  1.
         23    2    1    2    0    0  0.11332638147E+03  0.18400491099E+00  0.54985919141E+03  0.56922379336E+03  0.93955808518E+02 0.  0.
          5    1    1    2  502    0 -0.20190006805E+01 -0.62844467126E+02  0.13705248363E+03  0.15084548081E+03  0.41800000000E+01 0. -1.
         -5    1    1    2    0  502 -0.11130738079E+03  0.62660462215E+02  0.33649621130E+03  0.35994838403E+03  0.41800000000E+01 0.  1.
        -11    1    3    3    0    0  0.11229726932E+03  0.30228209068E+02  0.45984130274E+03  0.47431892755E+03  0.00000000000E+00 0. -1.
         11    1    3    3    0    0  0.10291121532E+01 -0.30044204157E+02  0.90017888669E+02  0.94904865816E+02  0.00000000000E+00 0.  1.
</event>
<event>
 7    1  0.6145388E-006  0.2080906E+03  0.7561462E-02  0.1143087E+00
         -2   -1    0    0    0  501 -0.00000000000E+00  0.00000000000E+00  0.61252023649E+02  0.61252023649E+02  0.00000000000E+00 0.  1.
          2   -1    0    0  501    0  0.00000000000E+00 -0.00000000000E+00 -0.95566954953E+03  0.95566954953E+03  0.00000000000E+00 0. -1.
         23    2    1    2    0    0 -0.47836207922E+02  0.18909860184E+03 -0.63002223523E+03  0.66535545975E+03  0.87882233313E+02 0.  0.
          5    1    1    2  502    0 -0.13630533894E+02  0.65904698780E+00  0.60438739085E+01  0.15499245433E+02  0.41800000000E+01 0. -1.
         -5    1    1    2    0  502  0.61466741816E+02 -0.18975764882E+03 -0.27043916456E+03  0.33606686800E+03  0.41800000000E+01 0. -1.
        -11    1    3    3    0    0 -0.59713261597E+02  0.14719036175E+03 -0.38481033784E+03  0.41630478295E+03  0.00000000000E+00 0.  1.
         11    1    3    3    0    0  0.11877053675E+02  0.41908240086E+02 -0.24521189739E+03  0.24905067680E+03  0.00000000000E+00 0. -1.
</event>
<event>
 7    1  0.6145388E-006  0.1333781E+03  0.7561462E-02  0.1222528E+00
          3   -1    0    0  501    0  0.00000000000E+00  0.00000000000E+00  0.10750951999E+03  0.10750951999E+03  0.00000000000E+00 0. -1.
         -3   -1    0    0    0  501 -0.00000000000E+00 -0.00000000000E+00 -0.19497868711E+03  0.19497868711E+03  0.00000000000E+00 0.  1.
         23    2    1    2    0    0 -0.81331128452E+02 -0.50173813473E+02 -0.36933082563E+02  0.13715718592E+03  0.91191430778E+02 0.  0.
          5    1    1    2  502    0  0.52793151144E+02  0.78254792666E+02 -0.72843489417E+02  0.11930874123E+03  0.41800000000E+01 0. -1.
         -5    1    1    2    0  502  0.28537977307E+02 -0.28080979193E+02  0.22307404861E+02  0.46022279962E+02  0.41800000000E+01 0. -1.
        -11    1    3    3    0    0 -0.19027517559E+02  0.26872137966E+02 -0.71631145144E+01  0.33696712493E+02  0.00000000000E+00 0. -1.
         11    1    3    3    0    0 -0.62303610893E+02 -0.77045951439E+02 -0.29769968048E+02  0.10346047342E+03  0.00000000000E+00 0.  1.
</event>
<event>
 7    1  0.6145388E-006  0.8138657E+02  0.7561462E-02  0.1325162E+00
          2   -1    0    0  501    0  0.00000000000E+00  0.00000000000E+00  0.42872611737E+03  0.42872611737E+03  0.00000000000E+00 0. -1.
         -2   -1    0    0    0  501 -0.00000000000E+00 -0.00000000000E+00 -0.29671249693E+02  0.29671249693E+02  0.00000000000E+00 0.  1.
         23    2    1    2    0    0  0.21925517174E+02  0.18491056866E+02  0.26149985936E+03  0.27802539504E+03  0.89962749799E+02 0.  0.
          5    1    1    2  502    0  0.11273979344E+02 -0.30576083278E+02  0.14086071372E+03  0.14464166947E+03  0.41800000000E+01 0. -1.
         -5    1    1    2    0  502 -0.33199496519E+02  0.12085026412E+02 -0.33057054011E+01  0.35730302555E+02  0.41800000000E+01 0.  1.
        -11    1    3    3    0    0 -0.30502347171E+02 -0.13027687526E+02  0.86423651059E+02  0.92569764435E+02  0.00000000000E+00 0.  1.
         11    1    3    3    0    0  0.52427864346E+02  0.31518744392E+02  0.17507620830E+03  0.18545563060E+03  0.00000000000E+00 0. -1.
</event>
<event>
 7    1  0.6145388E-006  0.1093462E+03  0.7561462E-02  0.1261785E+00
          4   -1    0    0  501    0  0.00000000000E+00  0.00000000000E+00  0.90588421164E+02  0.90588421164E+02  0.00000000000E+00 0. -1.
         -4   -1    0    0    0  501 -0.00000000000E+00 -0.00000000000E+00 -0.22648014564E+03  0.22648014564E+03  0.00000000000E+00 0.  1.
         23    2    1    2    0    0 -0.73646222432E+02 -0.56468320235E+02 -0.55125931564E+02  0.14160669544E+03  0.91657790694E+02 0.  0.
          5    1    1    2  502    0  0.94934121068E+01  0.21889610868E+02 -0.97588881625E+02  0.10055019719E+03  0.41800000000E+01 0.  1.
         -5    1    1    2    0  502  0.64152810325E+02  0.34578709367E+02  0.16823088711E+02  0.74911674176E+02  0.41800000000E+01 0.  1.
        -11    1    3    3    0    0 -0.23114920227E+02 -0.66104466380E+02 -0.56881314420E+01  0.70259909279E+02  0.00000000000E+00 0. -1.
         11    1    3    3    0    0 -0.50531302205E+02  0.96361461456E+01 -0.49437800122E+02  0.71346786164E+02  0.00000000000E+00 0.  1.
</event>
<event>
 7    1  0.6145388E-006  0.1211276E+03  0.7561462E-02  0.1241248E+00
         -2   -1    0    0    0  501 -0.00000000000E+00  0.00000000000E+00  0.31937561994E+02  0.31937561994E+02  0.00000000000E+00 0.  1.
          2   -1    0    0  501    0  0.00000000000E+00 -0.00000000000E+00 -0.67438996024E+03  0.67438996024E+03  0.00000000000E+00 0. -1.
         23    2    1    2    0    0  0.44460507535E+02 -0.75682077438E+02 -0.40224304972E+03  0.42162949206E+03  0.90925485708E+02 0.  0.
          5    1    1    2  502    0  0.20992213693E+02  0.12381785604E+02  0.30566541480E+01  0.24915801915E+02  0.41800000000E+01 0.  1.
         -5    1    1    2    0  502 -0.65452721228E+02  0.63300291834E+02 -0.24326600268E+03  0.25978222826E+03  0.41800000000E+01 0.  1.
        -11    1    3    3    0    0 -0.10293943660E+02 -0.70645171218E+02 -0.22875248618E+03  0.23963389874E+03  0.00000000000E+00 0.  1.
         11    1    3    3    0    0  0.54754451195E+02 -0.50369062194E+01 -0.17349056354E+03  0.18199559332E+03  0.00000000000E+00 0. -1.
</event>
<event>
 7    1  0.6145388E-006  0.1154910E+03  0.7561462E-02  0.1250726E+00
         -1   -1    0    0    0  501 -0.00000000000E+00  0.00000000000E+00  0.70663073539E+02  0.70663073539E+02  0.00000000000E+00 0.  1.
          1   -1    0    0  501    0  0.00000000000E+00 -0.00000000000E+00 -0.29621196090E+03  0.29621196090E+03  0.00000000000E+00 0. -1.
         23    2    1    2    0    0  0.69221172358E+02  0.54947834721E+02 -0.14805023127E+03  0.19522507719E+03  0.91559404436E+02 0.  0.
          5    1    1    2  502    0 -0.61543085310E+02 -0.44112990681E+00  0.15406775705E+02  0.63581342253E+02  0.41800000000E+01 0.  1.
         -5    1    1    2    0  502 -0.76780870479E+01 -0.54506704815E+02 -0.92905431798E+02  0.10806861500E+03  0.41800000000E+01 0.  1.
        -11    1    3    3    0    0  0.71821336051E+02  0.14137930896E+02 -0.49056163155E+02  0.88117492847E+02  0.00000000000E+00 0.  1.
         11    1    3    3    0    0 -0.26001636927E+01  0.40809903825E+02 -0.98994068112E+02  0.10710758434E+03  0.00000000000E+00 0. -1.
</event>
<event>
 7    1  0.6145388E-006  0.1031569E+03  0.7561462E-02  0.1273794E+00
         -2   -1    0    0    0  501 -0.00000000000E+00  0.00000000000E+00  0.52152931634E+02  0.52152931634E+02  0.00000000000E+00 0. -1.
          2   -1    0    0  501    0  0.00000000000E+00 -0.00000000000E+00 -0.59400239859E+03  0.59400239859E+03  0.00000000000E+00 0.  1.
         23    2    1    2    0    0 -0.53911000528E+02  0.16120524977E+02 -0.48700041345E+03  0.49843092449E+03  0.89987312955E+02 0.  0.
          5    1    1    2  502    0  0.53577820699E+02  0.24897017496E+02  0.19796476043E+02  0.62448516514E+02  0.41800000000E+01 0. -1.
         -5    1    1    2    0  502  0.33317982893E+00 -0.41017542473E+02 -0.74645529553E+02  0.85275889216E+02  0.41800000000E+01 0. -1.
        -11    1    3    3    0    0 -0.18763531070E+02  0.52209358427E+02 -0.27315414104E+03  0.27873118228E+03  0.00000000000E+00 0.  1.
         11    1    3    3    0    0 -0.35147469458E+02 -0.36088833451E+02 -0.21384627240E+03  0.21969974222E+03  0.00000000000E+00 0. -1.
</event>
<event>
 7    1  0.6145388E-006  0.7514047E+02  0.7561462E-02  0.1343437E+00
          1   -1    0    0  501    0  0.00000000000E+00  0.00000000000E+00  0.42896605815E+03  0.42896605815E+03  0.00000000000E+00 0.  1.
         -1   -1    0    0    0  501 -0.00000000000E+00 -0.00000000000E+00 -0.29639896651E+02  0.29639896651E+02  0.00000000000E+00 0. -1.
         23    2    1    2    0    0  0.24754704279E+02 -0.17145584456E+02  0.17973608610E+03  0.20409835648E+03  0.91892937814E+02 0.  0.
          5    1    1    2  502    0 -0.45878256241E+02  0.33620934020E+02  0.32863714598E+02  0.65823079063E+02  0.41800000000E+01 0. -1.
         -5    1    1    2    0  502  0.21123551962E+02 -0.16475349564E+02  0.18672636080E+03  0.18868451926E+03  0.41800000000E+01 0. -1.
        -11    1    3    3    0    0  0.42514231110E+02 -0.21798565260E+02  0.17948778883E+03  0.18573772808E+03  0.00000000000E+00 0.  1.
         11    1    3    3    0    0 -0.17759526831E+02  0.46529808035E+01  0.24829727282E+00  0.18360628398E+02  0.00000000000E+00 0. -1.
</event>
<event>
 7    1  0.6145388E-006  0.9272715E+02  0.7561462E-02  0.1296379E+00
          1   -1    0    0  501    0  0.00000000000E+00  0.00000000000E+00  0.49062155158E+03  0.49062155158E+03  0.00000000000E+00 0. -1.
         -1   -1    0    0    0  501 -0.00000000000E+00 -0.00000000000E+00 -0.27803166501E+02  0.27803166501E+02  0.00000000000E+00 0.  1.
         23    2    1    2    0    0 -0.15807766443E+02 -0.27765171842E+02  0.26622827933E+03  0.28323336371E+03  0.91229662709E+02 0.  0.
          5    1    1    2  502    0  0.11859859048E+02  0.68209564014E+02  0.57089922072E+02  0.89832802928E+02  0.41800000000E+01 0.  1.
         -5    1    1    2    0  502  0.39479073944E+01 -0.40444392172E+02  0.13950018368E+03  0.14535855144E+03  0.41800000000E+01 0.  1.
        -11    1    3    3    0    0  0.20597448220E+02 -0.32556517532E+02  0.22393313559E+03  0.22722286619E+03  0.00000000000E+00 0. -1.
         11    1    3    3    0    0 -0.36405214663E+02  0.47913456901E+01  0.42295143740E+02  0.56010497518E+02  0.00000000000E+00 0.  1.
</event>
<event>
 7    1  0.6145388E-006  0.1351364E+03  0.7561462E-02  0.1220027E+00
          1   -1    0    0  501    0  0.00000000000E+00  0.00000000000E+00  0.77602937881E+03  0.77602937881E+03  0.00000000000E+00 0. -1.
         -1   -1    0    0    0  501 -0.00000000000E+00 -0.00000000000E+00 -0.32362566183E+02  0.32362566183E+02  0.00000000000E+00 0.  1.
         23    2    1    2    0    0  0.39652837233E+02  0.10998403456E+03  0.32219400377E+03  0.35346681172E+03  0.86376938863E+02 0.  0.
          5    1    1    2  502    0 -0.52932178577E+02 -0.40438306350E+02  0.71388613446E+02  0.97728597038E+02  0.41800000000E+01 0.  1.
         -5    1    1    2    0  502  0.13279341343E+02 -0.69545728207E+02  0.35008419541E+03  0.35719653623E+03  0.41800000000E+01 0.  1.
        -11    1    3    3    0    0  0.42625176563E+02  0.28973820268E+02  0.60358965743E+02  0.79369973438E+02  0.00000000000E+00 0. -1.
         11    1    3    3    0    0 -0.29723393296E+01  0.81010214288E+02  0.26183503803E+03  0.27409683829E+03  0.00000000000E+00 0.  1.
</event>
<event>
 7    1  0.6145388E-006  0.7802648E+02  0.7561462E-02  0.1334747E+00
          2   -1    0    0  501    0  0.00000000000E+00  0.00000000000E+00  0.20016916879E+03  0.20016916879E+03  0.00000000000E+00 0. -1.
         -2   -1    0    0    0  501 -0.00000000000E+00 -0.00000000000E+00 -0.87191067088E+02  0.87191067088E+02  0.00000000000E+00 0.  1.
         23    2    1    2    0    0 -0.43836130908E+02  0.60338033277E+02  0.58171357363E+02  0.13175091182E+03  0.91717562745E+02 0.  0.
          5    1    1    2  502    0  0.13900258773E+02 -0.23669831732E+02 -0.40504989421E+02  0.49108091963E+02  0.41800000000E+01 0.  1.
         -5    1    1    2    0  502  0.29935872135E+02 -0.36668201545E+02  0.95311733760E+02  0.10650123209E+03  0.41800000000E+01 0.  1.
        -11    1    3    3    0    0 -0.21734443841E+02  0.53316553762E+02  0.80888748535E+02  0.99287615510E+02  0.00000000000E+00 0. -1.
         11    1    3    3    0    0 -0.22101687067E+02  0.70214795152E+01 -0.22717391172E+02  0.32463296312E+02  0.00000000000E+00 0.  1.
</event>
<event>
 7    1  0.6145388E-006  0.1037273E+03  0.7561462E-02  0.1272648E+00
          1   -1    0    0  501    0  0.00000000000E+00  0.00000000000E+00  0.41651124371E+03  0.41651124371E+03  0.00000000000E+00 0. -1.
         -1   -1    0    0    0  501 -0.00000000000E+00 -0.00000000000E+00 -0.29397432563E+02  0.29397432563E+02  0.00000000000E+00 0.  1.
         23    2    1    2    0    0  0.10508714378E+02  0.15239938381E+02  0.20894761996E+03  0.22743024817E+03  0.87879013982E+02 0.  0.
          5    1    1    2  502    0  0.17138511543E+02  0.49130369140E+02  0.49619187138E+02  0.72021232161E+02  0.41800000000E+01 0. -1.
         -5    1    1    2    0  502 -0.27647225920E+02 -0.64370307521E+02  0.12854700405E+03  0.14645719594E+03  0.41800000000E+01 0. -1.
        -11    1    3    3    0    0 -0.98889544985E+01 -0.32065883367E+02  0.12038452651E+03  0.12497378333E+03  0.00000000000E+00 0. -1.
         11    1    3    3    0    0  0.20397668876E+02  0.47305821747E+02  0.88563093444E+02  0.10245646484E+03  0.00000000000E+00 0.  1.
</event>
<event>
 7    1  0.6145388E-006  0.9538916E+02  0.7561462E-02  0.1290302E+00
         -2   -1    0    0    0  501 -0.00000000000E+00  0.00000000000E+00  0.14946394884E+02  0.14946394884E+02  0.00000000000E+00 0.  1.
          2   -1    0    0  501    0  0.00000000000E+00 -0.00000000000E+00 -0.94491249279E+03  0.94491249279E+03  0.00000000000E+00 0. -1.
         23    2    1    2    0    0  0.21226885231E+02  0.41647570823E+02 -0.42401249802E+03  0.43657307892E+03  0.92867399840E+02 0.  0.
          5    1    1    2  502    0 -0.92789193875E+01 -0.62661770936E+02 -0.48983650845E+03  0.49393306560E+03  0.41800000000E+01 0.  1.
         -5    1    1    2    0  502 -0.11947965844E+02  0.21014200112E+02 -0.16117091442E+02  0.29352743155E+02  0.41800000000E+01 0.  1.
        -11    1    3    3    0    0 -0.34087551661E+02  0.31724161930E+02 -0.15959708481E+03  0.16625165595E+03  0.00000000000E+00 0.  1.
         11    1    3    3    0    0  0.55314436893E+02  0.99234088934E+01 -0.26441541321E+03  0.27032142297E+03  0.00000000000E+00 0. -1.
</event>
<event>
 7    1  0.6145388E-006  0.1347134E+03  0.7561462E-02  0.1220625E+00
          1   -1    0    0  501    0  0.00000000000E+00  0.00000000000E+00  0.53863984500E+03  0.53863984500E+03  0.00000000000E+00 0. -1.
         -1   -1    0    0    0  501 -0.00000000000E+00 -0.00000000000E+00 -0.55209773354E+02  0.55209773354E+02  0.00000000000E+00 0.  1.
         23    2    1    2    0    0 -0.13260636916E+03 -0.15821353812E+02  0.25396480967E+03  0.30035963023E+03  0.88786364624E+02 0.  0.
          5    1    1    2  502    0  0.10638214338E+03  0.18537210608E+02  0.63395748135E+02  0.12528879395E+03  0.41800000000E+01 0. -1.
         -5    1    1    2    0  502  0.26224225782E+02 -0.27158567964E+01  0.16606951384E+03  0.16820119418E+03  0.41800000000E+01 0. -1.
        -11    1    3    3    0    0 -0.87842533888E+02 -0.21754870559E+01  0.75465734059E+02  0.11582797814E+03  0.00000000000E+00 0.  1.
         11    1    3    3    0    0 -0.44763835271E+02 -0.13645866756E+02  0.17849907561E+03  0.18453165209E+03  0.00000000000E+00 0. -1.
</event>
<event>
 7    1  0.6145388E-006  0.1633519E+03  0.7561462E-02  0.1184964E+00
         -1   -1    0    0    0  501 -0.00000000000E+00  0.00000000000E+00  0.81333854897E+02  0.81333854897E+02  0.00000000000E+00 0.  1.
          1   -1    0    0  501    0  0.00000000000E+00 -0.00000000000E+00 -0.37600024857E+03  0.37600024857E+03  0.00000000000E+00 0. -1.
         23    2    1    2    0    0  0.12948954581E+03  0.40663611859E+02 -0.12259640130E+03  0.20499391326E+03  0.92582693082E+02 0.  0.
          5    1    1    2  502    0 -0.15437297247E+03 -0.39047676739E+02 -0.14833104559E+03  0.21765869423E+03  0.41800000000E+01 0. -1.
         -5    1    1    2    0  502  0.24883426667E+02 -0.16159351200E+01 -0.23738946778E+02  0.34681495976E+02  0.41800000000E+01 0. -1.
        -11    1    3    3    0    0  0.76107086221E+02  0.18510241162E+01 -0.13252136145E+02  0.77274406990E+02  0.00000000000E+00 0.  1.
         11    1    3    3    0    0  0.53382459585E+02  0.38812587743E+02 -0.10934426516E+03  0.12771950627E+03  0.00000000000E+00 0. -1.
</event>
<event>
 7    1  0.6145388E-006  0.1823515E+03  0.7561462E-02  0.1165546E+00
          2   -1    0    0  501    0  0.00000000000E+00  0.00000000000E+00  0.36087720924E+03  0.36087720924E+03  0.00000000000E+00 0. -1.
         -2   -1    0    0    0  501 -0.00000000000E+00 -0.00000000000E+00 -0.12712308398E+03  0.12712308398E+03  0.00000000000E+00 0.  1.
         23    2    1    2    0    0  0.17390525120E+03 -0.35965546189E+02  0.16903085054E+03  0.26134795664E+03  0.90524963959E+02 0.  0.
          5    1    1    2  502    0 -0.21253767587E+02 -0.68137320562E+01 -0.33233839623E+02  0.40250591018E+02  0.41800000000E+01 0.  1.
         -5    1    1    2    0  502 -0.15265148361E+03  0.42779278246E+02  0.97957114344E+02  0.18640174556E+03  0.41800000000E+01 0.  1.
        -11    1    3    3    0    0  0.68751409441E+02  0.84306401056E+01  0.11686566783E+03  0.13585071332E+03  0.00000000000E+00 0. -1.
         11    1    3    3    0    0  0.10515384176E+03 -0.44396186295E+02  0.52165182711E+02  0.12549724332E+03  0.00000000000E+00 0.  1.
</event>
<event>
 7    1  0.6145388E-006  0.1143347E+03  0.7561462E-02  0.1252747E+00
         -1   -1    0    0    0  501 -0.00000000000E+00  0.00000000000E+00  0.50088459814E+02  0.50088459814E+02  0.00000000000E+00 0.  1.
          1   -1    0    0  501    0  0.00000000000E+00 -0.00000000000E+00 -0.29175101748E+03  0.29175101748E+03  0.00000000000E+00 0. -1.
         23    2    1    2    0    0 -0.11348572988E+02  0.50197619170E+02 -0.10331064207E+03  0.14835147546E+03  0.93201289842E+02 0.  0.
          5    1    1    2  502    0 -0.92514410887E+01 -0.83622587137E+02 -0.53207038808E+02  0.99633265632E+02  0.41800000000E+01 0.  1.
         -5    1    1    2    0  502  0.20600014077E+02  0.33424967968E+02 -0.85144876796E+02  0.93854736205E+02  0.41800000000E+01 0.  1.
        -11    1    3    3    0    0  0.40219335736E+02  0.17314785439E+02 -0.31031902592E+02  0.53669132100E+02  0.00000000000E+00 0. -1.
         11    1    3    3    0    0 -0.51567908725E+02  0.32882833731E+02 -0.72278739473E+02  0.94682343361E+02  0.00000000000E+00 0.  1.
</event>
<event>
 7    1  0.6145388E-006  0.1948340E+03  0.7561462E-02  0.1154172E+00
          2   -1    0    0  501    0  0.00000000000E+00  0.00000000000E+00  0.47394087476E+03  0.47394087476E+03  0.00000000000E+00 0. -1.
         -2   -1    0    0    0  501 -0.00000000000E+00 -0.00000000000E+00 -0.10546239342E+03  0.10546239342E+03  0.00000000000E+00 0.  1.
         23    2    1    2    0    0 -0.53564007689E+02 -0.17608649705E+03  0.26051343533E+03  0.33205836368E+03  0.92303572747E+02 0.  0.
          5    1    1    2  502    0  0.28454116473E+02  0.64699713445E+01  0.63728585996E+02  0.70216111730E+02  0.41800000000E+01 0. -1.
         -5    1    1    2    0  502  0.25109891217E+02  0.16961652571E+03  0.44236460016E+02  0.17712879276E+03  0.41800000000E+01 0. -1.
        -11    1    3    3    0    0 -0.12387227649E+02 -0.11077417706E+03  0.84558090996E+02  0.13990865758E+03  0.00000000000E+00 0.  1.
         11    1    3    3    0    0 -0.41176780040E+02 -0.65312319990E+02  0.17595534433E+03  0.19214970610E+03  0.00000000000E+00 0. -1.
</event>
<event>
 7    1  0.6145388E-006  0.1213207E+03  0.7561462E-02  0.1240934E+00
          2   -1    0    0  501    0  0.00000000000E+00  0.00000000000E+00  0.18009113831E+02  0.18009113831E+02  0.00000000000E+00 0. -1.
         -2   -1    0    0    0  501 -0.00000000000E+00 -0.00000000000E+00 -0.10037486032E+04  0.10037486032E+04  0.00000000000E+00 0.  1.
         23    2    1    2    0    0 -0.56837627564E+02  0.11619380617E+02 -0.28512540673E+03  0.30555663901E+03  0.93288992767E+02 0.  0.
          5    1    1    2  502    0  0.45546599184E+02 -0.67283341162E+02 -0.27464625978E+03  0.28644298055E+03  0.41800000000E+01 0. -1.
         -5    1    1    2    0  502  0.11291028380E+02  0.55663960545E+02 -0.42596782290E+03  0.42975809751E+03  0.41800000000E+01 0.  1.
        -11    1    3    3    0    0  0.84773381873E+01  0.34192114505E+02 -0.14631083614E+03  0.15049194905E+03  0.00000000000E+00 0.  1.
         11    1    3    3    0    0 -0.65314965752E+02 -0.22572733888E+02 -0.13881457059E+03  0.15506468997E+03  0.00000000000E+00 0. -1.
</event>
<event>
 7    1  0.6145388E-006  0.1288071E+03  0.7561462E-02  0.1229237E+00
         -1   -1    0    0    0  501 -0.00000000000E+00  0.00000000000E+00  0.78474836935E+02  0.78474836935E+02  0.00000000000E+00 0.  1.
          1   -1    0    0  501    0  0.00000000000E+00 -0.00000000000E+00 -0.29041078423E+03  0.29041078423E+03  0.00000000000E+00 0. -1.
         23    2    1    2    0    0 -0.74595496236E+02 -0.62541365046E+02 -0.14368356975E+03  0.19631215771E+03  0.91747395865E+02 0.  0.
          5    1    1    2  502    0  0.89003332087E+02  0.19780879058E+02 -0.84551261468E+02  0.12441569240E+03  0.41800000000E+01 0.  1.
         -5    1    1    2    0  502 -0.14407835851E+02  0.42760485988E+02  0.16298883926E+02  0.48157771056E+02  0.41800000000E+01 0.  1.
        -11    1    3    3    0    0 -0.39673860024E+01  0.15366749937E+02  0.26737820926E+01  0.16094292963E+02  0.00000000000E+00 0.  1.
         11    1    3    3    0    0 -0.70628110233E+02 -0.77908114983E+02 -0.14635735185E+03  0.18021786475E+03  0.00000000000E+00 0. -1.
</event>
<event>
 7    1  0.6145388E-006  0.1167728E+03  0.7561462E-02  0.1248518E+00
         -2   -1    0    0    0  501 -0.00000000000E+00  0.00000000000E+00  0.10362630883E+03  0.10362630883E+03  0.00000000000E+00 0.  1.
          2   -1    0    0  501    0  0.00000000000E+00 -0.00000000000E+00 -0.15651739690E+03  0.15651739690E+03  0.00000000000E+00 0. -1.
         23    2    1    2    0    0  0.45539337007E+02 -0.47375119288E+02 -0.17124932197E+02  0.11438660689E+03  0.92047810355E+02 0.  0.
          5    1    1    2  502    0  0.21570284100E+02 -0.23369813903E+02 -0.35917533406E+02  0.48155653499E+02  0.41800000000E+01 0. -1.
         -5    1    1    2    0  502 -0.67109621107E+02  0.70744933190E+02  0.15137752919E+00  0.97601445339E+02  0.41800000000E+01 0. -1.
        -11    1    3    3    0    0  0.68866940015E+02 -0.32073060077E+02 -0.32388660959E+02  0.82585482795E+02  0.00000000000E+00 0. -1.
         11    1    3    3    0    0 -0.23327603008E+02 -0.15302059211E+02  0.15263728761E+02  0.31801124098E+02  0.00000000000E+00 0.  1.
</event>
<event>
 7    1  0.6145388E-006  0.1150477E+03  0.7561462E-02  0.1251498E+00
          1   -1    0    0  501    0  0.00000000000E+00  0.00000000000E+00  0.67068295448E+03  0.67068295448E+03  0.00000000000E+00 0. -1.
         -1   -1    0    0    0  501 -0.00000000000E+00 -0.00000000000E+00 -0.20552525423E+02  0.20552525423E+02  0.00000000000E+00 0.  1.
         23    2    1    2    0    0 -0.23135493363E+02  0.38560278768E+02  0.26544614668E+03  0.28423072264E+03  0.91122449243E+02 0.  0.
          5    1    1    2  502    0  0.60269744217E+02  0.18334524823E+02  0.15262062445E+03  0.16516393153E+03  0.41800000000E+01 0.  1.
         -5    1    1    2    0  502 -0.37134250854E+02 -0.56894803591E+02  0.23206365793E+03  0.24184082574E+03  0.41800000000E+01 0.  1.
        -11    1    3    3    0    0  0.26903669303E+02 -0.10437185522E+02  0.11026189050E+03  0.11397555335E+03  0.00000000000E+00 0.  1.
         11    1    3    3    0    0 -0.50039162666E+02  0.48997464289E+02  0.15518425617E+03  0.17025516929E+03  0.00000000000E+00 0. -1.
</event>
<event>
 7    1  0.6145388E-006  0.1464233E+03  0.7561462E-02  0.1204938E+00
         -2   -1    0    0    0  501 -0.00000000000E+00  0.00000000000E+00  0.20684598496E+03  0.20684598496E+03  0.00000000000E+00 0.  1.
          2   -1    0    0  501    0  0.00000000000E+00 -0.00000000000E+00 -0.14273062085E+03  0.14273062085E+03  0.00000000000E+00 0. -1.
         23    2    1    2    0    0 -0.10476683051E+03  0.62066825085E+02 -0.24293580279E+02  0.15389416743E+03  0.90911259899E+02 0.  0.
          5    1    1    2  502    0  0.10419530912E+03 -0.81301472039E+01  0.16803609698E+02  0.10593675205E+03  0.41800000000E+01 0.  1.
         -5    1    1    2    0  502  0.57152138223E+00 -0.53936677881E+02  0.71605334690E+02  0.89745686323E+02  0.41800000000E+01 0.  1.
        -11    1    3    3    0    0 -0.66598210653E+02  0.67457046442E+01 -0.48277881112E+02  0.82532296697E+02  0.00000000000E+00 0. -1.
         11    1    3    3    0    0 -0.38168619853E+02  0.55321120441E+02  0.23984300834E+02  0.71361870735E+02  0.00000000000E+00 0.  1.
</event>
<event>
 7    1  0.6145388E-006  0.1401067E+03  0.7561462E-02  0.1213185E+00
         -1   -1    0    0    0  501 -0.00000000000E+00  0.00000000000E+00  0.15950553507E+03  0.15950553507E+03  0.00000000000E+00 0.  1.
          1   -1    0    0  501    0  0.00000000000E+00 -0.00000000000E+00 -0.13930334475E+03  0.13930334475E+03  0.00000000000E+00 0. -1.
         23    2    1    2    0    0  0.53402590907E+02 -0.79464565183E+02 -0.19608339561E+02  0.13632271354E+03  0.95041787714E+02 0.  0.
          5    1    1    2  502    0 -0.36408155435E+02 -0.28219918834E+02 -0.28422018434E+00  0.46254413652E+02  0.41800000000E+01 0. -1.
         -5    1    1    2    0  502 -0.16994435472E+02  0.10768448402E+03  0.40094750066E+02  0.11623175262E+03  0.41800000000E+01 0. -1.
        -11    1    3    3    0    0 -0.21450101502E+02 -0.16976498071E+02  0.16957215848E+02  0.32184709266E+02  0.00000000000E+00 0.  1.
         11    1    3    3    0    0  0.74852692409E+02 -0.62488067111E+02 -0.36565555409E+02  0.10413800428E+03  0.00000000000E+00 0. -1.
</event>
<event>
 7    1  0.6145388E-006  0.1147944E+03  0.7561462E-02  0.1251940E+00
         -1   -1    0    0    0  501 -0.00000000000E+00  0.00000000000E+00  0.30524854252E+02  0.30524854252E+02  0.00000000000E+00 0.  1.
          1   -1    0    0  501    0  0.00000000000E+00 -0.00000000000E+00 -0.50202974389E+03  0.50202974389E+03  0.00000000000E+00 0. -1.
         23    2    1    2    0    0  0.61270908481E+02  0.87864539065E+01 -0.20068225505E+03  0.22787996846E+03  0.88456692983E+02 0.  0.
          5    1    1    2  502    0 -0.57276034413E+02 -0.58113763430E+02 -0.11456280260E+03  0.14071198157E+03  0.41800000000E+01 0.  1.
         -5    1    1    2    0  502 -0.39948740678E+01  0.49327309524E+02 -0.15625983198E+03  0.16396264811E+03  0.41800000000E+01 0.  1.
        -11    1    3    3    0    0  0.23593496433E+02  0.41883759507E+02 -0.14587147211E+03  0.15358837443E+03  0.00000000000E+00 0. -1.
         11    1    3    3    0    0  0.37677412047E+02 -0.33097305600E+02 -0.54810782942E+02  0.74291594028E+02  0.00000000000E+00 0.  1.
</event>
<event>
 7    1  0.6145388E-006  0.9855355E+02  0.7561462E-02  0.1283367E+00
          1   -1    0    0  501    0  0.00000000000E+00  0.00000000000E+00  0.78903362651E+03  0.78903362651E+03  0.00000000000E+00 0. -1.
         -1   -1    0    0    0  501 -0.00000000000E+00 -0.00000000000E+00 -0.24178008662E+02  0.24178008662E+02  0.00000000000E+00 0.  1.
         23    2    1    2    0    0  0.32463194213E+01  0.79553105450E+02  0.40645584073E+03  0.42534915986E+03  0.96831410969E+02 0.  0.
          5    1    1    2  502    0 -0.13863545193E+02 -0.31447043013E+02  0.10089611635E+02  0.36060879946E+02  0.41800000000E+01 0.  1.
         -5    1    1    2    0  502  0.10617225772E+02 -0.48106062438E+02  0.34831016548E+03  0.35180159537E+03  0.41800000000E+01 0.  1.
        -11    1    3    3    0    0  0.41114521851E+02  0.51604853950E+02  0.32175540274E+03  0.32845091574E+03  0.00000000000E+00 0. -1.
         11    1    3    3    0    0 -0.37868202429E+02  0.27948251500E+02  0.84700437995E+02  0.96898244121E+02  0.00000000000E+00 0.  1.
</event>
<event>
 7    1  0.6145388E-006  0.1470851E+03  0.7561462E-02  0.1204101E+00
         -2   -1    0    0    0  501 -0.00000000000E+00  0.00000000000E+00  0.67044340000E+02  0.67044340000E+02  0.00000000000E+00 0. -1.
          2   -1    0    0  501    0  0.00000000000E+00 -0.00000000000E+00 -0.41440995081E+03  0.41440995081E+03  0.00000000000E+00 0.  1.
         23    2    1    2    0    0 -0.12457632157E+03 -0.14991986598E+02 -0.18029016466E+03  0.23793127172E+03  0.91447947098E+02 0.  0.
          5    1    1    2  502    0  0.21319391449E+02  0.28184719215E+02  0.10969152373E+02  0.37238280744E+02  0.41800000000E+01 0.  1.
         -5    1    1    2    0  502  0.10325693013E+03 -0.13192732618E+02 -0.17804459853E+03  0.20628473835E+03  0.41800000000E+01 0.  1.
        -11    1    3    3    0    0  0.79573634034E+01  0.16377578727E+02 -0.13895862415E+02  0.22905014943E+02  0.00000000000E+00 0. -1.
         11    1    3    3    0    0 -0.13253368498E+03 -0.31369565325E+02 -0.16639430225E+03  0.21502625678E+03  0.00000000000E+00 0.  1.
</event>
<event>
 7    1  0.6145388E-006  0.1348897E+03  0.7561462E-02  0.1220376E+00
         -1   -1    0    0    0  501 -0.00000000000E+00  0.00000000000E+00  0.32018638926E+03  0.32018638926E+03  0.00000000000E+00 0.  1.
          1   -1    0    0  501    0  0.00000000000E+00 -0.00000000000E+00 -0.65571019470E+02  0.65571019470E+02  0.00000000000E+00 0. -1.
         23    2    1    2    0    0  0.76167245997E+02 -0.57363489059E+02  0.10182516832E+03  0.16647505773E+03  0.90849109537E+02 0.  0.
          5    1    1    2  502    0 -0.43436892764E+01 -0.29573522755E+02  0.78697370007E+02  0.84286471814E+02  0.41800000000E+01 0. -1.
         -5    1    1    2    0  502 -0.71823556720E+02  0.86937011814E+02  0.74092831462E+02  0.13499587919E+03  0.41800000000E+01 0. -1.
        -11    1    3    3    0    0  0.66086869568E+02  0.24136463173E+01  0.30375168439E+02  0.72773284078E+02  0.00000000000E+00 0. -1.
         11    1    3    3    0    0  0.10080376429E+02 -0.59777135376E+02  0.71449999884E+02  0.93701773656E+02  0.00000000000E+00 0.  1.
</event>
<event>
 7    1  0.6145388E-006  0.1143431E+03  0.7561462E-02  0.1252732E+00
          2   -1    0    0  501    0  0.00000000000E+00  0.00000000000E+00  0.36992946361E+03  0.36992946361E+03  0.00000000000E+00 0. -1.
         -2   -1    0    0    0  501 -0.00000000000E+00 -0.00000000000E+00 -0.50578968209E+02  0.50578968209E+02  0.00000000000E+00 0.  1.
         23    2    1    2    0    0  0.29150208903E+02  0.73362756080E+02  0.17361918676E+03  0.21285487073E+03  0.94507911438E+02 0.  0.
          5    1    1    2  502    0  0.29147448811E+02 -0.42960539945E+02  0.12981954828E+03  0.13987769400E+03  0.41800000000E+01 0. -1.
         -5    1    1    2    0  502 -0.58297657715E+02 -0.30402216135E+02  0.15911760362E+02  0.67775867082E+02  0.41800000000E+01 0. -1.
        -11    1    3    3    0    0  0.30417371289E+02  0.89503619520E+02  0.10053108421E+03  0.13799497555E+03  0.00000000000E+00 0.  1.
         11    1    3    3    0    0 -0.12671623853E+01 -0.16140863440E+02  0.73088102547E+02  0.74859895185E+02  0.00000000000E+00 0. -1.
</event>
<event>
 7    1  0.6145388E-006  0.1611090E+03  0.7561462E-02  0.1187450E+00
          1   -1    0    0  501    0  0.00000000000E+00  0.00000000000E+00  0.21507804429E+03  0.21507804429E+03  0.00000000000E+00 0. -1.
         -1   -1    0    0    0  501 -0.00000000000E+00 -0.00000000000E+00 -0.14627035320E+03  0.14627035320E+03  0.00000000000E+00 0.  1.
         23    2    1    2    0    0 -0.71294168720E+02  0.10564324689E+03  0.90024666751E+02  0.18151773617E+03  0.92741003946E+02 0.  0.
          5    1    1    2  502    0  0.68831116781E+02 -0.56058287341E+01 -0.36971185582E+02  0.78444177072E+02  0.41800000000E+01 0.  1.
         -5    1    1    2    0  502  0.24630519395E+01 -0.10003741816E+03  0.15754209919E+02  0.10138648424E+03  0.41800000000E+01 0.  1.
        -11    1    3    3    0    0 -0.43333565219E+01  0.81624313086E+02  0.69995525431E+02  0.10761356813E+03  0.00000000000E+00 0. -1.
         11    1    3    3    0    0 -0.66960812198E+02  0.24018933807E+02  0.20029141319E+02  0.73904168039E+02  0.00000000000E+00 0.  1.
</event>
<event>
 7    1  0.6145388E-006  0.1788407E+03  0.7561462E-02  0.1168930E+00
         -1   -1    0    0    0  501 -0.00000000000E+00  0.00000000000E+00  0.60017568082E+02  0.60017568082E+02  0.00000000000E+00 0.  1.
          1   -1    0    0  501    0  0.00000000000E+00 -0.00000000000E+00 -0.68370861661E+03  0.68370861661E+03  0.00000000000E+00 0. -1.
         23    2    1    2    0    0 -0.33103417733E+02  0.16105703480E+03 -0.37919551789E+03  0.42363128385E+03  0.92946324031E+02 0.  0.
          5    1    1    2  502    0 -0.27219558451E+02 -0.80584863164E+02 -0.18375617542E+03  0.20253056297E+03  0.41800000000E+01 0.  1.
         -5    1    1    2    0  502  0.60322976184E+02 -0.80472171638E+02 -0.60739355218E+02  0.11756433786E+03  0.41800000000E+01 0.  1.
        -11    1    3    3    0    0 -0.10973862286E+01  0.11903454705E+03 -0.16779925361E+03  0.20573530849E+03  0.00000000000E+00 0.  1.
         11    1    3    3    0    0 -0.32006031504E+02  0.42022487752E+02 -0.21139626428E+03  0.21789597537E+03  0.00000000000E+00 0. -1.
</event>
<event>
 7    1  0.6145388E-006  0.1003627E+03  0.7561462E-02  0.1279535E+00
         -2   -1    0    0    0  501 -0.00000000000E+00  0.00000000000E+00  0.61597032904E+02  0.61597032904E+02  0.00000000000E+00 0. -1.
          2   -1    0    0  501    0  0.00000000000E+00 -0.00000000000E+00 -0.21654716705E+03  0.21654716705E+03  0.00000000000E+00 0.  1.
         23    2    1    2    0    0 -0.39821250056E+01 -0.28082556056E+02 -0.12284047608E+03  0.14591301037E+03  0.73459762851E+02 0.  0.
          5    1    1    2  502    0 -0.35537507596E+02  0.62959041512E+02 -0.44352039841E+01  0.72552731090E+02  0.41800000000E+01 0.  1.
         -5    1    1    2    0  502  0.39519632602E+02 -0.34876485457E+02 -0.27674454077E+02  0.59678458486E+02  0.41800000000E+01 0.  1.
        -11    1    3    3    0    0 -0.33918216264E+02  0.67309075774E+00 -0.34918128044E+02  0.48684433978E+02  0.00000000000E+00 0.  1.
         11    1    3    3    0    0  0.29936091258E+02 -0.28755646813E+02 -0.87922348037E+02  0.97228576395E+02  0.00000000000E+00 0. -1.
</event>
<event>
 7    1  0.6145388E-006  0.2225692E+03  0.7561462E-02  0.1131982E+00
         -2   -1    0    0    0  501 -0.00000000000E+00  0.00000000000E+00  0.17072170105E+03  0.17072170105E+03  0.00000000000E+00 0.  1.
          2   -1    0    0  501    0  0.00000000000E+00 -0.00000000000E+00 -0.38936519894E+03  0.38936519894E+03  0.00000000000E+00 0. -1.
         23    2    1    2    0    0 -0.20912984330E+03 -0.14883492275E+02 -0.21845412493E+03  0.31594641462E+03  0.90239251493E+02 0.  0.
          5    1    1    2  502    0  0.18635661347E+02 -0.33310114648E+02 -0.25329107188E+02  0.45998779143E+02  0.41800000000E+01 0. -1.
         -5    1    1    2    0  502  0.19049418196E+03  0.48193606923E+02  0.25139734226E+02  0.19814170622E+03  0.41800000000E+01 0. -1.
        -11    1    3    3    0    0 -0.23602264419E+02 -0.65144506239E+01 -0.81760201193E+02  0.85347732552E+02  0.00000000000E+00 0. -1.
         11    1    3    3    0    0 -0.18552757888E+03 -0.83690416510E+01 -0.13669392373E+03  0.23059868207E+03  0.00000000000E+00 0.  1.
</event>
<event>
 7    1  0.6145388E-006  0.1064526E+03  0.7561462E-02  0.1267284E+00
         -1   -1    0    0    0  501 -0.00000000000E+00  0.00000000000E+00  0.38838197082E+03  0.38838197082E+03  0.00000000000E+00 0.  1.
          1   -1    0    0  501    0  0.00000000000E+00 -0.00000000000E+00 -0.30997849880E+02  0.30997849880E+02  0.00000000000E+00 0. -1.
         23    2    1    2    0    0 -0.19224547418E+02  0.32864477959E+01  0.13695710589E+03  0.16518592202E+03  0.90270460372E+02 0.  0.
          5    1    1    2  502    0 -0.44848318273E+02  0.29869290084E+02  0.10282516364E+03  0.11616381890E+03  0.41800000000E+01 0. -1.
         -5    1    1    2    0  502  0.64072865691E+02 -0.33155737880E+02  0.11760185140E+03  0.13803007979E+03  0.41800000000E+01 0. -1.
        -11    1    3    3    0    0  0.33457461557E+02  0.52977327852E+01  0.83480484313E+02  0.90091392306E+02  0.00000000000E+00 0.  1.
         11    1    3    3    0    0 -0.52682008976E+02 -0.20112849893E+01  0.53476621580E+02  0.75094529712E+02  0.00000000000E+00 0. -1.
</event>
<event>
 7    1  0.6145388E-006  0.1415990E+03  0.7561462E-02  0.1211193E+00
          2   -1    0    0  501    0  0.00000000000E+00  0.00000000000E+00  0.11632608344E+04  0.11632608344E+04  0.00000000000E+00 0. -1.
         -2   -1    0    0    0  501 -0.00000000000E+00 -0.00000000000E+00 -0.24705851106E+02  0.24705851106E+02  0.00000000000E+00 0.  1.
         23    2    1    2    0    0 -0.68828114678E+02 -0.11093443004E+03  0.52108839397E+03  0.54457177750E+03  0.89339517436E+02 0.  0.
          5    1    1    2  502    0  0.69641032260E+02  0.11444575892E+03  0.62198440778E+03  0.63626235236E+03  0.41800000000E+01 0. -1.
         -5    1    1    2    0  502 -0.81291758262E+00 -0.35113288815E+01 -0.45178184993E+01  0.71325556081E+01  0.41800000000E+01 0. -1.
        -11    1    3    3    0    0 -0.38038312856E+02 -0.11781711553E+02  0.60516751915E+02  0.72443075821E+02  0.00000000000E+00 0.  1.
         11    1    3    3    0    0 -0.30789801822E+02 -0.99152718488E+02  0.46057164206E+03  0.47212870168E+03  0.00000000000E+00 0. -1.
</event>
<event>
 7    1  0.6145388E-006  0.1108417E+03  0.7561462E-02  0.1259019E+00
         -4   -1    0    0    0  501 -0.00000000000E+00  0.00000000000E+00  0.90762992636E+03  0.90762992636E+03  0.00000000000E+00 0.  1.
          4   -1    0    0  501    0  0.00000000000E+00 -0.00000000000E+00 -0.16941879003E+02  0.16941879003E+02  0.00000000000E+00 0. -1.
         23    2    1    2    0    0  0.37822907626E+02 -0.27730933461E+02  0.21390766099E+03  0.23720639670E+03  0.91163645118E+02 0.  0.
          5    1    1    2  502    0 -0.73810236693E+02  0.36132401551E+02  0.49869303877E+03  0.50543616887E+03  0.41800000000E+01 0. -1.
         -5    1    1    2    0  502  0.35987329067E+02 -0.84014680907E+01  0.17808734759E+03  0.18192923980E+03  0.41800000000E+01 0.  1.
        -11    1    3    3    0    0  0.67666175196E+02 -0.25386796000E+02  0.14254835131E+03  0.15982250510E+03  0.00000000000E+00 0.  1.
         11    1    3    3    0    0 -0.29843267570E+02 -0.23441374603E+01  0.71359309684E+02  0.77383891594E+02  0.00000000000E+00 0. -1.
</event>
<event>
 7    1  0.6145388E-006  0.2233995E+03  0.7561462E-02  0.1131374E+00
         -2   -1    0    0    0  501 -0.00000000000E+00  0.00000000000E+00  0.80995416745E+02  0.80995416745E+02  0.00000000000E+00 0.  1.
          2   -1    0    0  501    0  0.00000000000E+00 -0.00000000000E+00 -0.66054706027E+03  0.66054706027E+03  0.00000000000E+00 0. -1.
         23    2    1    2    0    0 -0.10993443495E+03 -0.16219545210E+03 -0.36902110698E+03  0.42790404319E+03  0.92370710224E+02 0.  0.
          5    1    1    2  502    0 -0.25772666889E+02  0.38489752054E+02 -0.61503285471E+02  0.77109129781E+02  0.41800000000E+01 0.  1.
         -5    1    1    2    0  502  0.13570710184E+03  0.12370570004E+03 -0.14902725107E+03  0.23652930405E+03  0.41800000000E+01 0.  1.
        -11    1    3    3    0    0 -0.12625919520E+03 -0.13459434346E+03 -0.31581085336E+03  0.36577796101E+03  0.00000000000E+00 0.  1.
         11    1    3    3    0    0  0.16324760252E+02 -0.27601108638E+02 -0.53210253626E+02  0.62126082174E+02  0.00000000000E+00 0. -1.
</event>
<event>
 7    1  0.6145388E-006  0.1072704E+03  0.7561462E-02  0.1265710E+00
         -2   -1    0    0    0  501 -0.00000000000E+00  0.00000000000E+00  0.18669280705E+03  0.18669280705E+03  0.00000000000E+00 0.  1.
          2   -1    0    0  501    0  0.00000000000E+00 -0.00000000000E+00 -0.75012647752E+02  0.75012647752E+02  0.00000000000E+00 0. -1.
         23    2    1    2    0    0  0.36507407163E+02 -0.14831669096E+02  0.18968445686E+02  0.10109699405E+03  0.91148401452E+02 0.  0.
          5    1    1    2  502    0  0.41361156224E+02 -0.19528421712E+02  0.32032104140E+02  0.55996719497E+02  0.41800000000E+01 0.  1.
         -5    1    1    2    0  502 -0.77868563387E+02  0.34360090808E+02  0.60679609474E+02  0.10461174126E+03  0.41800000000E+01 0.  1.
        -11    1    3    3    0    0  0.53689986508E+02  0.85633492324E+01  0.38049148215E+02  0.66360253776E+02  0.00000000000E+00 0.  1.
         11    1    3    3    0    0 -0.17182579345E+02 -0.23395018328E+02 -0.19080702529E+02  0.34736740269E+02  0.00000000000E+00 0. -1.
</event>
<event>
 7    1  0.6145388E-006  0.1031939E+03  0.7561462E-02  0.1273720E+00
         -1   -1    0    0    0  501 -0.00000000000E+00  0.00000000000E+00  0.18973376224E+02  0.18973376224E+02  0.00000000000E+00 0.  1.
          1   -1    0    0  501    0  0.00000000000E+00 -0.00000000000E+00 -0.66266115874E+03  0.66266115874E+03  0.00000000000E+00 0. -1.
         23    2    1    2    0    0  0.25584732488E+02  0.49601463220E+01 -0.32903131491E+03  0.34202360515E+03  0.89662470973E+02 0.  0.
          5    1    1    2  502    0 -0.68094632889E+02 -0.21499035061E+02 -0.12056085211E+03  0.14018373300E+03  0.41800000000E+01 0. -1.
         -5    1    1    2    0  502  0.42509900402E+02  0.16538888739E+02 -0.19409561550E+03  0.19942719681E+03  0.41800000000E+01 0. -1.
        -11    1    3    3    0    0  0.56918170685E+02 -0.20084827199E+01 -0.25584401199E+03  0.26210660165E+03  0.00000000000E+00 0. -1.
         11    1    3    3    0    0 -0.31333438198E+02  0.69686290419E+01 -0.73187302924E+02  0.79917003506E+02  0.00000000000E+00 0.  1.
</event>
<event>
 7    1  0.6145388E-006  0.2221392E+03  0.7561462E-02  0.1132298E+00
          2   -1    0    0  501    0  0.00000000000E+00  0.00000000000E+00  0.62353274809E+03  0.62353274809E+03  0.00000000000E+00 0. -1.
         -2   -1    0    0    0  501 -0.00000000000E+00 -0.00000000000E+00 -0.92020122091E+02  0.92020122091E+02  0.00000000000E+00 0.  1.
         23    2    1    2    0    0  0.43905627913E+02  0.20761380732E+03  0.28776707840E+03  0.36901227902E+03  0.91263210050E+02 0.  0.
          5    1    1    2  502    0 -0.31496506922E+02 -0.21339824275E+03  0.25059164833E+03  0.33067277870E+03  0.41800000000E+01 0. -1.
         -5    1    1    2    0  502 -0.12409120991E+02  0.57844354301E+01 -0.68461007284E+01  0.15867812458E+02  0.41800000000E+01 0. -1.
        -11    1    3    3    0    0  0.48312626575E+02  0.19246500737E+03  0.20712273537E+03  0.28683918222E+03  0.00000000000E+00 0.  1.
         11    1    3    3    0    0 -0.44069986616E+01  0.15148799958E+02  0.80644343021E+02  0.82173096806E+02  0.00000000000E+00 0. -1.
</event>
<event>
 7    1  0.6145388E-006  0.1350657E+03  0.7561462E-02  0.1220127E+00
         -1   -1    0    0    0  501 -0.00000000000E+00  0.00000000000E+00  0.49317702524E+02  0.49317702524E+02  0.00000000000E+00 0. -1.
          1   -1    0    0  501    0  0.00000000000E+00 -0.00000000000E+00 -0.46808596651E+03  0.46808596651E+03  0.00000000000E+00 0.  1.
         23    2    1    2    0    0 -0.26059078478E+02 -0.10262046617E+03 -0.22995163142E+03  0.26738548488E+03  0.86065144447E+02 0.  0.
          5    1    1    2  502    0 -0.24542556928E+02 -0.18976387350E+02 -0.27027728687E+02  0.41357114205E+02  0.41800000000E+01 0. -1.
         -5    1    1    2    0  502  0.50601635406E+02  0.12159685352E+03 -0.16178890388E+03  0.20866106994E+03  0.41800000000E+01 0. -1.
        -11    1    3    3    0    0 -0.11584446656E+02 -0.19473374503E+02 -0.23946425127E+00  0.22659855736E+02  0.00000000000E+00 0. -1.
         11    1    3    3    0    0 -0.14474631823E+02 -0.83147091663E+02 -0.22971216716E+03  0.24472562915E+03  0.00000000000E+00 0.  1.
</event>
<event>
 7    1  0.6145388E-006  0.1093339E+03  0.7561462E-02  0.1261808E+00
          1   -1    0    0  501    0  0.00000000000E+00  0.00000000000E+00  0.21690625769E+03  0.21690625769E+03  0.00000000000E+00 0. -1.
         -1   -1    0    0    0  501 -0.00000000000E+00 -0.00000000000E+00 -0.16493120652E+03  0.16493120652E+03  0.00000000000E+00 0.  1.
         23    2    1    2    0    0 -0.12176851985E+02  0.10743916251E+03  0.13576518066E+03  0.19647356886E+03  0.92077302398E+02 0.  0.
          5    1    1    2  502    0  0.85776697775E+01 -0.42982721572E+02 -0.10773338399E+03  0.11638318263E+03  0.41800000000E+01 0. -1.
         -5    1    1    2    0  502  0.35991822075E+01 -0.64456440937E+02  0.23943254497E+02  0.68980712715E+02  0.41800000000E+01 0. -1.
        -11    1    3    3    0    0  0.46002329083E+01  0.46925017920E+02  0.12389666241E+03  0.13256508744E+03  0.00000000000E+00 0. -1.
         11    1    3    3    0    0 -0.16777084893E+02  0.60514144588E+02  0.11868518246E+02  0.63908481426E+02  0.00000000000E+00 0.  1.
</event>
<event>
 7    1  0.6145388E-006  0.1434489E+03  0.7561462E-02  0.1208762E+00
         -2   -1    0    0    0  501 -0.00000000000E+00  0.00000000000E+00  0.15423165777E+03  0.15423165777E+03  0.00000000000E+00 0.  1.
          2   -1    0    0  501    0  0.00000000000E+00 -0.00000000000E+00 -0.15346845919E+03  0.15346845919E+03  0.00000000000E+00 0. -1.
         23    2    1    2    0    0  0.10734060363E+03  0.16795196512E+02 -0.15496944284E+02  0.14124870928E+03  0.88921081731E+02 0.  0.
          5    1    1    2  502    0 -0.92197266960E+02 -0.58931965188E+02 -0.16601989741E+02  0.11075383072E+03  0.41800000000E+01 0. -1.
         -5    1    1    2    0  502 -0.15143336673E+02  0.42136768676E+02  0.32862132601E+02  0.55697576959E+02  0.41800000000E+01 0. -1.
        -11    1    3    3    0    0  0.50961246631E+02 -0.30017428786E+02 -0.30351149187E+02  0.66477717666E+02  0.00000000000E+00 0. -1.
         11    1    3    3    0    0  0.56379357002E+02  0.46812625298E+02  0.14854204903E+02  0.74770991612E+02  0.00000000000E+00 0.  1.
</event>
<event>
 7    1  0.6145388E-006  0.1051145E+03  0.7561462E-02  0.1269894E+00
         -1   -1    0    0    0  501 -0.00000000000E+00  0.00000000000E+00  0.26980382818E+03  0.26980382818E+03  0.00000000000E+00 0.  1.
          1   -1    0    0  501    0  0.00000000000E+00 -0.00000000000E+00 -0.63334216522E+02  0.63334216522E+02  0.00000000000E+00 0. -1.
         23    2    1    2    0    0 -0.67219559681E+02  0.25431630714E+02  0.85903668006E+02  0.14512408797E+03  0.92283929743E+02 0.  0.
          5    1    1    2  502    0 -0.82519081531E+01 -0.14050972891E+02  0.10949211871E+03  0.11077689420E+03  0.41800000000E+01 0.  1.
         -5    1    1    2    0  502  0.75471467834E+02 -0.11380657823E+02  0.11073824937E+02  0.77237062530E+02  0.41800000000E+01 0.  1.
        -11    1    3    3    0    0 -0.60006285023E+02  0.58092508962E+02  0.61088739650E+02  0.10347621926E+03  0.00000000000E+00 0.  1.
         11    1    3    3    0    0 -0.72132746574E+01 -0.32660878248E+02  0.24814928356E+02  0.41647868716E+02  0.00000000000E+00 0. -1.
</event>
<event>
 7    1  0.6145388E-006  0.1472466E+03  0.7561462E-02  0.1203898E+00
         -2   -1    0    0    0  501 -0.00000000000E+00  0.00000000000E+00  0.39258930152E+02  0.39258930152E+02  0.00000000000E+00 0. -1.
          2   -1    0    0  501    0  0.00000000000E+00 -0.00000000000E+00 -0.81748622654E+03  0.81748622654E+03  0.00000000000E+00 0.  1.
         23    2    1    2    0    0  0.13573600747E+03 -0.34174335245E+02 -0.41787118736E+03  0.45040732118E+03  0.93049862054E+02 0.  0.
          5    1    1    2  502    0 -0.27909379338E+02  0.32116694852E+02 -0.24366677520E+03  0.24738913735E+03  0.41800000000E+01 0. -1.
         -5    1    1    2    0  502 -0.10782662814E+03  0.20576403929E+01 -0.11668933383E+03  0.15894869817E+03  0.41800000000E+01 0. -1.
        -11    1    3    3    0    0  0.52250534708E+02 -0.29937115573E+02 -0.68642688639E+02  0.91313569472E+02  0.00000000000E+00 0. -1.
         11    1    3    3    0    0  0.83485472766E+02 -0.42372196715E+01 -0.34922849872E+03  0.35909375170E+03  0.00000000000E+00 0.  1.
</event>
<event>
 7    1  0.6145388E-006  0.1388474E+03  0.7561462E-02  0.1214888E+00
          2   -1    0    0  501    0  0.00000000000E+00  0.00000000000E+00  0.81371393482E+03  0.81371393482E+03  0.00000000000E+00 0. -1.
         -2   -1    0    0    0  501 -0.00000000000E+00 -0.00000000000E+00 -0.35004861335E+02  0.35004861335E+02  0.00000000000E+00 0.  1.
         23    2    1    2    0    0 -0.19817134112E+02 -0.12448797369E+03  0.30771807863E+03  0.34535986446E+03  0.93236503918E+02 0.  0.
          5    1    1    2  502    0 -0.24759440751E+01  0.13645431774E+02 -0.40424670385E+01  0.15038020053E+02  0.41800000000E+01 0.  1.
         -5    1    1    2    0  502  0.22293078187E+02  0.11084254192E+03  0.47503346189E+03  0.48832091165E+03  0.41800000000E+01 0.  1.
        -11    1    3    3    0    0 -0.50565368835E+02 -0.94183435606E+02  0.25940629037E+03  0.28056906378E+03  0.00000000000E+00 0. -1.
         11    1    3    3    0    0  0.30748234723E+02 -0.30304538083E+02  0.48311788262E+02  0.64790800674E+02  0.00000000000E+00 0.  1.
</event>
<event>
 7    1  0.6145388E-006  0.1175654E+03  0.7561462E-02  0.1247168E+00
         -3   -1    0    0    0  501 -0.00000000000E+00  0.00000000000E+00  0.34487453513E+02  0.34487453513E+02  0.00000000000E+00 0. -1.
          3   -1    0    0  501    0  0.00000000000E+00 -0.00000000000E+00 -0.40628785702E+03  0.40628785702E+03  0.00000000000E+00 0.  1.
         23    2    1    2    0    0 -0.27331001203E+02  0.36426750720E+02 -0.17756903744E+03  0.20530464650E+03  0.92441024568E+02 0.  0.
          5    1    1    2  502    0 -0.44799711699E+02  0.10416826354E+02 -0.80663908806E+02  0.92949787646E+02  0.41800000000E+01 0. -1.
         -5    1    1    2    0  502  0.72130712902E+02 -0.46843577074E+02 -0.11356745726E+03  0.14252087639E+03  0.41800000000E+01 0. -1.
        -11    1    3    3    0    0 -0.61693795725E+02  0.25782696847E+02 -0.12161618351E+03  0.13878533057E+03  0.00000000000E+00 0.  1.
         11    1    3    3    0    0  0.34362794522E+02  0.10644053872E+02 -0.55952853929E+02  0.66519315939E+02  0.00000000000E+00 0. -1.
</event>
<event>
 7    1  0.6145388E-006  0.1998135E+03  0.7561462E-02  0.1149896E+00
         -2   -1    0    0    0  501 -0.00000000000E+00  0.00000000000E+00  0.37292983323E+03  0.37292983323E+03  0.00000000000E+00 0. -1.
          2   -1    0    0  501    0  0.00000000000E+00 -0.00000000000E+00 -0.12856585841E+03  0.12856585841E+03  0.00000000000E+00 0.  1.
         23    2    1    2    0    0  0.16971260614E+03 -0.19494581772E+02  0.22455369660E+02  0.19478381377E+03  0.90851984442E+02 0.  0.
          5    1    1    2  502    0 -0.14398902890E+03 -0.35483591942E+02  0.13474327068E+03  0.20041244257E+03  0.41800000000E+01 0. -1.
         -5    1    1    2    0  502 -0.25723577240E+02  0.54978173714E+02  0.87165334481E+02  0.10629943530E+03  0.41800000000E+01 0. -1.
        -11    1    3    3    0    0  0.93427673223E+02 -0.52660140882E+02  0.29709353758E+02  0.11128551686E+03  0.00000000000E+00 0.  1.
         11    1    3    3    0    0  0.76284932922E+02  0.33165559110E+02 -0.72539840973E+01  0.83498296912E+02  0.00000000000E+00 0. -1.
</event>
<event>
 7    1  0.6145388E-006  0.8171600E+02  0.7561462E-02  0.1324251E+00
          4   -1    0    0  501    0  0.00000000000E+00  0.00000000000E+00  0.64884834565E+02  0.64884834565E+02  0.00000000000E+00 0. -1.
         -4   -1    0    0    0  501 -0.00000000000E+00 -0.00000000000E+00 -0.21327509607E+03  0.21327509607E+03  0.00000000000E+00 0.  1.
         23    2    1    2    0    0  0.17880447935E+01 -0.22968634983E+02 -0.17397462143E+02  0.95574591512E+02  0.91110238483E+02 0.  0.
          5    1    1    2  502    0  0.31357842546E+02  0.68098736881E+01  0.12259356535E+02  0.34604232276E+02  0.41800000000E+01 0.  1.
         -5    1    1    2    0  502 -0.33145887339E+02  0.16158761295E+02 -0.14325215590E+03  0.14798110685E+03  0.41800000000E+01 0.  1.
        -11    1    3    3    0    0  0.46171343592E+02 -0.65274195123E+01 -0.95348503336E+01  0.47595310120E+02  0.00000000000E+00 0.  1.
         11    1    3    3    0    0 -0.44383298798E+02 -0.16441215471E+02 -0.78626118092E+01  0.47979281392E+02  0.00000000000E+00 0. -1.
</event>
<event>
 7    1  0.6145388E-006  0.1496877E+03  0.7561462E-02  0.1200857E+00
          1   -1    0    0  501    0  0.00000000000E+00  0.00000000000E+00  0.20073978093E+03  0.20073978093E+03  0.00000000000E+00 0. -1.
         -1   -1    0    0    0  501 -0.00000000000E+00 -0.00000000000E+00 -0.17467933418E+03  0.17467933418E+03  0.00000000000E+00 0.  1.
         23    2    1    2    0    0  0.12053965166E+03 -0.23703281019E+02  0.10205004811E+03  0.18434252300E+03  0.92066825263E+02 0.  0.
          5    1    1    2  502    0 -0.14309777551E+01  0.27107482883E+02 -0.65930453635E+02  0.71422408543E+02  0.41800000000E+01 0.  1.
         -5    1    1    2    0  502 -0.11910867391E+03 -0.34042018643E+01 -0.10059147726E+02  0.11965418356E+03  0.41800000000E+01 0.  1.
        -11    1    3    3    0    0  0.13222384692E+03 -0.34628690416E+02  0.96866071715E+02  0.16752709555E+03  0.00000000000E+00 0.  1.
         11    1    3    3    0    0 -0.11684195255E+02  0.10925409397E+02  0.51839763973E+01  0.16815427456E+02  0.00000000000E+00 0. -1.
</event>
<event>
 7    1  0.6145388E-006  0.5968498E+02  0.7561462E-02  0.1399159E+00
          1   -1    0    0  501    0  0.00000000000E+00  0.00000000000E+00  0.32637141197E+02  0.32637141197E+02  0.00000000000E+00 0. -1.
         -1   -1    0    0    0  501 -0.00000000000E+00 -0.00000000000E+00 -0.46209213941E+03  0.46209213941E+03  0.00000000000E+00 0.  1.
         23    2    1    2    0    0 -0.17746264383E+02  0.62200468873E+01 -0.77810451514E+02  0.12102499073E+03  0.90768734342E+02 0.  0.
          5    1    1    2  502    0 -0.14243396560E+02  0.27622731497E+01  0.46814990011E+01  0.15808014784E+02  0.41800000000E+01 0. -1.
         -5    1    1    2    0  502  0.31989660942E+02 -0.89823200370E+01 -0.35632604570E+03  0.35789627509E+03  0.41800000000E+01 0. -1.
        -11    1    3    3    0    0 -0.31954655189E+02  0.29512639517E+02 -0.56313565787E+01  0.43861236376E+02  0.00000000000E+00 0. -1.
         11    1    3    3    0    0  0.14208390806E+02 -0.23292592629E+02 -0.72179094936E+02  0.77163754357E+02  0.00000000000E+00 0.  1.
</event>
<event>
 7    1  0.6145388E-006  0.8215920E+02  0.7561462E-02  0.1323033E+00
          2   -1    0    0  501    0  0.00000000000E+00  0.00000000000E+00  0.27717700147E+03  0.27717700147E+03  0.00000000000E+00 0. -1.
         -2   -1    0    0    0  501 -0.00000000000E+00 -0.00000000000E+00 -0.55191911766E+02  0.55191911766E+02  0.00000000000E+00 0.  1.
         23    2    1    2    0    0  0.16896844519E+02 -0.55252974449E+02  0.12377411154E+03  0.16315844677E+03  0.89231460397E+02 0.  0.
          5    1    1    2  502    0 -0.61634531687E+01  0.56283833384E+02 -0.12303772345E+02  0.58092282356E+02  0.41800000000E+01 0.  1.
         -5    1    1    2    0  502 -0.10733391350E+02 -0.10308589347E+01  0.11051475051E+03  0.11111818411E+03  0.41800000000E+01 0.  1.
        -11    1    3    3    0    0  0.32660264858E+02 -0.68176285267E+02  0.12087805138E+03  0.14256999011E+03  0.00000000000E+00 0. -1.
         11    1    3    3    0    0 -0.15763420339E+02  0.12923310818E+02  0.28960601578E+01  0.20588456662E+02  0.00000000000E+00 0.  1.
</event>
<event>
 7    1  0.6145388E-006  0.1055458E+03  0.7561462E-02  0.1269048E+00
         -1   -1    0    0    0  501 -0.00000000000E+00  0.00000000000E+00  0.17534204794E+03  0.17534204794E+03  0.00000000000E+00 0.  1.
          1   -1    0    0  501    0  0.00000000000E+00 -0.00000000000E+00 -0.10230835593E+03  0.10230835593E+03  0.00000000000E+00 0. -1.
         23    2    1    2    0    0 -0.54462933698E+02 -0.34314305999E+02 -0.12409558059E+02  0.11304707582E+03  0.92097564995E+02 0.  0.
          5    1    1    2  502    0  0.79131851871E+02 -0.18883539824E+02  0.56010586561E+02  0.98858971589E+02  0.41800000000E+01 0.  1.
         -5    1    1    2    0  502 -0.24668918173E+02  0.53197845823E+02  0.29432663506E+02  0.65744356451E+02  0.41800000000E+01 0.  1.
        -11    1    3    3    0    0 -0.46790497089E+02 -0.13560758886E+02  0.35497615115E+02  0.60277072576E+02  0.00000000000E+00 0.  1.
         11    1    3    3    0    0 -0.76724366082E+01 -0.20753547114E+02 -0.47907173174E+02  0.52770003249E+02  0.00000000000E+00 0. -1.
</event>
<event>
 7    1  0.6145388E-006  0.1051747E+03  0.7561462E-02  0.1269776E+00
         -1   -1    0    0    0  501 -0.00000000000E+00  0.00000000000E+00  0.41470894890E+02  0.41470894890E+02  0.00000000000E+00 0.  1.
          1   -1    0    0  501    0  0.00000000000E+00 -0.00000000000E+00 -0.29922921064E+03  0.29922921064E+03  0.00000000000E+00 0. -1.
         23    2    1    2    0    0  0.98534857078E+01  0.28818085660E+02 -0.11240445622E+03  0.14652636565E+03  0.88924916704E+02 0.  0.
          5    1    1    2  502    0 -0.34798117213E+01  0.46908161614E+02 -0.29905329236E+02  0.55895311363E+02  0.41800000000E+01 0. -1.
         -5    1    1    2    0  502 -0.63736739866E+01 -0.75726247274E+02 -0.11544853030E+03  0.13827842852E+03  0.41800000000E+01 0. -1.
        -11    1    3    3    0    0 -0.18902862669E+02 -0.21767884867E+02 -0.13636378276E+02  0.31892159556E+02  0.00000000000E+00 0.  1.
         11    1    3    3    0    0  0.28756348377E+02  0.50585970527E+02 -0.98768077939E+02  0.11463420609E+03  0.00000000000E+00 0. -1.
</event>
<event>
 7    1  0.6145388E-006  0.1639726E+03  0.7561462E-02  0.1184283E+00
          1   -1    0    0  501    0  0.00000000000E+00  0.00000000000E+00  0.66953557492E+03  0.66953557492E+03  0.00000000000E+00 0. -1.
         -1   -1    0    0    0  501 -0.00000000000E+00 -0.00000000000E+00 -0.46706657278E+02  0.46706657278E+02  0.00000000000E+00 0.  1.
         23    2    1    2    0    0  0.13404983243E+02  0.12503924126E+03  0.41735949708E+03  0.44480115591E+03  0.88569820322E+02 0.  0.
          5    1    1    2  502    0  0.45268546404E+02 -0.11864472731E+02  0.78389242523E+02  0.91391207181E+02  0.41800000000E+01 0. -1.
         -5    1    1    2    0  502 -0.58673529646E+02 -0.11317476853E+03  0.12708017804E+03  0.18004986910E+03  0.41800000000E+01 0. -1.
        -11    1    3    3    0    0  0.50093861582E+02  0.88123810185E+02  0.29064106822E+03  0.30781070713E+03  0.00000000000E+00 0. -1.
         11    1    3    3    0    0 -0.36688878340E+02  0.36915431074E+02  0.12671842885E+03  0.13699044878E+03  0.00000000000E+00 0.  1.
</event>
<event>
 7    1  0.6145388E-006  0.1035397E+03  0.7561462E-02  0.1273024E+00
          2   -1    0    0  501    0  0.00000000000E+00  0.00000000000E+00  0.15631106112E+03  0.15631106112E+03  0.00000000000E+00 0. -1.
         -2   -1    0    0    0  501 -0.00000000000E+00 -0.00000000000E+00 -0.89614049384E+02  0.89614049384E+02  0.00000000000E+00 0.  1.
         23    2    1    2    0    0 -0.31148545034E+02 -0.61218469847E+01  0.67928065644E+02  0.11686561497E+03  0.89641736885E+02 0.  0.
          5    1    1    2  502    0  0.66194054443E+02  0.34172577539E+02 -0.24231765502E+02  0.78447872875E+02  0.41800000000E+01 0.  1.
         -5    1    1    2    0  502 -0.35045509410E+02 -0.28050730554E+02  0.23000711593E+02  0.50611622659E+02  0.41800000000E+01 0.  1.
        -11    1    3    3    0    0 -0.51710268175E+02 -0.26783699999E+02  0.65455613412E+02  0.87611390512E+02  0.00000000000E+00 0. -1.
         11    1    3    3    0    0  0.20561723141E+02  0.20661853014E+02  0.24724522318E+01  0.29254224457E+02  0.00000000000E+00 0.  1.
</event>
<event>
 7    1  0.6145388E-006  0.2080367E+03  0.7561462E-02  0.1143130E+00
         -1   -1    0    0    0  501 -0.00000000000E+00  0.00000000000E+00  0.18150908404E+03  0.18150908404E+03  0.00000000000E+00 0.  1.
          1   -1    0    0  501    0  0.00000000000E+00 -0.00000000000E+00 -0.24295507112E+03  0.24295507112E+03  0.00000000000E+00 0. -1.
         23    2    1    2    0    0  0.17853147342E+03  0.35348405120E+01 -0.38031390001E+02  0.20518991472E+03  0.93651120541E+02 0.  0.
          5    1    1    2  502    0 -0.11951864836E+03 -0.59353745849E+02  0.36268789675E+01  0.13355972860E+03  0.41800000000E+01 0.  1.
         -5    1    1    2    0  502 -0.59012825052E+02  0.55818905337E+02 -0.27041476051E+02  0.85714511844E+02  0.41800000000E+01 0.  1.
        -11    1    3    3    0    0  0.23239665385E+01  0.23749209558E+02 -0.88025492104E+01  0.25434438222E+02  0.00000000000E+00 0. -1.
         11    1    3    3    0    0  0.17620750688E+03 -0.20214369046E+02 -0.29228840790E+02  0.17975547649E+03  0.00000000000E+00 0.  1.
</event>
<event>
 7    1  0.6145388E-006  0.2120208E+03  0.7561462E-02  0.1139976E+00
          2   -1    0    0  501    0  0.00000000000E+00  0.00000000000E+00  0.18302683316E+03  0.18302683316E+03  0.00000000000E+00 0. -1.
         -2   -1    0    0    0  501 -0.00000000000E+00 -0.00000000000E+00 -0.35923058726E+03  0.35923058726E+03  0.00000000000E+00 0.  1.
         23    2    1    2    0    0  0.52971387304E+02  0.18790822455E+03  0.45919017930E+02  0.22116536128E+03  0.93220663469E+02 0.  0.
          5    1    1    2  502    0  0.11897691052E+02 -0.11124407747E+03 -0.51882888280E+02  0.12339410975E+03  0.41800000000E+01 0. -1.
         -5    1    1    2    0  502 -0.64869078355E+02 -0.76664147080E+02 -0.17023988375E+03  0.19769794939E+03  0.41800000000E+01 0. -1.
        -11    1    3    3    0    0 -0.17877356648E+02  0.83517807812E+02  0.41419042375E+02  0.94922922277E+02  0.00000000000E+00 0. -1.
         11    1    3    3    0    0  0.70848743951E+02  0.10439041674E+03  0.44999755557E+01  0.12624243901E+03  0.00000000000E+00 0.  1.
</event>
<event>
 7    1  0.6145388E-006  0.1207373E+03  0.7561462E-02  0.1241886E+00
          1   -1    0    0  501    0  0.00000000000E+00  0.00000000000E+00  0.19481258774E+03  0.19481258774E+03  0.00000000000E+00 0. -1.
         -1   -1    0    0    0  501 -0.00000000000E+00 -0.00000000000E+00 -0.93946797280E+02  0.93946797280E+02  0.00000000000E+00 0.  1.
         23    2    1    2    0    0  0.67181483642E+02 -0.24755359616E+02  0.80257090059E+02  0.14316248818E+03  0.94488718599E+02 0.  0.
          5    1    1    2  502    0  0.24376042253E+02 -0.25065781727E+02 -0.10488333881E+02  0.36741834428E+02  0.41800000000E+01 0.  1.
         -5    1    1    2    0  502 -0.91557525895E+02  0.49821141343E+02  0.31097034287E+02  0.10885506242E+03  0.41800000000E+01 0.  1.
        -11    1    3    3    0    0  0.73226901934E+02  0.32435160211E+01  0.19278844517E+02  0.75791644717E+02  0.00000000000E+00 0.  1.
         11    1    3    3    0    0 -0.60454182920E+01 -0.27998875637E+02  0.60978245541E+02  0.67370843461E+02  0.00000000000E+00 0. -1.
</event>
<event>
 7    1  0.6145388E-006  0.1072165E+03  0.7561462E-02  0.1265813E+00
         -4   -1    0    0    0  501 -0.00000000000E+00  0.00000000000E+00  0.33878683249E+03  0.33878683249E+03  0.00000000000E+00 0.  1.
          4   -1    0    0  501    0  0.00000000000E+00 -0.00000000000E+00 -0.44777759209E+02  0.44777759209E+02  0.00000000000E+00 0. -1.
         23    2    1    2    0    0 -0.36408143636E+02 -0.84904093416E+01  0.58785413655E+02  0.11453921489E+03  0.90916813165E+02 0.  0.
          5    1    1    2  502    0  0.41105617877E+02  0.62354455192E+02  0.11569413431E+03  0.13776920925E+03  0.41800000000E+01 0.  1.
         -5    1    1    2    0  502 -0.46974742412E+01 -0.53864045850E+02  0.11952952532E+03  0.13125616756E+03  0.41800000000E+01 0.  1.
        -11    1    3    3    0    0 -0.21639533118E+02  0.34064751712E+02  0.56504409058E+02  0.69436481375E+02  0.00000000000E+00 0.  1.
         11    1    3    3    0    0 -0.14768610518E+02 -0.42555161053E+02  0.22810045975E+01  0.45102733519E+02  0.00000000000E+00 0. -1.
</event>
<event>
 7    1  0.6145388E-006  0.1248342E+03  0.7561462E-02  0.1235329E+00
          4   -1    0    0  501    0  0.00000000000E+00  0.00000000000E+00  0.20972242015E+02  0.20972242015E+02  0.00000000000E+00 0.  1.
         -4   -1    0    0    0  501 -0.00000000000E+00 -0.00000000000E+00 -0.10993029625E+04  0.10993029625E+04  0.00000000000E+00 0. -1.
         23    2    1    2    0    0  0.36942524456E+02 -0.65169211650E+02 -0.23143870999E+03  0.26092382650E+03  0.94369436222E+02 0.  0.
          5    1    1    2  502    0  0.42296289178E+02  0.23530314728E+02 -0.44198899153E+03  0.44465086621E+03  0.41800000000E+01 0.  1.
         -5    1    1    2    0  502 -0.79238813634E+02  0.41638896922E+02 -0.40490301895E+03  0.41470051179E+03  0.41800000000E+01 0.  1.
        -11    1    3    3    0    0  0.14502116772E+02  0.19263884195E+02 -0.10164879767E+03  0.10446954911E+03  0.00000000000E+00 0. -1.
         11    1    3    3    0    0  0.22440407684E+02 -0.84433095845E+02 -0.12978991232E+03  0.15645427738E+03  0.00000000000E+00 0.  1.
</event>
<event>
 7    1  0.6145388E-006  0.1329988E+03  0.7561462E-02  0.1223073E+00
         -2   -1    0    0    0  501 -0.00000000000E+00  0.00000000000E+00  0.17083832108E+03  0.17083832108E+03  0.00000000000E+00 0. -1.
          2   -1    0    0  501    0  0.00000000000E+00 -0.00000000000E+00 -0.13945047584E+03  0.13945047584E+03  0.00000000000E+00 0.  1.
         23    2    1    2    0    0 -0.71474487701E+01  0.99179143713E+02 -0.38103334494E+02  0.13603311982E+03  0.84649613217E+02 0.  0.
          5    1    1    2  502    0 -0.15262902714E+01  0.20586453929E+02  0.47700790297E+02  0.52143738285E+02  0.41800000000E+01 0.  1.
         -5    1    1    2    0  502  0.86737390416E+01 -0.11976559764E+03  0.21790389441E+02  0.12211193881E+03  0.41800000000E+01 0.  1.
        -11    1    3    3    0    0 -0.23464763140E+02 -0.80325477615E+00 -0.24304109689E+02  0.33792455893E+02  0.00000000000E+00 0.  1.
         11    1    3    3    0    0  0.16317314370E+02  0.99982398489E+02 -0.13799224805E+02  0.10224066393E+03  0.00000000000E+00 0. -1.
</event>
<event>
 7    1  0.6145388E-006  0.9770094E+02  0.7561462E-02  0.1285206E+00
         -2   -1    0    0    0  501 -0.00000000000E+00  0.00000000000E+00  0.19797610591E+03  0.19797610591E+03  0.00000000000E+00 0.  1.
          2   -1    0    0  501    0  0.00000000000E+00 -0.00000000000E+00 -0.76152707546E+02  0.76152707546E+02  0.00000000000E+00 0. -1.
         23    2    1    2    0    0  0.26017355034E+02 -0.14825329111E+02  0.28726824028E+01  0.98934133444E+02  0.94249760264E+02 0.  0.
          5    1    1    2  502    0 -0.41281165817E+02 -0.47242675958E+02  0.44774719021E+02  0.77189720470E+02  0.41800000000E+01 0.  1.
         -5    1    1    2    0  502  0.15263810783E+02  0.62068005068E+02  0.74175996935E+02  0.98004959538E+02  0.41800000000E+01 0.  1.
        -11    1    3    3    0    0 -0.18820779834E+02 -0.14288304321E+02 -0.33638299400E+02  0.41108546319E+02  0.00000000000E+00 0. -1.
         11    1    3    3    0    0  0.44838134868E+02 -0.53702478977E+00  0.36510981803E+02  0.57825587125E+02  0.00000000000E+00 0.  1.
</event>
<event>
 7    1  0.6145388E-006  0.1967746E+03  0.7561462E-02  0.1152489E+00
          2   -1    0    0  501    0  0.00000000000E+00  0.00000000000E+00  0.58893403745E+02  0.58893403745E+02  0.00000000000E+00 0. -1.
         -2   -1    0    0    0  501 -0.00000000000E+00 -0.00000000000E+00 -0.83711719624E+03  0.83711719624E+03  0.00000000000E+00 0.  1.
         23    2    1    2    0    0 -0.16118027526E+03  0.49874397160E+02 -0.18446730816E+03  0.26620113835E+03  0.91478531101E+02 0.  0.
          5    1    1    2  502    0  0.16826498031E+03 -0.71672871682E+02 -0.47975506684E+03  0.51345155633E+03  0.41800000000E+01 0. -1.
         -5    1    1    2    0  502 -0.70847050465E+01  0.21798474522E+02 -0.11400141750E+03  0.11635790531E+03  0.41800000000E+01 0. -1.
        -11    1    3    3    0    0  0.42309547097E+01  0.18462869617E+02 -0.40358270971E+02  0.44582155264E+02  0.00000000000E+00 0.  1.
         11    1    3    3    0    0 -0.16541122997E+03  0.31411527542E+02 -0.14410903719E+03  0.22161898308E+03  0.00000000000E+00 0. -1.
</event>
<event>
 7    1  0.6145388E-006  0.1457129E+03  0.7561462E-02  0.1205842E+00
          2   -1    0    0  501    0  0.00000000000E+00  0.00000000000E+00  0.42926390201E+02  0.42926390201E+02  0.00000000000E+00 0. -1.
         -2   -1    0    0    0  501 -0.00000000000E+00 -0.00000000000E+00 -0.54997717131E+03  0.54997717131E+03  0.00000000000E+00 0.  1.
         23    2    1    2    0    0 -0.10461654905E+03  0.28259004473E+02 -0.21795786514E+03  0.25978785115E+03  0.90779419270E+02 0.  0.
          5    1    1    2  502    0 -0.73215866849E+01  0.35441281371E+02 -0.56941443910E+02  0.67598006563E+02  0.41800000000E+01 0. -1.
         -5    1    1    2    0  502  0.11193813573E+03 -0.63700285844E+02 -0.23215147206E+03  0.26551770379E+03  0.41800000000E+01 0. -1.
        -11    1    3    3    0    0 -0.40622508876E+00 -0.13763729918E+02 -0.83192917239E+02  0.84324769545E+02  0.00000000000E+00 0.  1.
         11    1    3    3    0    0 -0.10421032396E+03  0.42022734391E+02 -0.13476494790E+03  0.17546308161E+03  0.00000000000E+00 0. -1.
</event>
<event>
 7    1  0.6145388E-006  0.9976891E+02  0.7561462E-02  0.1280783E+00
          1   -1    0    0  501    0  0.00000000000E+00  0.00000000000E+00  0.71190015335E+03  0.71190015335E+03  0.00000000000E+00 0. -1.
         -1   -1    0    0    0  501 -0.00000000000E+00 -0.00000000000E+00 -0.27720982975E+02  0.27720982975E+02  0.00000000000E+00 0.  1.
         23    2    1    2    0    0 -0.21021787163E+01  0.62422751792E+02  0.42459568672E+03  0.44478141756E+03  0.11682462554E+03 0.  0.
          5    1    1    2  502    0 -0.10106283878E+02 -0.38969610558E+02  0.72855207611E+01  0.41125645693E+02  0.41800000000E+01 0. -1.
         -5    1    1    2    0  502  0.12208462594E+02 -0.23453141234E+02  0.25229796290E+03  0.25371407307E+03  0.41800000000E+01 0. -1.
        -11    1    3    3    0    0  0.53679209905E+02  0.78376778475E+01  0.16284846095E+03  0.17164646225E+03  0.00000000000E+00 0.  1.
         11    1    3    3    0    0 -0.55781388622E+02  0.54585073945E+02  0.26174722577E+03  0.27313495531E+03  0.00000000000E+00 0. -1.
</event>
<event>
 7    1  0.6145388E-006  0.1010483E+03  0.7561462E-02  0.1278107E+00
         -1   -1    0    0    0  501 -0.00000000000E+00  0.00000000000E+00  0.30545137436E+02  0.30545137436E+02  0.00000000000E+00 0.  1.
          1   -1    0    0  501    0  0.00000000000E+00 -0.00000000000E+00 -0.45445546256E+03  0.45445546256E+03  0.00000000000E+00 0. -1.
         23    2    1    2    0    0  0.12225028298E+02  0.27272779900E+02 -0.24961625284E+03  0.26838976588E+03  0.93976257154E+02 0.  0.
          5    1    1    2  502    0  0.35783678452E+02 -0.60253631343E+02 -0.93414896257E+02  0.11685369903E+03  0.41800000000E+01 0. -1.
         -5    1    1    2    0  502 -0.48008706750E+02  0.32980851443E+02 -0.80879176033E+02  0.99757135090E+02  0.41800000000E+01 0. -1.
        -11    1    3    3    0    0 -0.11785492901E+02 -0.18427721486E+02 -0.11443938865E+02  0.24686889209E+02  0.00000000000E+00 0.  1.
         11    1    3    3    0    0  0.24010521199E+02  0.45700501386E+02 -0.23817231397E+03  0.24370287667E+03  0.00000000000E+00 0. -1.
</event>
<event>
 7    1  0.6145388E-006  0.2410236E+03  0.7561462E-02  0.1119113E+00
         -1   -1    0    0    0  501 -0.00000000000E+00  0.00000000000E+00  0.76211808599E+02  0.76211808599E+02  0.00000000000E+00 0.  1.
          1   -1    0    0  501    0  0.00000000000E+00 -0.00000000000E+00 -0.89580644480E+03  0.89580644480E+03  0.00000000000E+00 0. -1.
         23    2    1    2    0    0  0.17224355106E+03  0.15946670510E+03 -0.46239200823E+03  0.52666638388E+03  0.92052374873E+02 0.  0.
          5    1    1    2  502    0 -0.11439076524E+02  0.78225990138E+01 -0.91185721206E+02  0.92327426472E+02  0.41800000000E+01 0.  1.
         -5    1    1    2    0  502 -0.16080447454E+03 -0.16728930411E+03 -0.26601690677E+03  0.35302444305E+03  0.41800000000E+01 0.  1.
        -11    1    3    3    0    0  0.13400657706E+03  0.13426754512E+03 -0.27718884052E+03  0.33588567948E+03  0.00000000000E+00 0. -1.
         11    1    3    3    0    0  0.38236974000E+02  0.25199159981E+02 -0.18520316771E+03  0.19078070441E+03  0.00000000000E+00 0.  1.
</event>
<event>
 7    1  0.6145388E-006  0.8958554E+02  0.7561462E-02  0.1303858E+00
          2   -1    0    0  501    0  0.00000000000E+00  0.00000000000E+00  0.18914661137E+03  0.18914661137E+03  0.00000000000E+00 0. -1.
         -2   -1    0    0    0  501 -0.00000000000E+00 -0.00000000000E+00 -0.68191415619E+02  0.68191415619E+02  0.00000000000E+00 0.  1.
         23    2    1    2    0    0 -0.10005734004E+02  0.26647222125E+02  0.73542447849E+02  0.12056641082E+03  0.91200759993E+02 0.  0.
          5    1    1    2  502    0  0.22690529790E+02 -0.73584391263E+02  0.41613004323E+02  0.87627834096E+02  0.41800000000E+01 0.  1.
         -5    1    1    2    0  502 -0.12684795785E+02  0.46937169138E+02  0.57997435815E+01  0.49143782073E+02  0.41800000000E+01 0.  1.
        -11    1    3    3    0    0 -0.11630033844E+02 -0.10740570995E+02 -0.16615704151E+02  0.22949927602E+02  0.00000000000E+00 0. -1.
         11    1    3    3    0    0  0.16242998398E+01  0.37387793119E+02  0.90158152001E+02  0.97616483221E+02  0.00000000000E+00 0.  1.
</event>
<event>
 7    1  0.6145388E-006  0.1586214E+03  0.7561462E-02  0.1190262E+00
          1   -1    0    0  501    0  0.00000000000E+00  0.00000000000E+00  0.15348323585E+04  0.15348323585E+04  0.00000000000E+00 0. -1.
         -1   -1    0    0    0  501 -0.00000000000E+00 -0.00000000000E+00 -0.18653943617E+02  0.18653943617E+02  0.00000000000E+00 0.  1.
         23    2    1    2    0    0 -0.12320718012E+03 -0.37137389425E+02  0.70016035051E+03  0.71796641777E+03  0.93231248466E+02 0.  0.
          5    1    1    2  502    0  0.32485390263E+02 -0.45708182511E+02  0.23399531635E+03  0.24065705683E+03  0.41800000000E+01 0.  1.
         -5    1    1    2    0  502  0.90721789859E+02  0.82845571937E+02  0.58202274801E+03  0.59486282751E+03  0.41800000000E+01 0.  1.
        -11    1    3    3    0    0 -0.72055346219E+01 -0.19448643366E+02  0.24090052206E+02  0.31788363803E+02  0.00000000000E+00 0.  1.
         11    1    3    3    0    0 -0.11600164550E+03 -0.17688746059E+02  0.67607029831E+03  0.68617805397E+03  0.00000000000E+00 0. -1.
</event>
<event>
 7    1  0.6145388E-006  0.1158066E+03  0.7561462E-02  0.1250180E+00
          2   -1    0    0  501    0  0.00000000000E+00  0.00000000000E+00  0.36866760371E+02  0.36866760371E+02  0.00000000000E+00 0. -1.
         -2   -1    0    0    0  501 -0.00000000000E+00 -0.00000000000E+00 -0.43121773484E+03  0.43121773484E+03  0.00000000000E+00 0.  1.
         23    2    1    2    0    0  0.59859681595E+02 -0.18299207778E+02 -0.16279554511E+03  0.19756044739E+03  0.92788460386E+02 0.  0.
          5    1    1    2  502    0 -0.59739362165E+02  0.63282442367E+02 -0.10673727654E+03  0.13778162979E+03  0.41800000000E+01 0. -1.
         -5    1    1    2    0  502 -0.12031943021E+00 -0.44983234589E+02 -0.12481815282E+03  0.13274241803E+03  0.41800000000E+01 0. -1.
        -11    1    3    3    0    0  0.78404287582E+02 -0.10166672790E+02 -0.80580805949E+02  0.11288870552E+03  0.00000000000E+00 0. -1.
         11    1    3    3    0    0 -0.18544605986E+02 -0.81325349879E+01 -0.82214739159E+02  0.84671741871E+02  0.00000000000E+00 0.  1.
</event>
<event>
 7    1  0.6145388E-006  0.2279967E+03  0.7561462E-02  0.1128058E+00
         -2   -1    0    0    0  501 -0.00000000000E+00  0.00000000000E+00  0.10967093411E+03  0.10967093411E+03  0.00000000000E+00 0. -1.
          2   -1    0    0  501    0  0.00000000000E+00 -0.00000000000E+00 -0.78301685620E+03  0.78301685620E+03  0.00000000000E+00 0.  1.
         23    2    1    2    0    0 -0.14149513665E+03  0.16663421184E+03 -0.57667652875E+03  0.62290762000E+03  0.87579963370E+02 0.  0.
          5    1    1    2  502    0  0.29086834442E+02 -0.54169761058E+02 -0.91892999405E+02  0.11064448785E+03  0.41800000000E+01 0.  1.
         -5    1    1    2    0  502  0.11240830221E+03 -0.11246445078E+03 -0.47763939392E+01  0.15913568247E+03  0.41800000000E+01 0.  1.
        -11    1    3    3    0    0 -0.14788723725E+03  0.12634345493E+03 -0.46684070572E+03  0.50574059365E+03  0.00000000000E+00 0. -1.
         11    1    3    3    0    0  0.63921005972E+01  0.40290756910E+02 -0.10983582303E+03  0.11716702635E+03  0.00000000000E+00 0.  1.
</event>
<event>
 7    1  0.6145388E-006  0.1058032E+03  0.7561462E-02  0.1268545E+00
          3   -1    0    0  501    0  0.00000000000E+00  0.00000000000E+00  0.25782408909E+03  0.25782408909E+03  0.00000000000E+00 0. -1.
         -3   -1    0    0    0  501 -0.00000000000E+00 -0.00000000000E+00 -0.12167875040E+03  0.12167875040E+03  0.00000000000E+00 0.  1.
         23    2    1    2    0    0 -0.28112417177E+02  0.57109014746E+02  0.19695189868E+03  0.22654340196E+03  0.92087539948E+02 0.  0.
          5    1    1    2  502    0  0.66965219854E+02 -0.21246953607E+02  0.24344747429E+01  0.70421394299E+02  0.41800000000E+01 0.  1.
         -5    1    1    2    0  502 -0.38852802677E+02 -0.35862061139E+02 -0.63241034732E+02  0.82538043223E+02  0.41800000000E+01 0.  1.
        -11    1    3    3    0    0 -0.33155256762E+02  0.23940694063E+01  0.14987703021E+02  0.36464144870E+02  0.00000000000E+00 0.  1.
         11    1    3    3    0    0  0.50428395847E+01  0.54714945340E+02  0.18196419566E+03  0.19007925709E+03  0.00000000000E+00 0. -1.
</event>
<event>
 7    1  0.6145388E-006  0.1438166E+03  0.7561462E-02  0.1208284E+00
          2   -1    0    0  501    0  0.00000000000E+00  0.00000000000E+00  0.44204340980E+03  0.44204340980E+03  0.00000000000E+00 0. -1.
         -2   -1    0    0    0  501 -0.00000000000E+00 -0.00000000000E+00 -0.72032785101E+02  0.72032785101E+02  0.00000000000E+00 0.  1.
         23    2    1    2    0    0 -0.11476034696E+03  0.61394459204E+02  0.25637688709E+03  0.30077011649E+03  0.88285547422E+02 0.  0.
          5    1    1    2  502    0  0.27571514102E+02 -0.25026794539E+02  0.11267206153E+03  0.11873918765E+03  0.41800000000E+01 0.  1.
         -5    1    1    2    0  502  0.87188832858E+02 -0.36367664665E+02  0.96167608590E+00  0.94566890766E+02  0.41800000000E+01 0.  1.
        -11    1    3    3    0    0 -0.65007309480E+02  0.79465412735E+02  0.14757384636E+03  0.17977414229E+03  0.00000000000E+00 0.  1.
         11    1    3    3    0    0 -0.49753037480E+02 -0.18070953531E+02  0.10880304073E+03  0.12099597420E+03  0.00000000000E+00 0. -1.
</event>
<event>
 7    1  0.6145388E-006  0.8144696E+02  0.7561462E-02  0.1324995E+00
         -1   -1    0    0    0  501 -0.00000000000E+00  0.00000000000E+00  0.12398353571E+03  0.12398353571E+03  0.00000000000E+00 0.  1.
          1   -1    0    0  501    0  0.00000000000E+00 -0.00000000000E+00 -0.10170090503E+03  0.10170090503E+03  0.00000000000E+00 0. -1.
         23    2    1    2    0    0 -0.10014122572E+01  0.64233549208E+01 -0.22351415304E+02  0.92709837802E+02  0.89739990775E+02 0.  0.
          5    1    1    2  502    0  0.38350149821E+02 -0.51747835957E+02  0.34642798397E+02  0.73254135708E+02  0.41800000000E+01 0.  1.
         -5    1    1    2    0  502 -0.37348737564E+02  0.45324481036E+02  0.99912475851E+01  0.59720467238E+02  0.41800000000E+01 0.  1.
        -11    1    3    3    0    0  0.85864986622E+01  0.20621623807E+02 -0.53046123276E+02  0.57557540969E+02  0.00000000000E+00 0. -1.
         11    1    3    3    0    0 -0.95879109194E+01 -0.14198268886E+02  0.30694707972E+02  0.35152296833E+02  0.00000000000E+00 0.  1.
</event>
<event>
 7    1  0.6145388E-006  0.1374756E+03  0.7561462E-02  0.1216767E+00
          2   -1    0    0  501    0  0.00000000000E+00  0.00000000000E+00  0.42380297318E+03  0.42380297318E+03  0.00000000000E+00 0. -1.
         -2   -1    0    0    0  501 -0.00000000000E+00 -0.00000000000E+00 -0.57357517792E+02  0.57357517792E+02  0.00000000000E+00 0.  1.
         23    2    1    2    0    0  0.73665097235E+02 -0.78716218174E+02  0.21509209216E+03  0.25715559424E+03  0.90783269305E+02 0.  0.
          5    1    1    2  502    0 -0.40144097131E+02  0.11116393696E+03  0.11042326207E+03  0.16180154084E+03  0.41800000000E+01 0.  1.
         -5    1    1    2    0  502 -0.33521000104E+02 -0.32447718784E+02  0.40930101163E+02  0.62203355886E+02  0.41800000000E+01 0.  1.
        -11    1    3    3    0    0  0.11207081951E+02 -0.28222805157E+01 -0.75349862000E+01  0.13796375255E+02  0.00000000000E+00 0.  1.
         11    1    3    3    0    0  0.62458015285E+02 -0.75893937659E+02  0.22262707836E+03  0.24335921899E+03  0.00000000000E+00 0. -1.
</event>
<event>
 7    1  0.6145388E-006  0.8752027E+02  0.7561462E-02  0.1308970E+00
         -1   -1    0    0    0  501 -0.00000000000E+00  0.00000000000E+00  0.17840514689E+03  0.17840514689E+03  0.00000000000E+00 0.  1.
          1   -1    0    0  501    0  0.00000000000E+00 -0.00000000000E+00 -0.69228729697E+02  0.69228729697E+02  0.00000000000E+00 0. -1.
         23    2    1    2    0    0  0.44632887536E+02  0.14064256398E+02  0.40410799532E+02  0.10939279851E+03  0.90243302734E+02 0.  0.
          5    1    1    2  502    0 -0.40725031341E+02 -0.60356102725E+02  0.36749933146E+02  0.81666500476E+02  0.41800000000E+01 0. -1.
         -5    1    1    2    0  502 -0.39078561949E+01  0.46291846326E+02  0.32015684520E+02  0.56574577609E+02  0.41800000000E+01 0.  1.
        -11    1    3    3    0    0  0.64114882118E+01 -0.88300550006E+01 -0.26697355131E+02  0.28841390802E+02  0.00000000000E+00 0. -1.
         11    1    3    3    0    0  0.38221399324E+02  0.22894311399E+02  0.67108154663E+02  0.80551407704E+02  0.00000000000E+00 0.  1.
</event>
<event>
 7    1  0.6145388E-006  0.1459843E+03  0.7561462E-02  0.1205496E+00
          2   -1    0    0  501    0  0.00000000000E+00  0.00000000000E+00  0.94677749839E+03  0.94677749839E+03  0.00000000000E+00 0. -1.
         -2   -1    0    0    0  501 -0.00000000000E+00 -0.00000000000E+00 -0.27590515305E+02  0.27590515305E+02  0.00000000000E+00 0.  1.
         23    2    1    2    0    0  0.10251284967E+03 -0.42027817895E+02  0.56743029392E+03  0.58493828437E+03  0.88884398152E+02 0.  0.
          5    1    1    2  502    0 -0.12250184893E+03  0.43105296791E+02  0.34371829038E+03  0.36745680719E+03  0.41800000000E+01 0. -1.
         -5    1    1    2    0  502  0.19988999264E+02 -0.10774788961E+01  0.80383987749E+01  0.21972922136E+02  0.41800000000E+01 0. -1.
        -11    1    3    3    0    0  0.11412411629E+03 -0.18859284657E+02  0.44431739564E+03  0.45912736207E+03  0.00000000000E+00 0. -1.
         11    1    3    3    0    0 -0.11611266622E+02 -0.23168533238E+02  0.12311289828E+03  0.12581092230E+03  0.00000000000E+00 0.  1.
</event>
<event>
 7    1  0.6145388E-006  0.8457268E+02  0.7561462E-02  0.1316554E+00
          2   -1    0    0  501    0  0.00000000000E+00  0.00000000000E+00  0.12161418115E+03  0.12161418115E+03  0.00000000000E+00 0. -1.
         -2   -1    0    0    0  501 -0.00000000000E+00 -0.00000000000E+00 -0.99396849118E+02  0.99396849118E+02  0.00000000000E+00 0.  1.
         23    2    1    2    0    0  0.11346435060E+02  0.78790342717E+01  0.33688984300E+02  0.94638197420E+02  0.87353419957E+02 0.  0.
          5    1    1    2  502    0  0.44411413148E+02 -0.26304275243E+02 -0.35500800755E+02  0.62785888288E+02  0.41800000000E+01 0.  1.
         -5    1    1    2    0  502 -0.55757848208E+02  0.18425240971E+02  0.24029148491E+02  0.63586944563E+02  0.41800000000E+01 0.  1.
        -11    1    3    3    0    0  0.29408009355E+02 -0.11880589855E+02 -0.17970479464E+02  0.36454321578E+02  0.00000000000E+00 0.  1.
         11    1    3    3    0    0 -0.18061574295E+02  0.19759624126E+02  0.51659463764E+02  0.58183875842E+02  0.00000000000E+00 0. -1.
</event>
<event>
 7    1  0.6145388E-006  0.1574555E+03  0.7561462E-02  0.1191600E+00
         -2   -1    0    0    0  501 -0.00000000000E+00  0.00000000000E+00  0.41173881030E+02  0.41173881030E+02  0.00000000000E+00 0.  1.
          2   -1    0    0  501    0  0.00000000000E+00 -0.00000000000E+00 -0.68871309030E+03  0.68871309030E+03  0.00000000000E+00 0. -1.
         23    2    1    2    0    0  0.11887444325E+03 -0.46676632984E+02 -0.32697687679E+03  0.36284812563E+03  0.91842490139E+02 0.  0.
          5    1    1    2  502    0 -0.14273996978E+03  0.31715103126E+02 -0.23446490351E+03  0.27635450081E+03  0.41800000000E+01 0.  1.
         -5    1    1    2    0  502  0.23865526535E+02  0.14961529858E+02 -0.86097428971E+02  0.90684344889E+02  0.41800000000E+01 0.  1.
        -11    1    3    3    0    0  0.76486471984E+02 -0.58333862644E+02 -0.28955771741E+03  0.30511750464E+03  0.00000000000E+00 0. -1.
         11    1    3    3    0    0  0.42387971264E+02  0.11657229660E+02 -0.37419159382E+02  0.57730620992E+02  0.00000000000E+00 0.  1.
</event>
<event>
 6    1  0.6145388E-006  0.1724879E+03  0.7561462E-02  0.1175278E+00
          2   -1    0    0  501    0  0.00000000000E+00  0.00000000000E+00  0.14892391668E+03  0.14892391668E+03  0.00000000000E+00 0. -1.
         -2   -1    0    0    0  501 -0.00000000000E+00 -0.00000000000E+00 -0.47516910235E+03  0.47516910235E+03  0.00000000000E+00 0.  1.
          5    1    1    2  502    0 -0.86886066578E+02  0.38438784400E+01 -0.50032047031E+02  0.10042231872E+03  0.41800000000E+01 0. -1.
         -5    1    1    2    0  502  0.53109933765E+02 -0.67678406562E+02 -0.13676505565E+03  0.16162668290E+03  0.41800000000E+01 0.  1.
        -11    1    1    2    0    0  0.53146111558E+02 -0.39766798499E+02 -0.21974092004E+03  0.22954733581E+03  0.00000000000E+00 0.  1.
         11    1    1    2    0    0 -0.19369978745E+02  0.10360132662E+03  0.80292837048E+02  0.13249668160E+03  0.00000000000E+00 0. -1.
</event>
<event>
 7    1  0.6145388E-006  0.1185459E+03  0.7561462E-02  0.1245515E+00
         -2   -1    0    0    0  501 -0.00000000000E+00  0.00000000000E+00  0.11587478674E+03  0.11587478674E+03  0.00000000000E+00 0. -1.
          2   -1    0    0  501    0  0.00000000000E+00 -0.00000000000E+00 -0.18662790963E+03  0.18662790963E+03  0.00000000000E+00 0.  1.
         23    2    1    2    0    0  0.54428645432E+02 -0.78605745822E+02 -0.61757723746E+02  0.14480093009E+03  0.89509508946E+02 0.  0.
          5    1    1    2  502    0 -0.55416236914E+02  0.39439150059E+02  0.51561805966E+02  0.85454655260E+02  0.41800000000E+01 0. -1.
         -5    1    1    2    0  502  0.98759148226E+00  0.39166595763E+02 -0.60557205112E+02  0.72247111026E+02  0.41800000000E+01 0. -1.
        -11    1    3    3    0    0  0.37646858713E+02  0.10330652243E+02 -0.90783935705E+01  0.40080239227E+02  0.00000000000E+00 0. -1.
         11    1    3    3    0    0  0.16781786719E+02 -0.88936398065E+02 -0.52679330175E+02  0.10472069086E+03  0.00000000000E+00 0.  1.
</event>
<event>
 7    1  0.6145388E-006  0.1129772E+03  0.7561462E-02  0.1255154E+00
          3   -1    0    0  501    0  0.00000000000E+00  0.00000000000E+00  0.90692562492E+02  0.90692562492E+02  0.00000000000E+00 0. -1.
         -3   -1    0    0    0  501 -0.00000000000E+00 -0.00000000000E+00 -0.20321234358E+03  0.20321234358E+03  0.00000000000E+00 0.  1.
         23    2    1    2    0    0  0.79174760468E+02  0.12600091157E+01 -0.35838010600E+02  0.12717812733E+03  0.92842246571E+02 0.  0.
          5    1    1    2  502    0 -0.14024827927E+02 -0.30081191528E+02 -0.88300175515E+02  0.94424399803E+02  0.41800000000E+01 0.  1.
         -5    1    1    2    0  502 -0.65149932541E+02  0.28821182413E+02  0.11618405026E+02  0.72302378945E+02  0.41800000000E+01 0.  1.
        -11    1    3    3    0    0  0.99050414235E+02  0.97447503155E+01 -0.35160269752E+02  0.10555656914E+03  0.00000000000E+00 0.  1.
         11    1    3    3    0    0 -0.19875653767E+02 -0.84847411998E+01 -0.67774084788E+00  0.21621558190E+02  0.00000000000E+00 0. -1.
</event>
<event>
 7    1  0.6145388E-006  0.1034101E+03  0.7561462E-02  0.1273284E+00
         -2   -1    0    0    0  501 -0.00000000000E+00  0.00000000000E+00  0.38510979673E+02  0.38510979673E+02  0.00000000000E+00 0.  1.
          2   -1    0    0  501    0  0.00000000000E+00 -0.00000000000E+00 -0.53285717416E+03  0.53285717416E+03  0.00000000000E+00 0. -1.
         23    2    1    2    0    0  0.74968301486E+02  0.10702223237E+02 -0.33216145023E+03  0.35299769686E+03  0.92419484740E+02 0.  0.
          5    1    1    2  502    0 -0.14701126533E+02  0.20782088467E+02 -0.14611771845E+03  0.14837748605E+03  0.41800000000E+01 0.  1.
         -5    1    1    2    0  502 -0.60267174953E+02 -0.31484311704E+02 -0.16067025810E+02  0.69992970923E+02  0.41800000000E+01 0.  1.
        -11    1    3    3    0    0  0.96400934749E+01  0.40113564555E+02 -0.18204800479E+03  0.18666415165E+03  0.00000000000E+00 0. -1.
         11    1    3    3    0    0  0.65328208011E+02 -0.29411341317E+02 -0.15011344544E+03  0.16633354521E+03  0.00000000000E+00 0.  1.
</event>
<event>
 7    1  0.6145388E-006  0.1198409E+03  0.7561462E-02  0.1243360E+00
          4   -1    0    0  501    0  0.00000000000E+00  0.00000000000E+00  0.69116235294E+02  0.69116235294E+02  0.00000000000E+00 0. -1.
         -4   -1    0    0    0  501 -0.00000000000E+00 -0.00000000000E+00 -0.37322403650E+03  0.37322403650E+03  0.00000000000E+00 0.  1.
         23    2    1    2    0    0  0.88938546303E+02 -0.38644464456E+01 -0.37995348312E+02  0.13511336947E+03  0.94270765088E+02 0.  0.
          5    1    1    2  502    0 -0.11641597986E+03  0.11555122329E+02 -0.16656657795E+03  0.20358806082E+03  0.41800000000E+01 0.  1.
         -5    1    1    2    0  502  0.27477433558E+02 -0.76906758834E+01 -0.99545874940E+02  0.10363884150E+03  0.41800000000E+01 0.  1.
        -11    1    3    3    0    0  0.14969098619E+02 -0.12243755451E+02  0.29070949317E+02  0.34915663465E+02  0.00000000000E+00 0. -1.
         11    1    3    3    0    0  0.73969447684E+02  0.83793090057E+01 -0.67066297629E+02  0.10019770600E+03  0.00000000000E+00 0.  1.
</event>
<event>
 7    1  0.6145388E-006  0.1489716E+03  0.7561462E-02  0.1201742E+00
          2   -1    0    0  501    0  0.00000000000E+00  0.00000000000E+00  0.62361569472E+03  0.62361569472E+03  0.00000000000E+00 0. -1.
         -2   -1    0    0    0  501 -0.00000000000E+00 -0.00000000000E+00 -0.38309870026E+02  0.38309870026E+02  0.00000000000E+00 0.  1.
         23    2    1    2    0    0  0.44431576606E+02  0.99072262220E+02  0.24033400785E+03  0.27924938013E+03  0.91816680600E+02 0.  0.
          5    1    1    2  502    0  0.42435984129E+02 -0.47986932161E+02  0.11884383403E+03  0.13507363804E+03  0.41800000000E+01 0.  1.
         -5    1    1    2    0  502 -0.86867560734E+02 -0.51085330059E+02  0.22612798282E+03  0.24760254657E+03  0.41800000000E+01 0.  1.
        -11    1    3    3    0    0  0.29852002878E+02 -0.27930938889E+01  0.10523874458E+03  0.10942639906E+03  0.00000000000E+00 0. -1.
         11    1    3    3    0    0  0.14579573728E+02  0.10186535611E+03  0.13509526326E+03  0.16982298108E+03  0.00000000000E+00 0.  1.
</event>
<event>
 7    1  0.6145388E-006  0.1203884E+03  0.7561462E-02  0.1242458E+00
          1   -1    0    0  501    0  0.00000000000E+00  0.00000000000E+00  0.57874183586E+03  0.57874183586E+03  0.00000000000E+00 0. -1.
         -1   -1    0    0    0  501 -0.00000000000E+00 -0.00000000000E+00 -0.35313705708E+02  0.35313705708E+02  0.00000000000E+00 0.  1.
         23    2    1    2    0    0 -0.26104116626E+02 -0.14550016152E+02  0.38035521824E+03  0.39108119852E+03  0.85914398787E+02 0.  0.
          5    1    1    2  502    0 -0.33877710021E+02  0.64837075907E+02  0.86986059774E+02  0.11373474686E+03  0.41800000000E+01 0. -1.
         -5    1    1    2    0  502  0.59981826647E+02 -0.50287059755E+02  0.76086852139E+02  0.10923959619E+03  0.41800000000E+01 0.  1.
        -11    1    3    3    0    0 -0.56917987981E+02 -0.66242890772E+01  0.27999097776E+03  0.28579448243E+03  0.00000000000E+00 0. -1.
         11    1    3    3    0    0  0.30813871355E+02 -0.79257270748E+01  0.10036424048E+03  0.10528671609E+03  0.00000000000E+00 0.  1.
</event>
<event>
 7    1  0.6145388E-006  0.1006475E+03  0.7561462E-02  0.1278940E+00
          2   -1    0    0  501    0  0.00000000000E+00  0.00000000000E+00  0.35151544375E+03  0.35151544375E+03  0.00000000000E+00 0. -1.
         -2   -1    0    0    0  501 -0.00000000000E+00 -0.00000000000E+00 -0.55917887978E+02  0.55917887978E+02  0.00000000000E+00 0.  1.
         23    2    1    2    0    0  0.41030723734E+02 -0.53209920589E+02  0.21686632019E+03  0.24507668555E+03  0.92286320928E+02 0.  0.
          5    1    1    2  502    0  0.19429397482E+02  0.65768458239E+02  0.92803816019E+01  0.69329571384E+02  0.41800000000E+01 0. -1.
         -5    1    1    2    0  502 -0.60460121217E+02 -0.12558537650E+02  0.69450853985E+02  0.93027074794E+02  0.41800000000E+01 0. -1.
        -11    1    3    3    0    0  0.25883890427E+02 -0.15769800082E+02  0.66690909740E+01  0.31034483284E+02  0.00000000000E+00 0.  1.
         11    1    3    3    0    0  0.15146833307E+02 -0.37440120507E+02  0.21019722922E+03  0.21404220227E+03  0.00000000000E+00 0. -1.
</event>
<event>
 7    1  0.6145388E-006  0.1251417E+03  0.7561462E-02  0.1234848E+00
          3   -1    0    0  501    0  0.00000000000E+00  0.00000000000E+00  0.50821761371E+03  0.50821761371E+03  0.00000000000E+00 0. -1.
         -3   -1    0    0    0  501 -0.00000000000E+00 -0.00000000000E+00 -0.47846873306E+02  0.47846873306E+02  0.00000000000E+00 0.  1.
         23    2    1    2    0    0  0.94487598501E+02 -0.95716396739E+01  0.31500826379E+03  0.34206126579E+03  0.93574466295E+02 0.  0.
          5    1    1    2  502    0 -0.12134942721E+03  0.24831827465E+02  0.12863137494E+03  0.17862196438E+03  0.41800000000E+01 0. -1.
         -5    1    1    2    0  502  0.26861828708E+02 -0.15260187791E+02  0.16731101672E+02  0.35381256847E+02  0.41800000000E+01 0. -1.
        -11    1    3    3    0    0  0.15475531666E+02  0.72992639757E+00 -0.16048130190E+01  0.15575631535E+02  0.00000000000E+00 0.  1.
         11    1    3    3    0    0  0.79012066835E+02 -0.10301566071E+02  0.31661307681E+03  0.32648563426E+03  0.00000000000E+00 0. -1.
</event>
<event>
 7    1  0.6145388E-006  0.1059675E+03  0.7561462E-02  0.1268225E+00
         -2   -1    0    0    0  501 -0.00000000000E+00  0.00000000000E+00  0.46622059070E+03  0.46622059070E+03  0.00000000000E+00 0.  1.
          2   -1    0    0  501    0  0.00000000000E+00 -0.00000000000E+00 -0.50323417945E+02  0.50323417945E+02  0.00000000000E+00 0. -1.
         23    2    1    2    0    0 -0.22422117603E+02  0.67585483044E+02  0.55733314479E+02  0.12868184078E+03  0.91554710029E+02 0.  0.
          5    1    1    2  502    0  0.42089599119E+02 -0.68002058165E+02  0.10573278246E+03  0.13263750584E+03  0.41800000000E+01 0.  1.
         -5    1    1    2    0  502 -0.19667481516E+02  0.41657512169E+00  0.25443107581E+03  0.25522466202E+03  0.41800000000E+01 0.  1.
        -11    1    3    3    0    0  0.19244429713E+02 -0.11451353666E+02  0.26453524168E+02  0.34659349628E+02  0.00000000000E+00 0.  1.
         11    1    3    3    0    0 -0.41666547316E+02  0.79036836710E+02  0.29279790311E+02  0.94022491155E+02  0.00000000000E+00 0. -1.
</event>
<event>
 7    1  0.6145388E-006  0.1158495E+03  0.7561462E-02  0.1250105E+00
          1   -1    0    0  501    0  0.00000000000E+00  0.00000000000E+00  0.52211911230E+03  0.52211911230E+03  0.00000000000E+00 0. -1.
         -1   -1    0    0    0  501 -0.00000000000E+00 -0.00000000000E+00 -0.33016210208E+02  0.33016210208E+02  0.00000000000E+00 0.  1.
         23    2    1    2    0    0  0.74322897644E+02 -0.20626239402E+01  0.22101585981E+03  0.25010160229E+03  0.90413791254E+02 0.  0.
          5    1    1    2  502    0 -0.55489643592E+02 -0.49784890955E+02  0.82015714009E+02  0.11091296434E+03  0.41800000000E+01 0. -1.
         -5    1    1    2    0  502 -0.18833254053E+02  0.51847514895E+02  0.18607132828E+03  0.19412075589E+03  0.41800000000E+01 0. -1.
        -11    1    3    3    0    0  0.58218023382E+02 -0.32937324228E+02  0.19634301841E+03  0.20742417036E+03  0.00000000000E+00 0. -1.
         11    1    3    3    0    0  0.16104874262E+02  0.30874700288E+02  0.24672841399E+02  0.42677431924E+02  0.00000000000E+00 0.  1.
</event>
<event>
 7    1  0.6145388E-006  0.1855328E+03  0.7561462E-02  0.1162553E+00
          2   -1    0    0  501    0  0.00000000000E+00  0.00000000000E+00  0.91396344774E+02  0.91396344774E+02  0.00000000000E+00 0. -1.
         -2   -1    0    0    0  501 -0.00000000000E+00 -0.00000000000E+00 -0.52980967870E+03  0.52980967870E+03  0.00000000000E+00 0.  1.
         23    2    1    2    0    0  0.10689534628E+03 -0.12333929440E+03 -0.51535652379E+02  0.18307161591E+03  0.64962269731E+02 0.  0.
          5    1    1    2  502    0 -0.93148945608E+02  0.12749313618E+02 -0.17498044617E+03  0.19868291322E+03  0.41800000000E+01 0.  1.
         -5    1    1    2    0  502 -0.13746400670E+02  0.11058998078E+03 -0.21189723538E+03  0.23945149434E+03  0.41800000000E+01 0.  1.
        -11    1    3    3    0    0  0.70426827394E+02 -0.99367623132E+02 -0.89942015330E+01  0.12212599316E+03  0.00000000000E+00 0. -1.
         11    1    3    3    0    0  0.36468518884E+02 -0.23971671264E+02 -0.42541450846E+02  0.60945622754E+02  0.00000000000E+00 0.  1.
</event>
<event>
 7    1  0.6145388E-006  0.1418074E+03  0.7561462E-02  0.1210917E+00
         -2   -1    0    0    0  501 -0.00000000000E+00  0.00000000000E+00  0.18832395888E+02  0.18832395888E+02  0.00000000000E+00 0.  1.
          2   -1    0    0  501    0  0.00000000000E+00 -0.00000000000E+00 -0.11280473043E+04  0.11280473043E+04  0.00000000000E+00 0. -1.
         23    2    1    2    0    0 -0.29056575936E+02  0.91426278897E+02 -0.58046169070E+03  0.59512776192E+03  0.89656174108E+02 0.  0.
          5    1    1    2  502    0  0.38700831456E+02 -0.12046797093E+03 -0.43441397026E+03  0.45248564212E+03  0.41800000000E+01 0. -1.
         -5    1    1    2    0  502 -0.96442555206E+01  0.29041692029E+02 -0.94339247473E+02  0.99266296165E+02  0.41800000000E+01 0. -1.
        -11    1    3    3    0    0  0.24142087268E+02  0.50196263202E+01 -0.60043897232E+02  0.64909988606E+02  0.00000000000E+00 0.  1.
         11    1    3    3    0    0 -0.53198663204E+02  0.86406652576E+02 -0.52041779347E+03  0.53021777331E+03  0.00000000000E+00 0. -1.
</event>
<event>
 7    1  0.6145388E-006  0.1067006E+03  0.7561462E-02  0.1266805E+00
         -2   -1    0    0    0  501 -0.00000000000E+00  0.00000000000E+00  0.51742166642E+02  0.51742166642E+02  0.00000000000E+00 0.  1.
          2   -1    0    0  501    0  0.00000000000E+00 -0.00000000000E+00 -0.24085149599E+03  0.24085149599E+03  0.00000000000E+00 0. -1.
         23    2    1    2    0    0  0.25527811247E+02 -0.11596946856E+02 -0.85438176082E+02  0.12772397612E+03  0.90705974554E+02 0.  0.
          5    1    1    2  502    0  0.46711411688E+00 -0.55738241194E+02 -0.45247227957E+02  0.71914906416E+02  0.41800000000E+01 0. -1.
         -5    1    1    2    0  502 -0.25994925364E+02  0.67335188050E+02 -0.58423925307E+02  0.92954780096E+02  0.41800000000E+01 0. -1.
        -11    1    3    3    0    0 -0.10360049642E+02 -0.38808227352E+02 -0.12619467591E+02  0.42102970217E+02  0.00000000000E+00 0.  1.
         11    1    3    3    0    0  0.35887860888E+02  0.27211280496E+02 -0.72818708491E+02  0.85621005902E+02  0.00000000000E+00 0. -1.
</event>
<event>
 7    1  0.6145388E-006  0.1117470E+03  0.7561462E-02  0.1257368E+00
          2   -1    0    0  501    0  0.00000000000E+00  0.00000000000E+00  0.70150324533E+03  0.70150324533E+03  0.00000000000E+00 0. -1.
         -2   -1    0    0    0  501 -0.00000000000E+00 -0.00000000000E+00 -0.26262231132E+02  0.26262231132E+02  0.00000000000E+00 0.  1.
         23    2    1    2    0    0  0.46179951692E+02 -0.49411120543E+02  0.42934816019E+03  0.44371464745E+03  0.89268129401E+02 0.  0.
          5    1    1    2  502    0 -0.73008939227E+02  0.34007356337E+02  0.74352611401E+02  0.10969315710E+03  0.41800000000E+01 0.  1.
         -5    1    1    2    0  502  0.26828987535E+02  0.15403764207E+02  0.17154024260E+03  0.17435767192E+03  0.41800000000E+01 0.  1.
        -11    1    3    3    0    0  0.26551942622E+02 -0.74894078848E+02  0.28875484947E+03  0.29948871731E+03  0.00000000000E+00 0.  1.
         11    1    3    3    0    0  0.19628009070E+02  0.25482958305E+02  0.14059331073E+03  0.14422593014E+03  0.00000000000E+00 0. -1.
</event>
<event>
 7    1  0.6145388E-006  0.9728704E+02  0.7561462E-02  0.1286107E+00
          1   -1    0    0  501    0  0.00000000000E+00  0.00000000000E+00  0.17477204201E+03  0.17477204201E+03  0.00000000000E+00 0. -1.
         -1   -1    0    0    0  501 -0.00000000000E+00 -0.00000000000E+00 -0.81361301467E+02  0.81361301467E+02  0.00000000000E+00 0.  1.
         23    2    1    2    0    0  0.26760504703E+02 -0.40187383856E+02  0.25007662514E+02  0.10560973051E+03  0.90536631046E+02 0.  0.
          5    1    1    2  502    0  0.18338527097E+02  0.74612528216E+02  0.43819183421E+02  0.88548993097E+02  0.41800000000E+01 0. -1.
         -5    1    1    2    0  502 -0.45099031800E+02 -0.34425144360E+02  0.24583894604E+02  0.61974619865E+02  0.41800000000E+01 0. -1.
        -11    1    3    3    0    0  0.32216028136E+01 -0.36817652350E+02  0.55661579537E+02  0.66814142858E+02  0.00000000000E+00 0. -1.
         11    1    3    3    0    0  0.23538901889E+02 -0.33697315067E+01 -0.30653917023E+02  0.38795587654E+02  0.00000000000E+00 0.  1.
</event>
<event>
 7    1  0.6145388E-006  0.9164669E+02  0.7561462E-02  0.1298912E+00
          4   -1    0    0  501    0  0.00000000000E+00  0.00000000000E+00  0.14825171256E+02  0.14825171256E+02  0.00000000000E+00 0. -1.
         -4   -1    0    0    0  501 -0.00000000000E+00 -0.00000000000E+00 -0.11990425557E+04  0.11990425557E+04  0.00000000000E+00 0.  1.
         23    2    1    2    0    0 -0.45792828102E+02  0.20015854577E+02 -0.25836351209E+03  0.27826590280E+03  0.90457673773E+02 0.  0.
          5    1    1    2  502    0 -0.35991308807E+02  0.47311177684E+00 -0.50890476217E+03  0.51019322566E+03  0.41800000000E+01 0.  1.
         -5    1    1    2    0  502  0.81784136909E+02 -0.20488966354E+02 -0.41694911020E+03  0.42540859851E+03  0.41800000000E+01 0.  1.
        -11    1    3    3    0    0 -0.43377083184E+02  0.29758921325E+02 -0.26227079662E+03  0.26749417845E+03  0.00000000000E+00 0.  1.
         11    1    3    3    0    0 -0.24157449182E+01 -0.97430667481E+01  0.39072845321E+01  0.10771724355E+02  0.00000000000E+00 0. -1.
</event>
<event>
 7    1  0.6145388E-006  0.1588009E+03  0.7561462E-02  0.1190057E+00
          1   -1    0    0  501    0  0.00000000000E+00  0.00000000000E+00  0.85249509931E+02  0.85249509931E+02  0.00000000000E+00 0. -1.
         -1   -1    0    0    0  501 -0.00000000000E+00 -0.00000000000E+00 -0.52606391412E+03  0.52606391412E+03  0.00000000000E+00 0.  1.
         23    2    1    2    0    0  0.18379541609E+02  0.13178891120E+03 -0.34068253092E+02  0.16544796229E+03  0.92229375431E+02 0.  0.
          5    1    1    2  502    0  0.38201415253E+02 -0.93651183419E+02 -0.31873194928E+03  0.33442102233E+03  0.41800000000E+01 0.  1.
         -5    1    1    2    0  502 -0.56580956862E+02 -0.38137727779E+02 -0.88014201822E+02  0.11144443944E+03  0.41800000000E+01 0.  1.
        -11    1    3    3    0    0  0.39233508989E+02  0.49729258722E+02 -0.48216601079E+02  0.79605954678E+02  0.00000000000E+00 0.  1.
         11    1    3    3    0    0 -0.20853967380E+02  0.82059652476E+02  0.14148347987E+02  0.85842007611E+02  0.00000000000E+00 0. -1.
</event>
<event>
 7    1  0.6145388E-006  0.2208209E+03  0.7561462E-02  0.1133272E+00
          1   -1    0    0  501    0  0.00000000000E+00  0.00000000000E+00  0.41297525621E+02  0.41297525621E+02  0.00000000000E+00 0. -1.
         -1   -1    0    0    0  501 -0.00000000000E+00 -0.00000000000E+00 -0.21173270240E+04  0.21173270240E+04  0.00000000000E+00 0.  1.
         23    2    1    2    0    0 -0.98905856265E+02  0.17693944467E+03 -0.33527934172E+03  0.40165359235E+03  0.88450188159E+02 0.  0.
          5    1    1    2  502    0 -0.15416283149E+02  0.79351326749E+01 -0.22541273828E+03  0.22611723308E+03  0.41800000000E+01 0. -1.
         -5    1    1    2    0  502  0.11432213941E+03 -0.18487457735E+03 -0.15153374184E+04  0.15308537242E+04  0.41800000000E+01 0. -1.
        -11    1    3    3    0    0 -0.11132714059E+02  0.55238066941E+02 -0.36005629370E+02  0.66869923793E+02  0.00000000000E+00 0. -1.
         11    1    3    3    0    0 -0.87773142206E+02  0.12170137773E+03 -0.29927371235E+03  0.33478366856E+03  0.00000000000E+00 0.  1.
</event>
<event>
 7    1  0.6145388E-006  0.1910622E+03  0.7561462E-02  0.1157507E+00
         -1   -1    0    0    0  501 -0.00000000000E+00  0.00000000000E+00  0.34951485643E+03  0.34951485643E+03  0.00000000000E+00 0.  1.
          1   -1    0    0  501    0  0.00000000000E+00 -0.00000000000E+00 -0.41328285860E+03  0.41328285860E+03  0.00000000000E+00 0. -1.
         23    2    1    2    0    0  0.21243560717E+02  0.17831249389E+03 -0.34986184803E+03  0.40259644899E+03  0.86220378616E+02 0.  0.
          5    1    1    2  502    0  0.24708899155E+02 -0.10001604721E+03  0.23337155138E+03  0.25513426425E+03  0.41800000000E+01 0.  1.
         -5    1    1    2    0  502 -0.45952459871E+02 -0.78296446682E+02  0.52722294475E+02  0.10506700179E+03  0.41800000000E+01 0.  1.
        -11    1    3    3    0    0  0.39620838318E+02  0.14218702227E+03 -0.20795053117E+03  0.25501055575E+03  0.00000000000E+00 0.  1.
         11    1    3    3    0    0 -0.18377277601E+02  0.36125471616E+02 -0.14191131685E+03  0.14758589324E+03  0.00000000000E+00 0. -1.
</event>
<event>
 7    1  0.6145388E-006  0.1000499E+03  0.7561462E-02  0.1280191E+00
         -2   -1    0    0    0  501 -0.00000000000E+00  0.00000000000E+00  0.26465184126E+02  0.26465184126E+02  0.00000000000E+00 0.  1.
          2   -1    0    0  501    0  0.00000000000E+00 -0.00000000000E+00 -0.49306084487E+03  0.49306084487E+03  0.00000000000E+00 0. -1.
         23    2    1    2    0    0  0.32979198267E+02 -0.14023953380E+02 -0.22989398752E+03  0.24941437056E+03  0.89844220495E+02 0.  0.
          5    1    1    2  502    0 -0.19383338558E+02  0.55821159167E+02 -0.47798717163E+02  0.76117707446E+02  0.41800000000E+01 0.  1.
         -5    1    1    2    0  502 -0.13595859708E+02 -0.41797205787E+02 -0.18890295606E+03  0.19399395099E+03  0.41800000000E+01 0.  1.
        -11    1    3    3    0    0  0.37755682607E+02  0.32575607952E+02 -0.12092432776E+03  0.13080273257E+03  0.00000000000E+00 0.  1.
         11    1    3    3    0    0 -0.47764843406E+01 -0.46599561332E+02 -0.10896965976E+03  0.11861163799E+03  0.00000000000E+00 0. -1.
</event>
<event>
 7    1  0.6145388E-006  0.1101472E+03  0.7561462E-02  0.1260298E+00
         -2   -1    0    0    0  501 -0.00000000000E+00  0.00000000000E+00  0.27870293569E+02  0.27870293569E+02  0.00000000000E+00 0.  1.
          2   -1    0    0  501    0  0.00000000000E+00 -0.00000000000E+00 -0.62676057967E+03  0.62676057967E+03  0.00000000000E+00 0. -1.
         23    2    1    2    0    0  0.14348758563E+02  0.63980886147E+02 -0.35946648788E+03  0.37665470949E+03  0.91395697977E+02 0.  0.
          5    1    1    2  502    0 -0.38487114987E+02  0.24948250628E+01 -0.13294318468E+02  0.41008456148E+02  0.41800000000E+01 0. -1.
         -5    1    1    2    0  502  0.24138356424E+02 -0.66475711210E+02 -0.22612947975E+03  0.23696770760E+03  0.41800000000E+01 0. -1.
        -11    1    3    3    0    0  0.49247440611E+02  0.16934948522E+02 -0.20328664167E+03  0.20985128442E+03  0.00000000000E+00 0. -1.
         11    1    3    3    0    0 -0.34898682048E+02  0.47045937625E+02 -0.15617984621E+03  0.16680342508E+03  0.00000000000E+00 0.  1.
</event>
<event>
 7    1  0.6145388E-006  0.1742920E+03  0.7561462E-02  0.1173444E+00
          1   -1    0    0  501    0  0.00000000000E+00  0.00000000000E+00  0.42344920069E+03  0.42344920069E+03  0.00000000000E+00 0. -1.
         -1   -1    0    0    0  501 -0.00000000000E+00 -0.00000000000E+00 -0.83606913772E+02  0.83606913772E+02  0.00000000000E+00 0.  1.
         23    2    1    2    0    0 -0.19050514604E+02 -0.13975440795E+03  0.24257925804E+03  0.29492177066E+03  0.90774102769E+02 0.  0.
          5    1    1    2  502    0  0.52203683261E+02  0.14331524368E+03  0.66037738526E+02  0.16626165802E+03  0.41800000000E+01 0. -1.
         -5    1    1    2    0  502 -0.33153168657E+02 -0.35608357356E+01  0.31225290358E+02  0.45872685784E+02  0.41800000000E+01 0. -1.
        -11    1    3    3    0    0 -0.36522046487E+02 -0.20529418469E+02  0.33659313184E+02  0.53742592665E+02  0.00000000000E+00 0.  1.
         11    1    3    3    0    0  0.17471531883E+02 -0.11922498948E+03  0.20891994485E+03  0.24117917800E+03  0.00000000000E+00 0. -1.
</event>
<event>
 7    1  0.6145388E-006  0.1430027E+03  0.7561462E-02  0.1209345E+00
          1   -1    0    0  501    0  0.00000000000E+00  0.00000000000E+00  0.37857593529E+03  0.37857593529E+03  0.00000000000E+00 0. -1.
         -1   -1    0    0    0  501 -0.00000000000E+00 -0.00000000000E+00 -0.59455944103E+02  0.59455944103E+02  0.00000000000E+00 0.  1.
         23    2    1    2    0    0  0.82229403252E+02 -0.62641762937E+02  0.15528822804E+03  0.20743674671E+03  0.90718823267E+02 0.  0.
          5    1    1    2  502    0  0.15332787932E+02  0.47612386722E+02  0.10296942707E+03  0.11455221109E+03  0.41800000000E+01 0. -1.
         -5    1    1    2    0  502 -0.97562191184E+02  0.15029376214E+02  0.60862336074E+02  0.11604292159E+03  0.41800000000E+01 0. -1.
        -11    1    3    3    0    0  0.80098738432E+02 -0.59954539203E+01  0.82020383069E+02  0.11480024654E+03  0.00000000000E+00 0.  1.
         11    1    3    3    0    0  0.21306648202E+01 -0.56646309016E+02  0.73267844971E+02  0.92636500174E+02  0.00000000000E+00 0. -1.
</event>
<event>
 7    1  0.6145388E-006  0.2066671E+03  0.7561462E-02  0.1144233E+00
          2   -1    0    0  501    0  0.00000000000E+00  0.00000000000E+00  0.16034066172E+03  0.16034066172E+03  0.00000000000E+00 0. -1.
         -2   -1    0    0    0  501 -0.00000000000E+00 -0.00000000000E+00 -0.32333999294E+03  0.32333999294E+03  0.00000000000E+00 0.  1.
         23    2    1    2    0    0  0.14650422228E+03 -0.13050248730E+03 -0.39274381149E+02  0.22014878862E+03  0.91807547498E+02 0.  0.
          5    1    1    2  502    0 -0.20128418808E+02  0.40020555671E+02 -0.95416105285E+02  0.10549172322E+03  0.41800000000E+01 0.  1.
         -5    1    1    2    0  502 -0.12637580347E+03  0.90481931632E+02 -0.28308844787E+02  0.15804014283E+03  0.41800000000E+01 0.  1.
        -11    1    3    3    0    0  0.15712645335E+03 -0.12561197146E+03 -0.46411579221E+02  0.20644884210E+03  0.00000000000E+00 0.  1.
         11    1    3    3    0    0 -0.10622231079E+02 -0.48905158471E+01  0.71371980723E+01  0.13699946520E+02  0.00000000000E+00 0. -1.
</event>
<event>
 7    1  0.6145388E-006  0.1423278E+03  0.7561462E-02  0.1210231E+00
          1   -1    0    0  501    0  0.00000000000E+00  0.00000000000E+00  0.37050085394E+03  0.37050085394E+03  0.00000000000E+00 0. -1.
         -1   -1    0    0    0  501 -0.00000000000E+00 -0.00000000000E+00 -0.98499948304E+02  0.98499948304E+02  0.00000000000E+00 0.  1.
         23    2    1    2    0    0  0.25970748868E+02 -0.13036479992E+03  0.22992145786E+03  0.28168366345E+03  0.93874110466E+02 0.  0.
          5    1    1    2  502    0 -0.43801021715E+01  0.10620046867E+03  0.83021309978E+02  0.13493604096E+03  0.41800000000E+01 0. -1.
         -5    1    1    2    0  502 -0.21590646696E+02  0.24164331249E+02 -0.40941862203E+02  0.52381097833E+02  0.41800000000E+01 0. -1.
        -11    1    3    3    0    0 -0.19051288391E+01 -0.11246528072E+03  0.22002453369E+03  0.24710901301E+03  0.00000000000E+00 0.  1.
         11    1    3    3    0    0  0.27875877707E+02 -0.17899519196E+02  0.98969241736E+01  0.34574650446E+02  0.00000000000E+00 0. -1.
</event>
<event>
 7    1  0.6145388E-006  0.5499560E+03  0.7561462E-02  0.1001504E+00
          1   -1    0    0  501    0  0.00000000000E+00  0.00000000000E+00  0.24265654123E+04  0.24265654123E+04  0.00000000000E+00 0. -1.
         -1   -1    0    0    0  501 -0.00000000000E+00 -0.00000000000E+00 -0.14460565066E+03  0.14460565066E+03  0.00000000000E+00 0.  1.
         23    2    1    2    0    0 -0.54682524894E+03 -0.35961153801E+02  0.15646640519E+04  0.16598685020E+04  0.81723872375E+02 0.  0.
          5    1    1    2  502    0  0.25686569079E+03  0.39091631983E+02  0.24539970479E+03  0.35741660049E+03  0.41800000000E+01 0.  1.
         -5    1    1    2    0  502  0.28995955815E+03 -0.31304781823E+01  0.47189600494E+03  0.55388596040E+03  0.41800000000E+01 0.  1.
        -11    1    3    3    0    0 -0.50511780651E+03 -0.20390331305E+02  0.13732053437E+04  0.14633019784E+04  0.00000000000E+00 0.  1.
         11    1    3    3    0    0 -0.41707442428E+02 -0.15570822496E+02  0.19145870819E+03  0.19656652362E+03  0.00000000000E+00 0. -1.
</event>
<event>
 7    1  0.6145388E-006  0.1366456E+03  0.7561462E-02  0.1217915E+00
          1   -1    0    0  501    0  0.00000000000E+00  0.00000000000E+00  0.43089059661E+02  0.43089059661E+02  0.00000000000E+00 0. -1.
         -1   -1    0    0    0  501 -0.00000000000E+00 -0.00000000000E+00 -0.57777816836E+03  0.57777816836E+03  0.00000000000E+00 0.  1.
         23    2    1    2    0    0  0.71865870838E+01 -0.11415970010E+03 -0.26429734111E+03  0.30173768976E+03  0.90047014052E+02 0.  0.
          5    1    1    2  502    0  0.35469301832E+02  0.32552229427E+02 -0.19980823395E+02  0.52291727039E+02  0.41800000000E+01 0.  1.
         -5    1    1    2    0  502 -0.42655888915E+02  0.81607470673E+02 -0.25041094419E+03  0.26683781122E+03  0.41800000000E+01 0.  1.
        -11    1    3    3    0    0 -0.28032777789E+02 -0.27602026984E+02 -0.29945182757E+02  0.49441101267E+02  0.00000000000E+00 0. -1.
         11    1    3    3    0    0  0.35219364873E+02 -0.86557673116E+02 -0.23435215836E+03  0.25229658849E+03  0.00000000000E+00 0.  1.
</event>
<event>
 7    1  0.6145388E-006  0.1395721E+03  0.7561462E-02  0.1213906E+00
          4   -1    0    0  501    0  0.00000000000E+00  0.00000000000E+00  0.25329405883E+03  0.25329405883E+03  0.00000000000E+00 0. -1.
         -4   -1    0    0    0  501 -0.00000000000E+00 -0.00000000000E+00 -0.11533439829E+03  0.11533439829E+03  0.00000000000E+00 0.  1.
         23    2    1    2    0    0 -0.43602700097E+02 -0.86444393008E+02  0.16131031849E+03  0.20873362241E+03  0.90415030468E+02 0.  0.
          5    1    1    2  502    0  0.44591219297E+02  0.11336885493E+03 -0.39586673881E+02  0.12816181668E+03  0.41800000000E+01 0.  1.
         -5    1    1    2    0  502 -0.98851920028E+00 -0.26924461922E+02  0.16236015930E+02  0.31733018030E+02  0.41800000000E+01 0.  1.
        -11    1    3    3    0    0 -0.49915878923E+01  0.17974952662E+02  0.39672832985E+02  0.43840033644E+02  0.00000000000E+00 0. -1.
         11    1    3    3    0    0 -0.38611112204E+02 -0.10441934567E+03  0.12163748550E+03  0.16489358876E+03  0.00000000000E+00 0.  1.
</event>
<event>
 7    1  0.6145388E-006  0.1268263E+03  0.7561462E-02  0.1232242E+00
          2   -1    0    0  501    0  0.00000000000E+00  0.00000000000E+00  0.97848369918E+03  0.97848369918E+03  0.00000000000E+00 0. -1.
         -2   -1    0    0    0  501 -0.00000000000E+00 -0.00000000000E+00 -0.17147019827E+02  0.17147019827E+02  0.00000000000E+00 0.  1.
         23    2    1    2    0    0 -0.61698341489E+02 -0.20288825687E+02  0.52939058293E+03  0.54127061016E+03  0.92201748017E+02 0.  0.
          5    1    1    2  502    0  0.99695899293E+02  0.56609622031E+01  0.29977238701E+03  0.31599410634E+03  0.41800000000E+01 0. -1.
         -5    1    1    2    0  502 -0.37997557804E+02  0.14627863484E+02  0.13217370942E+03  0.13836600251E+03  0.41800000000E+01 0. -1.
        -11    1    3    3    0    0 -0.57634998867E+02  0.28169165496E+02  0.30275039110E+03  0.30947228356E+03  0.00000000000E+00 0. -1.
         11    1    3    3    0    0 -0.40633426217E+01 -0.48457991183E+02  0.22664019183E+03  0.23179832660E+03  0.00000000000E+00 0.  1.
</event>
<event>
 7    1  0.6145388E-006  0.9915651E+02  0.7561462E-02  0.1282080E+00
         -2   -1    0    0    0  501 -0.00000000000E+00  0.00000000000E+00  0.12859078386E+02  0.12859078386E+02  0.00000000000E+00 0.  1.
          2   -1    0    0  501    0  0.00000000000E+00 -0.00000000000E+00 -0.10311490473E+04  0.10311490473E+04  0.00000000000E+00 0. -1.
         23    2    1    2    0    0 -0.32640612402E+02  0.20311798480E+02 -0.44683657329E+03  0.45776218951E+03  0.91680533285E+02 0.  0.
          5    1    1    2  502    0  0.28673820610E+02 -0.58608359336E+02 -0.15814350865E+03  0.17112559569E+03  0.41800000000E+01 0.  1.
         -5    1    1    2    0  502  0.39667917922E+01  0.38296560856E+02 -0.41330988700E+03  0.41512034051E+03  0.41800000000E+01 0.  1.
        -11    1    3    3    0    0 -0.62100965607E+02  0.95007241438E+01 -0.35974468392E+03  0.36518903501E+03  0.00000000000E+00 0. -1.
         11    1    3    3    0    0  0.29460353205E+02  0.10811074336E+02 -0.87091889370E+02  0.92573154496E+02  0.00000000000E+00 0.  1.
</event>
<event>
 7    1  0.6145388E-006  0.1089475E+03  0.7561462E-02  0.1262531E+00
         -2   -1    0    0    0  501 -0.00000000000E+00  0.00000000000E+00  0.41489788563E+02  0.41489788563E+02  0.00000000000E+00 0. -1.
          2   -1    0    0  501    0  0.00000000000E+00 -0.00000000000E+00 -0.57249333698E+03  0.57249333698E+03  0.00000000000E+00 0.  1.
         23    2    1    2    0    0 -0.33619245579E+02  0.61284502684E+02 -0.41213543332E+03  0.42780199332E+03  0.90955407481E+02 0.  0.
          5    1    1    2  502    0 -0.15842702723E+02  0.84928741905E+01 -0.95709886174E+02  0.97472944210E+02  0.41800000000E+01 0. -1.
         -5    1    1    2    0  502  0.49461948301E+02 -0.69777376874E+02 -0.23158228922E+02  0.88708188010E+02  0.41800000000E+01 0. -1.
        -11    1    3    3    0    0 -0.34826581153E+02  0.84065983748E+02 -0.34914073476E+03  0.36080359345E+03  0.00000000000E+00 0.  1.
         11    1    3    3    0    0  0.12073355737E+01 -0.22781481064E+02 -0.62994698561E+02  0.66998399873E+02  0.00000000000E+00 0. -1.
</event>
<event>
 7    1  0.6145388E-006  0.9970670E+02  0.7561462E-02  0.1280914E+00
          2   -1    0    0  501    0  0.00000000000E+00  0.00000000000E+00  0.69493491310E+02  0.69493491310E+02  0.00000000000E+00 0. -1.
         -2   -1    0    0    0  501 -0.00000000000E+00 -0.00000000000E+00 -0.15093260598E+03  0.15093260598E+03  0.00000000000E+00 0.  1.
         23    2    1    2    0    0 -0.82014694028E+01 -0.14977480035E+02 -0.14552220788E+02  0.77550982421E+02  0.74234754233E+02 0.  0.
          5    1    1    2  502    0 -0.57396873768E+02  0.18410969808E+02 -0.32833987365E+02  0.68767056458E+02  0.41800000000E+01 0.  1.
         -5    1    1    2    0  502  0.65598343171E+02 -0.34334897738E+01 -0.34052906514E+02  0.74108058407E+02  0.41800000000E+01 0.  1.
        -11    1    3    3    0    0 -0.87693902935E+01 -0.43634803072E+02  0.18147768380E+01  0.44544266300E+02  0.00000000000E+00 0. -1.
         11    1    3    3    0    0  0.56792089068E+00  0.28657323037E+02 -0.16366997626E+02  0.33006716121E+02  0.00000000000E+00 0.  1.
</event>
<event>
 7    1  0.6145388E-006  0.9751211E+02  0.7561462E-02  0.1285616E+00
         -3   -1    0    0    0  501 -0.00000000000E+00  0.00000000000E+00  0.12323061968E+03  0.12323061968E+03  0.00000000000E+00 0.  1.
          3   -1    0    0  501    0  0.00000000000E+00 -0.00000000000E+00 -0.12219444178E+03  0.12219444178E+03  0.00000000000E+00 0. -1.
         23    2    1    2    0    0  0.47226280860E+02 -0.29644193779E+02 -0.26353668617E+02  0.10575760039E+03  0.85913062814E+02 0.  0.
          5    1    1    2  502    0  0.34514699831E+02  0.41232889642E+02  0.59012174267E+01  0.54255990082E+02  0.41800000000E+01 0. -1.
         -5    1    1    2    0  502 -0.81740980691E+02 -0.11588695862E+02  0.21488629097E+02  0.85411470989E+02  0.41800000000E+01 0. -1.
        -11    1    3    3    0    0  0.25315509519E+02 -0.56605492750E+01 -0.56038952269E+02  0.61751769300E+02  0.00000000000E+00 0. -1.
         11    1    3    3    0    0  0.21910771340E+02 -0.23983644504E+02  0.29685283652E+02  0.44005831090E+02  0.00000000000E+00 0.  1.
</event>
<event>
 7    1  0.6145388E-006  0.1009683E+03  0.7561462E-02  0.1278273E+00
          2   -1    0    0  501    0  0.00000000000E+00  0.00000000000E+00  0.62706745203E+03  0.62706745203E+03  0.00000000000E+00 0. -1.
         -2   -1    0    0    0  501 -0.00000000000E+00 -0.00000000000E+00 -0.19343898402E+02  0.19343898402E+02  0.00000000000E+00 0.  1.
         23    2    1    2    0    0 -0.80274566100E+01 -0.37211383732E+01  0.32069471607E+03  0.33318471022E+03  0.89936996169E+02 0.  0.
          5    1    1    2  502    0 -0.33804055296E+02  0.46734930817E+02  0.19410127587E+03  0.20253307287E+03  0.41800000000E+01 0. -1.
         -5    1    1    2    0  502  0.41831511906E+02 -0.43013792443E+02  0.92927561693E+02  0.11069356734E+03  0.41800000000E+01 0. -1.
        -11    1    3    3    0    0 -0.19264617007E+02  0.37001352954E+02  0.22110145560E+03  0.22500239834E+03  0.00000000000E+00 0. -1.
         11    1    3    3    0    0  0.11237160397E+02 -0.40722491328E+02  0.99593260469E+02  0.10818231188E+03  0.00000000000E+00 0.  1.
</event>
<event>
 7    1  0.6145388E-006  0.9822600E+02  0.7561462E-02  0.1284071E+00
          1   -1    0    0  501    0  0.00000000000E+00  0.00000000000E+00  0.19838370266E+03  0.19838370266E+03  0.00000000000E+00 0. -1.
         -1   -1    0    0    0  501 -0.00000000000E+00 -0.00000000000E+00 -0.65278208748E+02  0.65278208748E+02  0.00000000000E+00 0.  1.
         23    2    1    2    0    0  0.19841258359E+02  0.13748557943E+02  0.83116910987E+02  0.12680109317E+03  0.92668214390E+02 0.  0.
          5    1    1    2  502    0 -0.70759945751E+02 -0.11485725089E+02  0.11202970505E+02  0.72676480045E+02  0.41800000000E+01 0.  1.
         -5    1    1    2    0  502  0.50918687393E+02 -0.22628328548E+01  0.38785612415E+02  0.64184338189E+02  0.41800000000E+01 0.  1.
        -11    1    3    3    0    0 -0.19604411549E+01  0.39621720911E+02  0.29415223019E+01  0.39779098166E+02  0.00000000000E+00 0.  1.
         11    1    3    3    0    0  0.21801699513E+02 -0.25873162967E+02  0.80175388685E+02  0.87021995004E+02  0.00000000000E+00 0. -1.
</event>
<event>
 7    1  0.6145388E-006  0.1528456E+03  0.7561462E-02  0.1197019E+00
          1   -1    0    0  501    0  0.00000000000E+00  0.00000000000E+00  0.10137764598E+03  0.10137764598E+03  0.00000000000E+00 0. -1.
         -1   -1    0    0    0  501 -0.00000000000E+00 -0.00000000000E+00 -0.48807389518E+03  0.48807389518E+03  0.00000000000E+00 0.  1.
         23    2    1    2    0    0 -0.10595260623E+03  0.81235178323E+02 -0.96212615741E+00  0.16252707169E+03  0.92676935531E+02 0.  0.
          5    1    1    2  502    0  0.13325111087E+02 -0.68931766285E+02 -0.76788076656E+02  0.10412986174E+03  0.41800000000E+01 0. -1.
         -5    1    1    2    0  502  0.92627495148E+02 -0.12303412038E+02 -0.30894604639E+03  0.32279460774E+03  0.41800000000E+01 0. -1.
        -11    1    3    3    0    0 -0.80122898540E+02  0.32100144693E+02  0.38406765908E+02  0.94473159296E+02  0.00000000000E+00 0. -1.
         11    1    3    3    0    0 -0.25829707695E+02  0.49135033630E+02 -0.39368892065E+02  0.68053912392E+02  0.00000000000E+00 0.  1.
</event>
<event>
 7    1  0.6145388E-006  0.1844391E+03  0.7561462E-02  0.1163575E+00
          1   -1    0    0  501    0  0.00000000000E+00  0.00000000000E+00  0.77921401978E+02  0.77921401978E+02  0.00000000000E+00 0. -1.
         -1   -1    0    0    0  501 -0.00000000000E+00 -0.00000000000E+00 -0.46543993741E+03  0.46543993741E+03  0.00000000000E+00 0.  1.
         23    2    1    2    0    0  0.11109239698E+03  0.26196625267E+01 -0.18620234505E+03  0.23706695317E+03  0.95817762877E+02 0.  0.
          5    1    1    2  502    0 -0.12753684767E+03 -0.78721430188E+02 -0.15477968122E+03  0.21549230428E+03  0.41800000000E+01 0. -1.
         -5    1    1    2    0  502  0.16444450689E+02  0.76101767661E+02 -0.46536509166E+02  0.90802081942E+02  0.41800000000E+01 0.  1.
        -11    1    3    3    0    0  0.74450478144E+02  0.43378535252E+02 -0.14433019951E+03  0.16809454930E+03  0.00000000000E+00 0.  1.
         11    1    3    3    0    0  0.36641918841E+02 -0.40758872726E+02 -0.41872145542E+02  0.68972403862E+02  0.00000000000E+00 0. -1.
</event>
<event>
 7    1  0.6145388E-006  0.9001784E+02  0.7561462E-02  0.1302808E+00
          2   -1    0    0  501    0  0.00000000000E+00  0.00000000000E+00  0.79464753126E+02  0.79464753126E+02  0.00000000000E+00 0. -1.
         -2   -1    0    0    0  501 -0.00000000000E+00 -0.00000000000E+00 -0.15176063856E+03  0.15176063856E+03  0.00000000000E+00 0.  1.
         23    2    1    2    0    0 -0.11714200267E+02 -0.18575262464E+02 -0.34682807719E+02  0.98779651445E+02  0.89845754072E+02 0.  0.
          5    1    1    2  502    0 -0.53153107083E+02 -0.80240535828E+01 -0.30259014388E+02  0.61828137447E+02  0.41800000000E+01 0. -1.
         -5    1    1    2    0  502  0.64867307350E+02  0.26599316047E+02 -0.73540633270E+01  0.70617602795E+02  0.41800000000E+01 0. -1.
        -11    1    3    3    0    0 -0.10937336527E+02 -0.36417920385E+02 -0.58033906178E+02  0.69381730461E+02  0.00000000000E+00 0.  1.
         11    1    3    3    0    0 -0.77686374003E+00  0.17842657921E+02  0.23351098458E+02  0.29397920984E+02  0.00000000000E+00 0. -1.
</event>
<event>
 7    1  0.6145388E-006  0.8728249E+02  0.7561462E-02  0.1309569E+00
         -1   -1    0    0    0  501 -0.00000000000E+00  0.00000000000E+00  0.50067019943E+03  0.50067019943E+03  0.00000000000E+00 0.  1.
          1   -1    0    0  501    0  0.00000000000E+00 -0.00000000000E+00 -0.24347188455E+02  0.24347188455E+02  0.00000000000E+00 0. -1.
         23    2    1    2    0    0  0.36268618650E-01 -0.16038280710E+02  0.10955854492E+03  0.13717655704E+03  0.80975954899E+02 0.  0.
          5    1    1    2  502    0  0.37691971173E+02  0.33688658812E+02  0.32418495830E+03  0.32812950189E+03  0.41800000000E+01 0. -1.
         -5    1    1    2    0  502 -0.37728239792E+02 -0.17650378101E+02  0.42579507749E+02  0.59711328951E+02  0.41800000000E+01 0. -1.
        -11    1    3    3    0    0 -0.36044926854E+02  0.10088473254E+02  0.58116395299E+02  0.69126908271E+02  0.00000000000E+00 0. -1.
         11    1    3    3    0    0  0.36081195473E+02 -0.26126753965E+02  0.51442149622E+02  0.68049648766E+02  0.00000000000E+00 0.  1.
</event>
<event>
 7    1  0.6145388E-006  0.1277346E+03  0.7561462E-02  0.1230856E+00
          2   -1    0    0  501    0  0.00000000000E+00  0.00000000000E+00  0.53792060842E+03  0.53792060842E+03  0.00000000000E+00 0. -1.
         -2   -1    0    0    0  501 -0.00000000000E+00 -0.00000000000E+00 -0.67855811431E+02  0.67855811431E+02  0.00000000000E+00 0.  1.
         23    2    1    2    0    0 -0.86077307231E+02  0.72787440531E+02  0.39671616678E+03  0.42210651326E+03  0.89904823167E+02 0.  0.
          5    1    1    2  502    0  0.43226075523E+02 -0.72127029077E+02  0.10176631737E+03  0.13207822561E+03  0.41800000000E+01 0. -1.
         -5    1    1    2    0  502  0.42851231708E+02 -0.66041145397E+00 -0.28417687171E+02  0.51591680980E+02  0.41800000000E+01 0. -1.
        -11    1    3    3    0    0 -0.71729305560E+02  0.21383620668E+02  0.12916744813E+03  0.14928691224E+03  0.00000000000E+00 0.  1.
         11    1    3    3    0    0 -0.14348001671E+02  0.51403819863E+02  0.26754871865E+03  0.27281960102E+03  0.00000000000E+00 0. -1.
</event>
<event>
 7    1  0.6145388E-006  0.1063931E+03  0.7561462E-02  0.1267399E+00
         -2   -1    0    0    0  501 -0.00000000000E+00  0.00000000000E+00  0.45360987875E+02  0.45360987875E+02  0.00000000000E+00 0.  1.
          2   -1    0    0  501    0  0.00000000000E+00 -0.00000000000E+00 -0.52142531217E+03  0.52142531217E+03  0.00000000000E+00 0. -1.
         23    2    1    2    0    0  0.28781633035E+02 -0.34944375713E+02 -0.40209030376E+03  0.41456989078E+03  0.90233531290E+02 0.  0.
          5    1    1    2  502    0 -0.22178211552E+02  0.78520470900E+02 -0.70319538258E+02  0.10779446776E+03  0.41800000000E+01 0. -1.
         -5    1    1    2    0  502 -0.66034214835E+01 -0.43576095187E+02 -0.36544822812E+01  0.44421941513E+02  0.41800000000E+01 0. -1.
        -11    1    3    3    0    0  0.50941940827E+02 -0.39164448330E+02 -0.36880226527E+03  0.37435817904E+03  0.00000000000E+00 0. -1.
         11    1    3    3    0    0 -0.22160307791E+02  0.42200726167E+01 -0.33288038491E+02  0.40211711738E+02  0.00000000000E+00 0.  1.
</event>
<event>
 7    1  0.6145388E-006  0.1061898E+03  0.7561462E-02  0.1267793E+00
         -1   -1    0    0    0  501 -0.00000000000E+00  0.00000000000E+00  0.75323831527E+02  0.75323831527E+02  0.00000000000E+00 0.  1.
          1   -1    0    0  501    0  0.00000000000E+00 -0.00000000000E+00 -0.24474772928E+03  0.24474772928E+03  0.00000000000E+00 0. -1.
         23    2    1    2    0    0 -0.48807044695E+02 -0.66747019577E+02 -0.93801624564E+02  0.15213318522E+03  0.86651422603E+02 0.  0.
          5    1    1    2  502    0  0.32859023526E+02  0.11678363911E+02  0.30974890987E+02  0.46829647472E+02  0.41800000000E+01 0.  1.
         -5    1    1    2    0  502  0.15948021169E+02  0.55068655666E+02 -0.10659716418E+03  0.12110872812E+03  0.41800000000E+01 0.  1.
        -11    1    3    3    0    0 -0.36921965495E+02  0.13001594124E+02 -0.30540966033E+02  0.49649003938E+02  0.00000000000E+00 0.  1.
         11    1    3    3    0    0 -0.11885079200E+02 -0.79748613700E+02 -0.63260658531E+02  0.10248418128E+03  0.00000000000E+00 0. -1.
</event>
<event>
 7    1  0.6145388E-006  0.9899290E+02  0.7561462E-02  0.1282428E+00
          1   -1    0    0  501    0  0.00000000000E+00  0.00000000000E+00  0.33005284865E+03  0.33005284865E+03  0.00000000000E+00 0. -1.
         -1   -1    0    0    0  501 -0.00000000000E+00 -0.00000000000E+00 -0.50828887872E+02  0.50828887872E+02  0.00000000000E+00 0.  1.
         23    2    1    2    0    0  0.49563290690E+02  0.49683551666E+02  0.14067246549E+03  0.18146236979E+03  0.90635942178E+02 0.  0.
          5    1    1    2  502    0 -0.17425774720E+02 -0.48079872780E+02 -0.56419699785E+01  0.51620112518E+02  0.41800000000E+01 0.  1.
         -5    1    1    2    0  502 -0.32137515970E+02 -0.16036788858E+01  0.14419346527E+03  0.14779925421E+03  0.41800000000E+01 0.  1.
        -11    1    3    3    0    0  0.76016625103E+02  0.41099526518E+02  0.99644107559E+02  0.13189634773E+03  0.00000000000E+00 0.  1.
         11    1    3    3    0    0 -0.26453334413E+02  0.85840251480E+01  0.41028357929E+02  0.49566022068E+02  0.00000000000E+00 0. -1.
</event>
<event>
 7    1  0.6145388E-006  0.3427237E+03  0.7561462E-02  0.1065642E+00
         -1   -1    0    0    0  501 -0.00000000000E+00  0.00000000000E+00  0.15939060170E+03  0.15939060170E+03  0.00000000000E+00 0. -1.
          1   -1    0    0  501    0  0.00000000000E+00 -0.00000000000E+00 -0.76213132000E+03  0.76213132000E+03  0.00000000000E+00 0.  1.
         23    2    1    2    0    0  0.60692528421E+02  0.32570099491E+03 -0.27514897816E+03  0.43907937334E+03  0.85551240891E+02 0.  0.
          5    1    1    2  502    0  0.35700570463E+02 -0.46774856871E+02 -0.57101054109E+02  0.82100065451E+02  0.41800000000E+01 0. -1.
         -5    1    1    2    0  502 -0.96393098884E+02 -0.27892613804E+03 -0.27049068603E+03  0.40034248291E+03  0.41800000000E+01 0. -1.
        -11    1    3    3    0    0  0.23637923405E+02  0.13264993733E+03 -0.16747083716E+03  0.21494473382E+03  0.00000000000E+00 0.  1.
         11    1    3    3    0    0  0.37054605016E+02  0.19305105758E+03 -0.10767814101E+03  0.22413463953E+03  0.00000000000E+00 0. -1.
</event>
<event>
 7    1  0.6145388E-006  0.1775132E+03  0.7561462E-02  0.1170232E+00
         -2   -1    0    0    0  501 -0.00000000000E+00  0.00000000000E+00  0.61420937458E+02  0.61420937458E+02  0.00000000000E+00 0.  1.
          2   -1    0    0  501    0  0.00000000000E+00 -0.00000000000E+00 -0.72857190404E+03  0.72857190404E+03  0.00000000000E+00 0. -1.
         23    2    1    2    0    0  0.16922200249E+03 -0.30657480047E+02 -0.42671363518E+03  0.46900498011E+03  0.91132747706E+02 0.  0.
          5    1    1    2  502    0 -0.68750633417E+02  0.39304104971E+02 -0.19459856821E+03  0.21013694918E+03  0.41800000000E+01 0. -1.
         -5    1    1    2    0  502 -0.10047136908E+03 -0.86466249237E+01 -0.45838763194E+02  0.11085091221E+03  0.41800000000E+01 0. -1.
        -11    1    3    3    0    0  0.14289341825E+03 -0.37217483097E+02 -0.41299943611E+03  0.43860255842E+03  0.00000000000E+00 0. -1.
         11    1    3    3    0    0  0.26328584242E+02  0.65600030496E+01 -0.13714199075E+02  0.30402421687E+02  0.00000000000E+00 0.  1.
</event>
<event>
 7    1  0.6145388E-006  0.1242742E+03  0.7561462E-02  0.1236208E+00
          2   -1    0    0  501    0  0.00000000000E+00  0.00000000000E+00  0.22417214730E+03  0.22417214730E+03  0.00000000000E+00 0. -1.
         -2   -1    0    0    0  501 -0.00000000000E+00 -0.00000000000E+00 -0.19028066578E+03  0.19028066578E+03  0.00000000000E+00 0.  1.
         23    2    1    2    0    0  0.44585307063E+02  0.10354126362E+03  0.15043571588E+03  0.20966162932E+03  0.92835614497E+02 0.  0.
          5    1    1    2  502    0 -0.14947712258E+02 -0.10099893314E+03 -0.20581267309E+02  0.10423665172E+03  0.41800000000E+01 0. -1.
         -5    1    1    2    0  502 -0.29637594804E+02 -0.25423304830E+01 -0.95962967051E+02  0.10055453205E+03  0.41800000000E+01 0. -1.
        -11    1    3    3    0    0  0.27101729188E+02  0.28720918387E+02 -0.13758468711E+01  0.39513134938E+02  0.00000000000E+00 0. -1.
         11    1    3    3    0    0  0.17483577874E+02  0.74820345234E+02  0.15181156275E+03  0.17014849438E+03  0.00000000000E+00 0.  1.
</event>
<event>
 7    1  0.6145388E-006  0.8138726E+02  0.7561462E-02  0.1325160E+00
          1   -1    0    0  501    0  0.00000000000E+00  0.00000000000E+00  0.19304709721E+03  0.19304709721E+03  0.00000000000E+00 0. -1.
         -1   -1    0    0    0  501 -0.00000000000E+00 -0.00000000000E+00 -0.69283297849E+02  0.69283297849E+02  0.00000000000E+00 0.  1.
         23    2    1    2    0    0  0.22498504274E+02 -0.18526822610E+01  0.95614055383E+02  0.13213952285E+03  0.88369625932E+02 0.  0.
          5    1    1    2  502    0 -0.40366542864E+02  0.40296715898E+02 -0.24711761060E+02  0.62301096536E+02  0.41800000000E+01 0. -1.
         -5    1    1    2    0  502  0.17868038589E+02 -0.38444033637E+02  0.52861505037E+02  0.67889775667E+02  0.41800000000E+01 0. -1.
        -11    1    3    3    0    0  0.18401427380E+02  0.27642114826E+02  0.12958053568E+01  0.33232185501E+02  0.00000000000E+00 0.  1.
         11    1    3    3    0    0  0.40970768939E+01 -0.29494797087E+02  0.94318250026E+02  0.98907337353E+02  0.00000000000E+00 0. -1.
</event>
<event>
 7    1  0.6145388E-006  0.1183690E+03  0.7561462E-02  0.1245812E+00
          1   -1    0    0  501    0  0.00000000000E+00  0.00000000000E+00  0.22282342083E+02  0.22282342083E+02  0.00000000000E+00 0. -1.
         -1   -1    0    0    0  501 -0.00000000000E+00 -0.00000000000E+00 -0.10178918009E+04  0.10178918009E+04  0.00000000000E+00 0.  1.
         23    2    1    2    0    0 -0.93581141215E+01 -0.71174442521E+02 -0.20167104449E+03  0.23324201683E+03  0.92613458317E+02 0.  0.
          5    1    1    2  502    0  0.38864077108E+02 -0.67765253310E+01 -0.49429848834E+03  0.49588789636E+03  0.41800000000E+01 0.  1.
         -5    1    1    2    0  502 -0.29505962987E+02  0.77950967852E+02 -0.29963992603E+03  0.31104422983E+03  0.41800000000E+01 0.  1.
        -11    1    3    3    0    0  0.66747102630E+01  0.19977090184E+02 -0.63805868158E+02  0.67192445265E+02  0.00000000000E+00 0. -1.
         11    1    3    3    0    0 -0.16032824384E+02 -0.91151532704E+02 -0.13786517634E+03  0.16604957157E+03  0.00000000000E+00 0.  1.
</event>
<event>
 7    1  0.6145388E-006  0.1169702E+03  0.7561462E-02  0.1248181E+00
         -2   -1    0    0    0  501 -0.00000000000E+00  0.00000000000E+00  0.96772408794E+02  0.96772408794E+02  0.00000000000E+00 0. -1.
          2   -1    0    0  501    0  0.00000000000E+00 -0.00000000000E+00 -0.40286784766E+03  0.40286784766E+03  0.00000000000E+00 0.  1.
         23    2    1    2    0    0 -0.77983981641E+02  0.71709199338E+02 -0.30377432915E+03  0.33569901074E+03  0.95871122355E+02 0.  0.
          5    1    1    2  502    0 -0.63672446625E+01 -0.19620634141E+02  0.48199363574E+02  0.52594316591E+02  0.41800000000E+01 0.  1.
         -5    1    1    2    0  502  0.84351226304E+02 -0.52088565196E+02 -0.50520473294E+02  0.11134692912E+03  0.41800000000E+01 0.  1.
        -11    1    3    3    0    0 -0.39322850110E+02  0.62634738786E+02 -0.27958308146E+03  0.28919906031E+03  0.00000000000E+00 0.  1.
         11    1    3    3    0    0 -0.38661131532E+02  0.90744605513E+01 -0.24191247683E+02  0.46499950431E+02  0.00000000000E+00 0. -1.
</event>
<event>
 7    1  0.6145388E-006  0.1322762E+03  0.7561462E-02  0.1224117E+00
         -2   -1    0    0    0  501 -0.00000000000E+00  0.00000000000E+00  0.69766964526E+02  0.69766964526E+02  0.00000000000E+00 0.  1.
          2   -1    0    0  501    0  0.00000000000E+00 -0.00000000000E+00 -0.33773933908E+03  0.33773933908E+03  0.00000000000E+00 0. -1.
         23    2    1    2    0    0  0.47089493080E+02 -0.76422501012E+02 -0.12142504289E+03  0.17854935786E+03  0.95278607953E+02 0.  0.
          5    1    1    2  502    0 -0.74445445768E+02  0.75304827267E+02 -0.16469567605E+03  0.19584452894E+03  0.41800000000E+01 0. -1.
         -5    1    1    2    0  502  0.27355952688E+02  0.11176737444E+01  0.18148344391E+02  0.33112416798E+02  0.41800000000E+01 0.  1.
        -11    1    3    3    0    0  0.46574772332E+01 -0.87022199051E+02 -0.79325392786E+02  0.11784342647E+03  0.00000000000E+00 0.  1.
         11    1    3    3    0    0  0.42432015847E+02  0.10599698040E+02 -0.42099650103E+02  0.60705931392E+02  0.00000000000E+00 0. -1.
</event>
<event>
 7    1  0.6145388E-006  0.1283374E+03  0.7561462E-02  0.1229944E+00
          2   -1    0    0  501    0  0.00000000000E+00  0.00000000000E+00  0.21693360515E+03  0.21693360515E+03  0.00000000000E+00 0. -1.
         -2   -1    0    0    0  501 -0.00000000000E+00 -0.00000000000E+00 -0.82927083111E+02  0.82927083111E+02  0.00000000000E+00 0.  1.
         23    2    1    2    0    0 -0.31739553113E+02  0.71947074219E+02  0.60524278930E+02  0.13484262098E+03  0.91299306522E+02 0.  0.
          5    1    1    2  502    0  0.74668959912E+02 -0.24069631468E+02  0.19483768774E+02  0.80943748239E+02  0.41800000000E+01 0. -1.
         -5    1    1    2    0  502 -0.42929406799E+02 -0.47877442751E+02  0.53998474334E+02  0.84074319045E+02  0.41800000000E+01 0. -1.
        -11    1    3    3    0    0 -0.49792827996E+02  0.12214948492E+02  0.53498396417E+01  0.51547565128E+02  0.00000000000E+00 0.  1.
         11    1    3    3    0    0  0.18053274883E+02  0.59732125728E+02  0.55174439288E+02  0.83295055848E+02  0.00000000000E+00 0. -1.
</event>
<event>
 7    1  0.6145388E-006  0.7765068E+02  0.7561462E-02  0.1335854E+00
         -1   -1    0    0    0  501 -0.00000000000E+00  0.00000000000E+00  0.44775814907E+03  0.44775814907E+03  0.00000000000E+00 0.  1.
          1   -1    0    0  501    0  0.00000000000E+00 -0.00000000000E+00 -0.23162491585E+02  0.23162491585E+02  0.00000000000E+00 0. -1.
         23    2    1    2    0    0 -0.16913268899E+02  0.43961749400E+01  0.74926766560E+02  0.99139963668E+02  0.62524611394E+02 0.  0.
          5    1    1    2  502    0 -0.30997360428E+02  0.43995222628E+02  0.10908809286E+03  0.12171318898E+03  0.41800000000E+01 0. -1.
         -5    1    1    2    0  502  0.47910629327E+02 -0.48391397568E+02  0.24058079806E+03  0.25006748801E+03  0.41800000000E+01 0. -1.
        -11    1    3    3    0    0 -0.22061689457E+02 -0.47806358535E+01  0.82912432895E+02  0.85930461127E+02  0.00000000000E+00 0.  1.
         11    1    3    3    0    0  0.51484205582E+01  0.91768107935E+01 -0.79856663346E+01  0.13209502541E+02  0.00000000000E+00 0. -1.
</event>
<event>
 7    1  0.6145388E-006  0.1604007E+03  0.7561462E-02  0.1188245E+00
         -1   -1    0    0    0  501 -0.00000000000E+00  0.00000000000E+00  0.46793159108E+02  0.46793159108E+02  0.00000000000E+00 0.  1.
          1   -1    0    0  501    0  0.00000000000E+00 -0.00000000000E+00 -0.64397094316E+03  0.64397094316E+03  0.00000000000E+00 0. -1.
         23    2    1    2    0    0 -0.93773186974E+02 -0.91978826841E+02 -0.33272809229E+03  0.37008787055E+03  0.94886950354E+02 0.  0.
          5    1    1    2  502    0  0.26972542428E+01 -0.21857215611E+02 -0.48831439752E+01  0.22941895079E+02  0.41800000000E+01 0.  1.
         -5    1    1    2    0  502  0.91075932732E+02  0.11383604245E+03 -0.25956654779E+03  0.29773433664E+03  0.41800000000E+01 0.  1.
        -11    1    3    3    0    0 -0.50925207767E+02 -0.96842963981E+02 -0.28740215717E+03  0.30752550529E+03  0.00000000000E+00 0.  1.
         11    1    3    3    0    0 -0.42847979208E+02  0.48641371409E+01 -0.45325935120E+02  0.62562365259E+02  0.00000000000E+00 0. -1.
</event>
<event>
 7    1  0.6145388E-006  0.1107935E+03  0.7561462E-02  0.1259107E+00
          2   -1    0    0  501    0  0.00000000000E+00  0.00000000000E+00  0.47608256771E+03  0.47608256771E+03  0.00000000000E+00 0.  1.
         -2   -1    0    0    0  501 -0.00000000000E+00 -0.00000000000E+00 -0.43020328210E+02  0.43020328210E+02  0.00000000000E+00 0. -1.
         23    2    1    2    0    0 -0.16014741628E+01 -0.92207911786E+02  0.24442506593E+03  0.27469176940E+03  0.84894591154E+02 0.  0.
          5    1    1    2  502    0 -0.81779149335E+00  0.10106638141E+03  0.64729953374E+02  0.12009380292E+03  0.41800000000E+01 0.  1.
         -5    1    1    2    0  502  0.24192656561E+01 -0.88584696290E+01  0.12390722020E+03  0.12431732360E+03  0.41800000000E+01 0.  1.
        -11    1    3    3    0    0  0.29045497789E+02 -0.54436994003E+02  0.68613902159E+02  0.92276187759E+02  0.00000000000E+00 0.  1.
         11    1    3    3    0    0 -0.30646971951E+02 -0.37770917783E+02  0.17581116377E+03  0.18241558164E+03  0.00000000000E+00 0. -1.
</event>
<event>
 7    1  0.6145388E-006  0.5833850E+02  0.7561462E-02  0.1404940E+00
         -1   -1    0    0    0  501 -0.00000000000E+00  0.00000000000E+00  0.26330946909E+02  0.26330946909E+02  0.00000000000E+00 0.  1.
          1   -1    0    0  501    0  0.00000000000E+00 -0.00000000000E+00 -0.46158878077E+03  0.46158878077E+03  0.00000000000E+00 0. -1.
         23    2    1    2    0    0  0.15462710295E+02 -0.47098054623E+00 -0.19561093847E+03  0.21715380192E+03  0.93020520362E+02 0.  0.
          5    1    1    2  502    0 -0.11773146236E+02 -0.15206052671E+02  0.89452153388E+01  0.21617592085E+02  0.41800000000E+01 0. -1.
         -5    1    1    2    0  502 -0.36895640589E+01  0.15677033217E+02 -0.24859211073E+03  0.24914833367E+03  0.41800000000E+01 0. -1.
        -11    1    3    3    0    0 -0.24515497288E+01  0.37916809994E+02 -0.15070000506E+03  0.15541617065E+03  0.00000000000E+00 0. -1.
         11    1    3    3    0    0  0.17914260024E+02 -0.38387790541E+02 -0.44910933408E+02  0.61737631266E+02  0.00000000000E+00 0.  1.
</event>
<event>
 7    1  0.6145388E-006  0.1039658E+03  0.7561462E-02  0.1272171E+00
          1   -1    0    0  501    0  0.00000000000E+00  0.00000000000E+00  0.25019154011E+03  0.25019154011E+03  0.00000000000E+00 0. -1.
         -1   -1    0    0    0  501 -0.00000000000E+00 -0.00000000000E+00 -0.94229977168E+02  0.94229977168E+02  0.00000000000E+00 0.  1.
         23    2    1    2    0    0  0.80026323597E+02 -0.18475213571E+02  0.15072683618E+03  0.19468599575E+03  0.91861372789E+02 0.  0.
          5    1    1    2  502    0  0.47007018642E+01 -0.11730800473E+01  0.50976441100E+02  0.51376479657E+02  0.41800000000E+01 0. -1.
         -5    1    1    2    0  502 -0.84727025461E+02  0.19648293618E+02 -0.45741714345E+02  0.98359041866E+02  0.41800000000E+01 0. -1.
        -11    1    3    3    0    0  0.64131265188E+02  0.24488116882E+02  0.12377264133E+03  0.14153499138E+03  0.00000000000E+00 0. -1.
         11    1    3    3    0    0  0.15895058409E+02 -0.42963330453E+02  0.26954194852E+02  0.53151004370E+02  0.00000000000E+00 0.  1.
</event>
<event>
 7    1  0.6145388E-006  0.1047017E+03  0.7561462E-02  0.1270709E+00
         -1   -1    0    0    0  501 -0.00000000000E+00  0.00000000000E+00  0.10130599545E+03  0.10130599545E+03  0.00000000000E+00 0.  1.
          1   -1    0    0  501    0  0.00000000000E+00 -0.00000000000E+00 -0.14149495146E+03  0.14149495146E+03  0.00000000000E+00 0. -1.
         23    2    1    2    0    0 -0.40101886200E+02  0.25634428621E+02 -0.39750545016E+02  0.10896288621E+03  0.89596425899E+02 0.  0.
          5    1    1    2  502    0  0.60993556144E+02  0.23417313737E+02  0.30316068727E+02  0.72146523803E+02  0.41800000000E+01 0. -1.
         -5    1    1    2    0  502 -0.20891669944E+02 -0.49051742358E+02 -0.30754479726E+02  0.61691536896E+02  0.41800000000E+01 0. -1.
        -11    1    3    3    0    0 -0.40799326998E+01  0.47923013781E+02 -0.45507887486E+02  0.66213510133E+02  0.00000000000E+00 0. -1.
         11    1    3    3    0    0 -0.36021953500E+02 -0.22288585160E+02  0.57573424700E+01  0.42749376074E+02  0.00000000000E+00 0.  1.
</event>
<event>
 7    1  0.6145388E-006  0.1392584E+03  0.7561462E-02  0.1214330E+00
          2   -1    0    0  501    0  0.00000000000E+00  0.00000000000E+00  0.71507408303E+02  0.71507408303E+02  0.00000000000E+00 0. -1.
         -2   -1    0    0    0  501 -0.00000000000E+00 -0.00000000000E+00 -0.31394798735E+03  0.31394798735E+03  0.00000000000E+00 0.  1.
         23    2    1    2    0    0 -0.18337543247E+02  0.90159242308E+02 -0.54729099929E+02  0.14184187648E+03  0.93053151907E+02 0.  0.
          5    1    1    2  502    0  0.54509161442E+02  0.35091611810E+01 -0.66754537291E+02  0.86355101425E+02  0.41800000000E+01 0.  1.
         -5    1    1    2    0  502 -0.36171618195E+02 -0.93668403489E+02 -0.12095694183E+03  0.15725841774E+03  0.41800000000E+01 0.  1.
        -11    1    3    3    0    0  0.31817396222E+02  0.22292887076E+02  0.39610107235E+01  0.39051365181E+02  0.00000000000E+00 0. -1.
         11    1    3    3    0    0 -0.50154939469E+02  0.67866355232E+02 -0.58690110653E+02  0.10279051130E+03  0.00000000000E+00 0.  1.
</event>
<event>
 7    1  0.6145388E-006  0.1432614E+03  0.7561462E-02  0.1209007E+00
         -1   -1    0    0    0  501 -0.00000000000E+00  0.00000000000E+00  0.14586015286E+03  0.14586015286E+03  0.00000000000E+00 0.  1.
          1   -1    0    0  501    0  0.00000000000E+00 -0.00000000000E+00 -0.16860307257E+03  0.16860307257E+03  0.00000000000E+00 0. -1.
         23    2    1    2    0    0  0.70963456660E+02  0.65094257807E+02 -0.70158717028E+02  0.14963209265E+03  0.90523162756E+02 0.  0.
          5    1    1    2  502    0  0.32725186481E+02 -0.34561476333E+02  0.26566105102E+02  0.54668673084E+02  0.41800000000E+01 0.  1.
         -5    1    1    2    0  502 -0.10368864314E+03 -0.30532781474E+02  0.20849692222E+02  0.11016245970E+03  0.41800000000E+01 0.  1.
        -11    1    3    3    0    0  0.69818649389E+02  0.44967563330E+01 -0.49084835165E+02  0.85464528684E+02  0.00000000000E+00 0.  1.
         11    1    3    3    0    0  0.11448072708E+01  0.60597501474E+02 -0.21073881863E+02  0.64167563966E+02  0.00000000000E+00 0. -1.
</event>
<event>
 7    1  0.6145388E-006  0.1570068E+03  0.7561462E-02  0.1192118E+00
          1   -1    0    0  501    0  0.00000000000E+00  0.00000000000E+00  0.28075862525E+03  0.28075862525E+03  0.00000000000E+00 0. -1.
         -1   -1    0    0    0  501 -0.00000000000E+00 -0.00000000000E+00 -0.14191206177E+03  0.14191206177E+03  0.00000000000E+00 0.  1.
         23    2    1    2    0    0 -0.11452602790E+03 -0.68930820381E+02  0.17487966743E+03  0.24020314148E+03  0.96161229353E+02 0.  0.
          5    1    1    2  502    0  0.76658816830E+02 -0.20906804561E+02 -0.28792038651E+02  0.84617507434E+02  0.41800000000E+01 0. -1.
         -5    1    1    2    0  502  0.37867211073E+02  0.89837624941E+02 -0.72410652972E+01  0.97850038100E+02  0.41800000000E+01 0.  1.
        -11    1    3    3    0    0 -0.45824959039E+02 -0.44696528363E+02  0.16855665238E+02  0.66195316823E+02  0.00000000000E+00 0.  1.
         11    1    3    3    0    0 -0.68701068863E+02 -0.24234292017E+02  0.15802400220E+03  0.17400782466E+03  0.00000000000E+00 0. -1.
</event>
<event>
 7    1  0.6145388E-006  0.1441925E+03  0.7561462E-02  0.1207796E+00
         -1   -1    0    0    0  501 -0.00000000000E+00  0.00000000000E+00  0.10083607692E+03  0.10083607692E+03  0.00000000000E+00 0.  1.
          1   -1    0    0  501    0  0.00000000000E+00 -0.00000000000E+00 -0.20694232879E+03  0.20694232879E+03  0.00000000000E+00 0. -1.
         23    2    1    2    0    0  0.44744992708E+02  0.83262817027E+02 -0.55289368632E+02  0.14296090009E+03  0.91902631083E+02 0.  0.
          5    1    1    2  502    0 -0.73865170679E+02 -0.98852049801E+02 -0.41158548102E+02  0.13015102639E+03  0.41800000000E+01 0.  1.
         -5    1    1    2    0  502  0.29120177971E+02  0.15589232775E+02 -0.96583351359E+01  0.34666479215E+02  0.41800000000E+01 0.  1.
        -11    1    3    3    0    0  0.25868593397E+02 -0.16106623791E+02 -0.93877547534E+01  0.31886319850E+02  0.00000000000E+00 0.  1.
         11    1    3    3    0    0  0.18876399311E+02  0.99369440818E+02 -0.45901613879E+02  0.11107458024E+03  0.00000000000E+00 0. -1.
</event>
<event>
 7    1  0.6145388E-006  0.2887477E+03  0.7561462E-02  0.1091005E+00
          2   -1    0    0  501    0  0.00000000000E+00  0.00000000000E+00  0.56281287674E+03  0.56281287674E+03  0.00000000000E+00 0. -1.
         -2   -1    0    0    0  501 -0.00000000000E+00 -0.00000000000E+00 -0.15591878272E+03  0.15591878272E+03  0.00000000000E+00 0.  1.
         23    2    1    2    0    0  0.14752161705E+03  0.23040852695E+03  0.16126450731E+03  0.33036000191E+03  0.90998751420E+02 0.  0.
          5    1    1    2  502    0 -0.12633999807E+03 -0.81966593735E+02  0.11658753292E+03  0.19050050613E+03  0.41800000000E+01 0. -1.
         -5    1    1    2    0  502 -0.21181618974E+02 -0.14844193321E+03  0.12904205379E+03  0.19787115142E+03  0.41800000000E+01 0. -1.
        -11    1    3    3    0    0  0.23778916065E+02  0.14137100188E+02  0.50710521201E+02  0.57765486334E+02  0.00000000000E+00 0. -1.
         11    1    3    3    0    0  0.12374270098E+03  0.21627142676E+03  0.11055398610E+03  0.27259451558E+03  0.00000000000E+00 0.  1.
</event>
<event>
 7    1  0.6145388E-006  0.7870894E+02  0.7561462E-02  0.1332756E+00
         -1   -1    0    0    0  501 -0.00000000000E+00  0.00000000000E+00  0.86198118593E+02  0.86198118593E+02  0.00000000000E+00 0.  1.
          1   -1    0    0  501    0  0.00000000000E+00 -0.00000000000E+00 -0.20817150975E+03  0.20817150975E+03  0.00000000000E+00 0. -1.
         23    2    1    2    0    0 -0.36283067259E+02 -0.24889641065E+02 -0.12615455066E+03  0.16170055080E+03  0.91083161325E+02 0.  0.
          5    1    1    2  502    0 -0.16341897235E+02  0.22369596269E+02 -0.49789484094E+02  0.57130741014E+02  0.41800000000E+01 0. -1.
         -5    1    1    2    0  502  0.52624964494E+02  0.25200447963E+01  0.53970643599E+02  0.75538336520E+02  0.41800000000E+01 0. -1.
        -11    1    3    3    0    0 -0.37685908866E+02  0.12064322661E+02 -0.11713191607E+03  0.12363519471E+03  0.00000000000E+00 0.  1.
         11    1    3    3    0    0  0.14028416073E+01 -0.36953963726E+02 -0.90226345824E+01  0.38065356092E+02  0.00000000000E+00 0. -1.
</event>
<event>
 7    1  0.6145388E-006  0.2186318E+03  0.7561462E-02  0.1134907E+00
          2   -1    0    0  501    0  0.00000000000E+00  0.00000000000E+00  0.16516662931E+04  0.16516662931E+04  0.00000000000E+00 0. -1.
         -2   -1    0    0    0  501 -0.00000000000E+00 -0.00000000000E+00 -0.44505496982E+02  0.44505496982E+02  0.00000000000E+00 0.  1.
         23    2    1    2    0    0  0.15092657310E+02  0.61611324828E+02  0.38628011614E+03  0.40266661371E+03  0.94362757567E+02 0.  0.
          5    1    1    2  502    0  0.10015421732E+03  0.90992308050E+02  0.96278570471E+03  0.97225729772E+03  0.41800000000E+01 0. -1.
         -5    1    1    2    0  502 -0.11524687463E+03 -0.15260363288E+03  0.25809497523E+03  0.32124787862E+03  0.41800000000E+01 0.  1.
        -11    1    3    3    0    0  0.53364951298E+02  0.32092485571E+02  0.16985578020E+03  0.18091083916E+03  0.00000000000E+00 0. -1.
         11    1    3    3    0    0 -0.38272293988E+02  0.29518839257E+02  0.21642433594E+03  0.22175577455E+03  0.00000000000E+00 0.  1.
</event>
<event>
 7    1  0.6145388E-006  0.1199796E+03  0.7561462E-02  0.1243131E+00
         -1   -1    0    0    0  501 -0.00000000000E+00  0.00000000000E+00  0.21460341577E+02  0.21460341577E+02  0.00000000000E+00 0.  1.
          1   -1    0    0  501    0  0.00000000000E+00 -0.00000000000E+00 -0.77382416917E+03  0.77382416917E+03  0.00000000000E+00 0. -1.
         23    2    1    2    0    0  0.62234161037E+02  0.18163491095E+02 -0.42013127609E+03  0.43442771156E+03  0.89521752747E+02 0.  0.
          5    1    1    2  502    0  0.30759277038E+02  0.13597536633E+02 -0.14994430668E+03  0.15372635959E+03  0.41800000000E+01 0.  1.
         -5    1    1    2    0  502 -0.92993438074E+02 -0.31761027728E+02 -0.18228824482E+03  0.20713043959E+03  0.41800000000E+01 0.  1.
        -11    1    3    3    0    0 -0.58207777773E+01  0.36716161300E+02 -0.10181158425E+03  0.10838614599E+03  0.00000000000E+00 0.  1.
         11    1    3    3    0    0  0.68054938814E+02 -0.18552670206E+02 -0.31831969184E+03  0.32604156558E+03  0.00000000000E+00 0. -1.
</event>
<event>
 7    1  0.6145388E-006  0.1502588E+03  0.7561462E-02  0.1200155E+00
          1   -1    0    0  501    0  0.00000000000E+00  0.00000000000E+00  0.39882974047E+02  0.39882974047E+02  0.00000000000E+00 0. -1.
         -1   -1    0    0    0  501 -0.00000000000E+00 -0.00000000000E+00 -0.68507621567E+03  0.68507621567E+03  0.00000000000E+00 0.  1.
         23    2    1    2    0    0  0.10549173643E+03  0.21129961165E+02 -0.17069481732E+03  0.22259334451E+03  0.94000503429E+02 0.  0.
          5    1    1    2  502    0 -0.10520427224E+03 -0.59697930202E+02 -0.29774948598E+03  0.32140941269E+03  0.41800000000E+01 0. -1.
         -5    1    1    2    0  502 -0.28746418796E+00  0.38567969037E+02 -0.17674893833E+03  0.18095643252E+03  0.41800000000E+01 0. -1.
        -11    1    3    3    0    0  0.28228346604E+02 -0.35163824782E+02 -0.37524604738E+02  0.58663703310E+02  0.00000000000E+00 0. -1.
         11    1    3    3    0    0  0.77263389821E+02  0.56293785947E+02 -0.13317021258E+03  0.16392964120E+03  0.00000000000E+00 0.  1.
</event>
<event>
 7    1  0.6145388E-006  0.1292391E+03  0.7561462E-02  0.1228589E+00
          2   -1    0    0  501    0  0.00000000000E+00  0.00000000000E+00  0.56083388797E+02  0.56083388797E+02  0.00000000000E+00 0. -1.
         -2   -1    0    0    0  501 -0.00000000000E+00 -0.00000000000E+00 -0.32286276276E+03  0.32286276276E+03  0.00000000000E+00 0.  1.
         23    2    1    2    0    0 -0.74113770433E+02 -0.27408863424E+02 -0.10683682182E+03  0.16106407434E+03  0.91013365971E+02 0.  0.
          5    1    1    2  502    0  0.10194293342E+03  0.48323565707E+02 -0.12209075329E+03  0.16628635878E+03  0.41800000000E+01 0. -1.
         -5    1    1    2    0  502 -0.27829162990E+02 -0.20914702283E+02 -0.37851798848E+02  0.51595718431E+02  0.41800000000E+01 0. -1.
        -11    1    3    3    0    0 -0.83678794802E+02 -0.23630557803E+01 -0.10486655068E+03  0.13418166113E+03  0.00000000000E+00 0.  1.
         11    1    3    3    0    0  0.95650243691E+01 -0.25045807644E+02 -0.19702711384E+01  0.26882413212E+02  0.00000000000E+00 0. -1.
</event>
<event>
 7    1  0.6145388E-006  0.1062001E+03  0.7561462E-02  0.1267773E+00
         -1   -1    0    0    0  501 -0.00000000000E+00  0.00000000000E+00  0.50137347650E+02  0.50137347650E+02  0.00000000000E+00 0.  1.
          1   -1    0    0  501    0  0.00000000000E+00 -0.00000000000E+00 -0.49735226551E+03  0.49735226551E+03  0.00000000000E+00 0. -1.
         23    2    1    2    0    0 -0.55136162491E+02 -0.23891949032E+02 -0.37615304657E+03  0.39158029759E+03  0.90736946025E+02 0.  0.
          5    1    1    2  502    0  0.77677455673E+02  0.25944503979E+02 -0.83492646243E+00  0.82006547962E+02  0.41800000000E+01 0.  1.
         -5    1    1    2    0  502 -0.22541293182E+02 -0.20525549476E+01 -0.70226944825E+02  0.73902767604E+02  0.41800000000E+01 0.  1.
        -11    1    3    3    0    0 -0.74649400551E+02 -0.37550738214E+02 -0.26332549948E+03  0.27626601242E+03  0.00000000000E+00 0. -1.
         11    1    3    3    0    0  0.19513238060E+02  0.13658789182E+02 -0.11282754709E+03  0.11531428517E+03  0.00000000000E+00 0.  1.
</event>
<event>
 7    1  0.6145388E-006  0.9362690E+02  0.7561462E-02  0.1294299E+00
         -2   -1    0    0    0  501 -0.00000000000E+00  0.00000000000E+00  0.77542995253E+02  0.77542995253E+02  0.00000000000E+00 0. -1.
          2   -1    0    0  501    0  0.00000000000E+00 -0.00000000000E+00 -0.22718362187E+03  0.22718362187E+03  0.00000000000E+00 0.  1.
         23    2    1    2    0    0 -0.64110944971E+02  0.37881156235E+02 -0.53959328867E+02  0.13052589856E+03  0.92629400088E+02 0.  0.
          5    1    1    2  502    0  0.27424129706E+02 -0.60537767775E+02  0.27605805820E+01  0.66648311475E+02  0.41800000000E+01 0.  1.
         -5    1    1    2    0  502  0.36686815265E+02  0.22656611540E+02 -0.98441878336E+02  0.10755240709E+03  0.41800000000E+01 0.  1.
        -11    1    3    3    0    0 -0.21416741928E+02  0.18879405204E+01  0.25533428374E+02  0.33379591350E+02  0.00000000000E+00 0. -1.
         11    1    3    3    0    0 -0.42694203043E+02  0.35993215715E+02 -0.79492757241E+02  0.97146307211E+02  0.00000000000E+00 0.  1.
</event>
<event>
 7    1  0.6145388E-006  0.1140179E+03  0.7561462E-02  0.1253305E+00
          1   -1    0    0  501    0  0.00000000000E+00  0.00000000000E+00  0.29372341187E+03  0.29372341187E+03  0.00000000000E+00 0. -1.
         -1   -1    0    0    0  501 -0.00000000000E+00 -0.00000000000E+00 -0.72575568792E+02  0.72575568792E+02  0.00000000000E+00 0.  1.
         23    2    1    2    0    0 -0.92780998711E+02  0.31843666145E+02  0.94569610820E+02  0.16308820848E+03  0.89621535696E+02 0.  0.
          5    1    1    2  502    0  0.20999185009E+02 -0.34110750075E+01  0.12396401801E+03  0.12584574433E+03  0.41800000000E+01 0.  1.
         -5    1    1    2    0  502  0.71781813702E+02 -0.28432591137E+02  0.26142142382E+01  0.77365027844E+02  0.41800000000E+01 0.  1.
        -11    1    3    3    0    0 -0.39223929649E+01  0.39640132053E+02  0.12163815753E+02  0.41649533604E+02  0.00000000000E+00 0. -1.
         11    1    3    3    0    0 -0.88858605746E+02 -0.77964659086E+01  0.82405795068E+02  0.12143867488E+03  0.00000000000E+00 0.  1.
</event>
<event>
 7    1  0.6145388E-006  0.1007436E+03  0.7561462E-02  0.1278740E+00
         -1   -1    0    0    0  501 -0.00000000000E+00  0.00000000000E+00  0.66484228809E+02  0.66484228809E+02  0.00000000000E+00 0.  1.
          1   -1    0    0  501    0  0.00000000000E+00 -0.00000000000E+00 -0.43111769992E+03  0.43111769992E+03  0.00000000000E+00 0. -1.
         23    2    1    2    0    0  0.24595776399E+02 -0.83899593760E+01 -0.35640325993E+03  0.36957516356E+03  0.94271810205E+02 0.  0.
          5    1    1    2  502    0  0.12158181308E+02 -0.41694568651E+02  0.31812968002E+02  0.53998108863E+02  0.41800000000E+01 0. -1.
         -5    1    1    2    0  502 -0.36753957707E+02  0.50084528027E+02 -0.40043179184E+02  0.74028656303E+02  0.41800000000E+01 0. -1.
        -11    1    3    3    0    0  0.23004544120E+02 -0.49429857356E+02 -0.16358545122E+03  0.17243178274E+03  0.00000000000E+00 0.  1.
         11    1    3    3    0    0  0.15912322791E+01  0.41039897980E+02 -0.19281780871E+03  0.19714338082E+03  0.00000000000E+00 0. -1.
</event>
<event>
 7    1  0.6145388E-006  0.2930749E+03  0.7561462E-02  0.1088755E+00
         -1   -1    0    0    0  501 -0.00000000000E+00  0.00000000000E+00  0.15132970992E+03  0.15132970992E+03  0.00000000000E+00 0.  1.
          1   -1    0    0  501    0  0.00000000000E+00 -0.00000000000E+00 -0.13396819649E+04  0.13396819649E+04  0.00000000000E+00 0. -1.
         23    2    1    2    0    0 -0.74487645083E+01  0.28147456916E+03 -0.11416259860E+04  0.11793794176E+04  0.91337295827E+02 0.  0.
          5    1    1    2  502    0 -0.35333299720E+02 -0.16646588311E+03  0.20828205747E+02  0.17149524444E+03  0.41800000000E+01 0. -1.
         -5    1    1    2    0  502  0.42782064228E+02 -0.11500868605E+03 -0.67554474689E+02  0.14013701273E+03  0.41800000000E+01 0. -1.
        -11    1    3    3    0    0 -0.30626434138E+02  0.39110918511E+02 -0.26268546528E+03  0.26734116047E+03  0.00000000000E+00 0.  1.
         11    1    3    3    0    0  0.23177669630E+02  0.24236365065E+03 -0.87894052075E+03  0.91203825717E+03  0.00000000000E+00 0. -1.
</event>
<event>
 7    1  0.6145388E-006  0.1086002E+03  0.7561462E-02  0.1263184E+00
         -2   -1    0    0    0  501 -0.00000000000E+00  0.00000000000E+00  0.49238642443E+02  0.49238642443E+02  0.00000000000E+00 0.  1.
          2   -1    0    0  501    0  0.00000000000E+00 -0.00000000000E+00 -0.39554102309E+03  0.39554102309E+03  0.00000000000E+00 0. -1.
         23    2    1    2    0    0  0.46939806363E+02  0.15302239285E+02 -0.28260684829E+03  0.29598024184E+03  0.72802258983E+02 0.  0.
          5    1    1    2  502    0  0.37460935617E+02 -0.26608579713E+02 -0.76458296500E+01  0.46768251226E+02  0.41800000000E+01 0. -1.
         -5    1    1    2    0  502 -0.84400741981E+02  0.11306340429E+02 -0.56049702710E+02  0.10203117247E+03  0.41800000000E+01 0. -1.
        -11    1    3    3    0    0  0.31021028205E+02 -0.26673168011E+02 -0.16762512838E+03  0.17254548892E+03  0.00000000000E+00 0.  1.
         11    1    3    3    0    0  0.15918778158E+02  0.41975407295E+02 -0.11498171991E+03  0.12343475292E+03  0.00000000000E+00 0. -1.
</event>
<event>
 7    1  0.6145388E-006  0.1627956E+03  0.7561462E-02  0.1185576E+00
         -1   -1    0    0    0  501 -0.00000000000E+00  0.00000000000E+00  0.28110219100E+03  0.28110219100E+03  0.00000000000E+00 0.  1.
          1   -1    0    0  501    0  0.00000000000E+00 -0.00000000000E+00 -0.13740142680E+03  0.13740142680E+03  0.00000000000E+00 0. -1.
         23    2    1    2    0    0 -0.13126705751E+03 -0.18900850755E+02 -0.33720265803E+02  0.16411422918E+03  0.90598793298E+02 0.  0.
          5    1    1    2  502    0  0.35582361085E+02  0.53071657683E+02  0.20190178981E+02  0.67140308287E+02  0.41800000000E+01 0. -1.
         -5    1    1    2    0  502  0.95684696422E+02 -0.34170806928E+02  0.15723085102E+03  0.18724908034E+03  0.41800000000E+01 0. -1.
        -11    1    3    3    0    0 -0.75541088456E+02 -0.55026771333E+02 -0.11913491696E+02  0.94214292402E+02  0.00000000000E+00 0.  1.
         11    1    3    3    0    0 -0.55725969052E+02  0.36125920578E+02 -0.21806774107E+02  0.69899936777E+02  0.00000000000E+00 0. -1.
</event>
<event>
 7    1  0.6145388E-006  0.9694037E+02  0.7561462E-02  0.1286865E+00
         -1   -1    0    0    0  501 -0.00000000000E+00  0.00000000000E+00  0.16594529348E+03  0.16594529348E+03  0.00000000000E+00 0.  1.
          1   -1    0    0  501    0  0.00000000000E+00 -0.00000000000E+00 -0.83121061263E+02  0.83121061263E+02  0.00000000000E+00 0. -1.
         23    2    1    2    0    0 -0.43327478225E+01 -0.46240166341E+02  0.30713149541E+02  0.10581608732E+03  0.89982337682E+02 0.  0.
          5    1    1    2  502    0 -0.44694986263E+02  0.35319858053E+02  0.69474392641E+02  0.89940523696E+02  0.41800000000E+01 0.  1.
         -5    1    1    2    0  502  0.49027734085E+02  0.10920308288E+02 -0.17363309968E+02  0.53309743722E+02  0.41800000000E+01 0.  1.
        -11    1    3    3    0    0 -0.36265995073E+02 -0.91241661509E+01 -0.13586136509E+02  0.39787635163E+02  0.00000000000E+00 0. -1.
         11    1    3    3    0    0  0.31933247251E+02 -0.37116000190E+02  0.44299286050E+02  0.66028452160E+02  0.00000000000E+00 0.  1.
</event>
<event>
 7    1  0.6145388E-006  0.9553835E+02  0.7561462E-02  0.1289968E+00
          1   -1    0    0  501    0  0.00000000000E+00  0.00000000000E+00  0.12037541650E+03  0.12037541650E+03  0.00000000000E+00 0. -1.
         -1   -1    0    0    0  501 -0.00000000000E+00 -0.00000000000E+00 -0.12484305399E+03  0.12484305399E+03  0.00000000000E+00 0.  1.
         23    2    1    2    0    0  0.50862813991E+02  0.19020551154E+02  0.15833663449E+02  0.10731928640E+03  0.91202615768E+02 0.  0.
          5    1    1    2  502    0  0.15855140329E+02 -0.27203976052E+02 -0.53955560525E+02  0.62610835320E+02  0.41800000000E+01 0.  1.
         -5    1    1    2    0  502 -0.66717954319E+02  0.81834248977E+01  0.33654259592E+02  0.75288348769E+02  0.41800000000E+01 0.  1.
        -11    1    3    3    0    0 -0.79390648521E+01 -0.19916576956E+02 -0.19011786121E+02  0.28655659125E+02  0.00000000000E+00 0.  1.
         11    1    3    3    0    0  0.58801878843E+02  0.38937128110E+02  0.34845449571E+02  0.78663627279E+02  0.00000000000E+00 0. -1.
</event>
<event>
 6    1  0.6145388E-006  0.1426157E+03  0.7561462E-02  0.1209852E+00
         -2   -1    0    0    0  501 -0.00000000000E+00  0.00000000000E+00  0.38035729537E+03  0.38035729537E+03  0.00000000000E+00 0.  1.
          2   -1    0    0  501    0  0.00000000000E+00 -0.00000000000E+00 -0.65739027438E+02  0.65739027438E+02  0.00000000000E+00 0. -1.
          5    1    1    2  502    0  0.19574693139E+02 -0.20747132208E+02  0.11848602877E+03  0.12194270589E+03  0.41800000000E+01 0. -1.
         -5    1    1    2    0  502 -0.33050314474E+02 -0.11450002665E+03  0.74910267230E+02  0.14082471348E+03  0.41800000000E+01 0.  1.
        -11    1    1    2    0    0  0.41835847099E+01  0.11257211774E+03  0.94152340501E+02  0.14681501046E+03  0.00000000000E+00 0. -1.
         11    1    1    2    0    0  0.92920366255E+01  0.22675041124E+02  0.27069631428E+02  0.36513892976E+02  0.00000000000E+00 0.  1.
</event>
<event>
 7    1  0.6145388E-006  0.1273543E+03  0.7561462E-02  0.1231435E+00
         -1   -1    0    0    0  501 -0.00000000000E+00  0.00000000000E+00  0.43610726785E+03  0.43610726785E+03  0.00000000000E+00 0.  1.
          1   -1    0    0  501    0  0.00000000000E+00 -0.00000000000E+00 -0.38215865865E+02  0.38215865865E+02  0.00000000000E+00 0. -1.
         23    2    1    2    0    0  0.48932122501E+02  0.54479789594E+02  0.17907035553E+03  0.21184979202E+03  0.86323473404E+02 0.  0.
          5    1    1    2  502    0 -0.52188658719E+02  0.27700207307E+02  0.64613798946E+02  0.87654851537E+02  0.41800000000E+01 0. -1.
         -5    1    1    2    0  502  0.32565362178E+01 -0.82179996900E+02  0.15420724751E+03  0.17481849016E+03  0.41800000000E+01 0. -1.
        -11    1    3    3    0    0  0.62107281690E+02  0.69459244774E+02  0.14450264761E+03  0.17193869922E+03  0.00000000000E+00 0.  1.
         11    1    3    3    0    0 -0.13175159189E+02 -0.14979455180E+02  0.34567707918E+02  0.39911092792E+02  0.00000000000E+00 0. -1.
</event>
<event>
 7    1  0.6145388E-006  0.1200383E+03  0.7561462E-02  0.1243034E+00
         -1   -1    0    0    0  501 -0.00000000000E+00  0.00000000000E+00  0.19613190749E+03  0.19613190749E+03  0.00000000000E+00 0.  1.
          1   -1    0    0  501    0  0.00000000000E+00 -0.00000000000E+00 -0.56286424085E+03  0.56286424085E+03  0.00000000000E+00 0. -1.
         23    2    1    2    0    0 -0.24652624372E+02  0.11847263090E+02 -0.49707401336E+03  0.50595699942E+03  0.90342686367E+02 0.  0.
          5    1    1    2  502    0 -0.15406999207E+02  0.60988289681E+02 -0.31929858077E+02  0.70667781482E+02  0.41800000000E+01 0. -1.
         -5    1    1    2    0  502  0.40059623579E+02 -0.72835552771E+02  0.16227153808E+03  0.18237136743E+03  0.41800000000E+01 0.  1.
        -11    1    3    3    0    0 -0.41490488465E+02 -0.28330423386E+02 -0.29415091150E+03  0.29841050963E+03  0.00000000000E+00 0. -1.
         11    1    3    3    0    0  0.16837864093E+02  0.40177686476E+02 -0.20292310186E+03  0.20754648979E+03  0.00000000000E+00 0.  1.
</event>
<event>
 7    1  0.6145388E-006  0.1259567E+03  0.7561462E-02  0.1233582E+00
         -2   -1    0    0    0  501 -0.00000000000E+00  0.00000000000E+00  0.38261584595E+02  0.38261584595E+02  0.00000000000E+00 0.  1.
          2   -1    0    0  501    0  0.00000000000E+00 -0.00000000000E+00 -0.49460227039E+03  0.49460227039E+03  0.00000000000E+00 0. -1.
         23    2    1    2    0    0 -0.48064338684E+02 -0.63845003085E+02 -0.25862037848E+03  0.28562287858E+03  0.91156807362E+02 0.  0.
          5    1    1    2  502    0  0.76761774291E+02  0.13595204333E+02 -0.62178226982E+02  0.99803826999E+02  0.41800000000E+01 0.  1.
         -5    1    1    2    0  502 -0.28697435607E+02  0.50249798752E+02 -0.13554208033E+03  0.14743714940E+03  0.41800000000E+01 0.  1.
        -11    1    3    3    0    0 -0.66935640475E+02 -0.22902987719E+02 -0.11427465864E+03  0.13440098370E+03  0.00000000000E+00 0.  1.
         11    1    3    3    0    0  0.18871301791E+02 -0.40942015366E+02 -0.14434571984E+03  0.15122189488E+03  0.00000000000E+00 0. -1.
</event>
<event>
 7    1  0.6145388E-006  0.1829280E+03  0.7561462E-02  0.1164999E+00
         -1   -1    0    0    0  501 -0.00000000000E+00  0.00000000000E+00  0.78239303524E+02  0.78239303524E+02  0.00000000000E+00 0.  1.
          1   -1    0    0  501    0  0.00000000000E+00 -0.00000000000E+00 -0.77775895859E+03  0.77775895859E+03  0.00000000000E+00 0. -1.
         23    2    1    2    0    0 -0.10428748711E+03 -0.12834339141E+03 -0.59305043580E+03  0.62290808330E+03  0.94645415951E+02 0.  0.
          5    1    1    2  502    0  0.37447237900E+02  0.91336647296E+02 -0.11994281923E+03  0.15539765458E+03  0.41800000000E+01 0. -1.
         -5    1    1    2    0  502  0.66840249210E+02  0.37006744117E+02  0.13473599959E+02  0.77692524225E+02  0.41800000000E+01 0. -1.
        -11    1    3    3    0    0  0.10349925999E+02 -0.51494798137E+02 -0.16514052875E+03  0.17329232366E+03  0.00000000000E+00 0.  1.
         11    1    3    3    0    0 -0.11463741311E+03 -0.76848593276E+02 -0.42790990705E+03  0.44961575965E+03  0.00000000000E+00 0. -1.
</event>
<event>
 7    1  0.6145388E-006  0.9749783E+02  0.7561462E-02  0.1285647E+00
         -4   -1    0    0    0  501 -0.00000000000E+00  0.00000000000E+00  0.11131476239E+04  0.11131476239E+04  0.00000000000E+00 0. -1.
          4   -1    0    0  501    0  0.00000000000E+00 -0.00000000000E+00 -0.13085640138E+02  0.13085640138E+02  0.00000000000E+00 0.  1.
         23    2    1    2    0    0 -0.28260612522E+02 -0.10869319979E+02  0.29183049998E+03  0.30781884933E+03  0.93116050978E+02 0.  0.
          5    1    1    2  502    0  0.45687042136E+02  0.41332646211E+02  0.72955719589E+03  0.73216587461E+03  0.41800000000E+01 0. -1.
         -5    1    1    2    0  502 -0.17426429615E+02 -0.30463326232E+02  0.78674287931E+02  0.86248540137E+02  0.41800000000E+01 0. -1.
        -11    1    3    3    0    0  0.28554115792E+02 -0.26520510934E+02  0.11362390978E+03  0.12012105521E+03  0.00000000000E+00 0.  1.
         11    1    3    3    0    0 -0.56814728313E+02  0.15651190956E+02  0.17820659019E+03  0.18769779413E+03  0.00000000000E+00 0. -1.
</event>
<event>
 7    1  0.6145388E-006  0.1143433E+03  0.7561462E-02  0.1252732E+00
         -2   -1    0    0    0  501 -0.00000000000E+00  0.00000000000E+00  0.11359998824E+03  0.11359998824E+03  0.00000000000E+00 0.  1.
          2   -1    0    0  501    0  0.00000000000E+00 -0.00000000000E+00 -0.15779440806E+03  0.15779440806E+03  0.00000000000E+00 0. -1.
         23    2    1    2    0    0  0.46981460881E+02 -0.43022212747E+02 -0.64853628047E+02  0.12950749981E+03  0.92238988396E+02 0.  0.
          5    1    1    2  502    0  0.17973236585E+02  0.59845331333E+02  0.36949463637E+02  0.72713383766E+02  0.41800000000E+01 0. -1.
         -5    1    1    2    0  502 -0.64954697466E+02 -0.16823118586E+02 -0.16290255412E+02  0.69173512729E+02  0.41800000000E+01 0. -1.
        -11    1    3    3    0    0  0.51782800338E+02  0.36528760672E+01 -0.64225931654E+02  0.82581912131E+02  0.00000000000E+00 0. -1.
         11    1    3    3    0    0 -0.48013394571E+01 -0.46675088814E+02 -0.62769639310E+00  0.46925587680E+02  0.00000000000E+00 0.  1.
</event>
<event>
 7    1  0.6145388E-006  0.8172066E+02  0.7561462E-02  0.1324238E+00
         -2   -1    0    0    0  501 -0.00000000000E+00  0.00000000000E+00  0.54719402722E+02  0.54719402722E+02  0.00000000000E+00 0.  1.
          2   -1    0    0  501    0  0.00000000000E+00 -0.00000000000E+00 -0.22955119080E+03  0.22955119080E+03  0.00000000000E+00 0. -1.
         23    2    1    2    0    0  0.52872720253E+01 -0.85656803908E+01 -0.11043855421E+03  0.14322080905E+03  0.90632222538E+02 0.  0.
          5    1    1    2  502    0  0.28194296307E+02 -0.30377938598E+02 -0.77407493994E+02  0.87904095605E+02  0.41800000000E+01 0.  1.
         -5    1    1    2    0  502 -0.33481568333E+02  0.38943618989E+02  0.13014260133E+02  0.53145688863E+02  0.41800000000E+01 0.  1.
        -11    1    3    3    0    0  0.28170384142E+02  0.19339514919E+02 -0.86837871854E+01  0.35256141875E+02  0.00000000000E+00 0.  1.
         11    1    3    3    0    0 -0.22883112116E+02 -0.27905195310E+02 -0.10175476703E+03  0.10796466718E+03  0.00000000000E+00 0. -1.
</event>
<event>
 7    1  0.6145388E-006  0.7892447E+02  0.7561462E-02  0.1332132E+00
         -2   -1    0    0    0  501 -0.00000000000E+00  0.00000000000E+00  0.14817427199E+03  0.14817427199E+03  0.00000000000E+00 0.  1.
          2   -1    0    0  501    0  0.00000000000E+00 -0.00000000000E+00 -0.86844591219E+02  0.86844591219E+02  0.00000000000E+00 0. -1.
         23    2    1    2    0    0  0.23437995770E+02 -0.19321920058E+02  0.18710227499E+02  0.99435204194E+02  0.92814928647E+02 0.  0.
          5    1    1    2  502    0  0.42951457684E+02  0.31959942780E+02 -0.32502023525E+01  0.53798716296E+02  0.41800000000E+01 0.  1.
         -5    1    1    2    0  502 -0.66389453454E+02 -0.12638022723E+02  0.45869655624E+02  0.81784942717E+02  0.41800000000E+01 0.  1.
        -11    1    3    3    0    0  0.15799017516E+01 -0.13803673431E+02  0.54991967636E+02  0.56719961162E+02  0.00000000000E+00 0.  1.
         11    1    3    3    0    0  0.21858094018E+02 -0.55182466263E+01 -0.36281740137E+02  0.42715243033E+02  0.00000000000E+00 0. -1.
</event>
<event>
 7    1  0.6145388E-006  0.6554044E+02  0.7561462E-02  0.1375950E+00
         -1   -1    0    0    0  501 -0.00000000000E+00  0.00000000000E+00  0.37990551539E+02  0.37990551539E+02  0.00000000000E+00 0.  1.
          1   -1    0    0  501    0  0.00000000000E+00 -0.00000000000E+00 -0.33966945977E+03  0.33966945977E+03  0.00000000000E+00 0. -1.
         23    2    1    2    0    0 -0.20623709587E+02  0.25381173181E+02 -0.15728238842E+03  0.18383678695E+03  0.89379377817E+02 0.  0.
          5    1    1    2  502    0  0.13784735336E+02 -0.25564244251E+02  0.15867598037E+02  0.33358695716E+02  0.41800000000E+01 0.  1.
         -5    1    1    2    0  502  0.68389742501E+01  0.18307107022E+00 -0.16026411785E+03  0.16046452864E+03  0.41800000000E+01 0.  1.
        -11    1    3    3    0    0 -0.47468072285E+00  0.56579337651E+02 -0.78790916934E+02  0.97002347199E+02  0.00000000000E+00 0.  1.
         11    1    3    3    0    0 -0.20149028864E+02 -0.31198164470E+02 -0.78491471487E+02  0.86834439750E+02  0.00000000000E+00 0. -1.
</event>
<event>
 7    1  0.6145388E-006  0.1693685E+03  0.7561462E-02  0.1178508E+00
          2   -1    0    0  501    0  0.00000000000E+00  0.00000000000E+00  0.63743306879E+03  0.63743306879E+03  0.00000000000E+00 0. -1.
         -2   -1    0    0    0  501 -0.00000000000E+00 -0.00000000000E+00 -0.68772715158E+02  0.68772715158E+02  0.00000000000E+00 0.  1.
         23    2    1    2    0    0  0.92672314808E+02 -0.10900674511E+02  0.43457821055E+03  0.45402909033E+03  0.92613234163E+02 0.  0.
          5    1    1    2  502    0  0.51407422507E+02 -0.27019775471E+02  0.66901185136E+02  0.88690655246E+02  0.41800000000E+01 0. -1.
         -5    1    1    2    0  502 -0.14407973731E+03  0.37920449982E+02  0.67180957941E+02  0.16348603837E+03  0.41800000000E+01 0.  1.
        -11    1    3    3    0    0 -0.44033345603E+01  0.26923994335E+02  0.91490080027E+02  0.95471071899E+02  0.00000000000E+00 0.  1.
         11    1    3    3    0    0  0.97075649368E+02 -0.37824668846E+02  0.34308813053E+03  0.35855801843E+03  0.00000000000E+00 0. -1.
</event>
<event>
 7    1  0.6145388E-006  0.1102698E+03  0.7561462E-02  0.1260071E+00
         -3   -1    0    0    0  501 -0.00000000000E+00  0.00000000000E+00  0.63170365334E+02  0.63170365334E+02  0.00000000000E+00 0.  1.
          3   -1    0    0  501    0  0.00000000000E+00 -0.00000000000E+00 -0.24037614744E+03  0.24037614744E+03  0.00000000000E+00 0. -1.
         23    2    1    2    0    0  0.59029993482E+02 -0.26260506332E+01 -0.79503894976E+02  0.13418108424E+03  0.90511092020E+02 0.  0.
          5    1    1    2  502    0 -0.59262271458E+02 -0.38821620477E+02 -0.10533623401E+03  0.12701310810E+03  0.41800000000E+01 0.  1.
         -5    1    1    2    0  502  0.23227797572E+00  0.41447671110E+02  0.76343468813E+01  0.42352320430E+02  0.41800000000E+01 0.  1.
        -11    1    3    3    0    0  0.26509507314E+02 -0.46364748565E+02 -0.43210533786E+02  0.68699302163E+02  0.00000000000E+00 0. -1.
         11    1    3    3    0    0  0.32520486168E+02  0.43738697932E+02 -0.36293361190E+02  0.65481782076E+02  0.00000000000E+00 0.  1.
</event>
<event>
 7    1  0.6145388E-006  0.1485170E+03  0.7561462E-02  0.1202307E+00
         -3   -1    0    0    0  501 -0.00000000000E+00  0.00000000000E+00  0.87391243938E+02  0.87391243938E+02  0.00000000000E+00 0.  1.
          3   -1    0    0  501    0  0.00000000000E+00 -0.00000000000E+00 -0.27687482764E+03  0.27687482764E+03  0.00000000000E+00 0. -1.
         23    2    1    2    0    0 -0.99287180942E+02  0.51976212404E+02 -0.91075368899E+02  0.16960689664E+03  0.88951141711E+02 0.  0.
          5    1    1    2  502    0  0.79357083132E+02  0.27276013588E+02 -0.34467339240E+02  0.90812980541E+02  0.41800000000E+01 0. -1.
         -5    1    1    2    0  502  0.19930097811E+02 -0.79252225992E+02 -0.63940875560E+02  0.10384619440E+03  0.41800000000E+01 0. -1.
        -11    1    3    3    0    0 -0.50073534238E+02 -0.10997135940E+02 -0.70336346927E+02  0.87037334111E+02  0.00000000000E+00 0.  1.
         11    1    3    3    0    0 -0.49213646704E+02  0.62973348344E+02 -0.20739021972E+02  0.82569562528E+02  0.00000000000E+00 0. -1.
</event>
<event>
 7    1  0.6664927E-006  0.3024336E+03  0.7561462E-02  0.1084030E+00
          2   -1    0    0  501    0  0.00000000000E+00  0.00000000000E+00  0.19283106764E+04  0.19283106764E+04  0.00000000000E+00 0. -1.
         -2   -1    0    0    0  501 -0.00000000000E+00 -0.00000000000E+00 -0.56902732021E+02  0.56902732021E+02  0.00000000000E+00 0.  1.
         23    2    1    2    0    0 -0.28801015442E+03 -0.46453723220E+02  0.12176501345E+04  0.12584710330E+04  0.12637125205E+03 0.  0.
          5    1    1    2  502    0  0.20197210631E+03  0.28578264485E+02  0.56943305953E+03  0.60488092268E+03  0.41800000000E+01 0.  1.
         -5    1    1    2    0  502  0.86038048111E+02  0.17875458735E+02  0.84324750323E+02  0.12186145274E+03  0.41800000000E+01 0.  1.
        -11    1    3    3    0    0 -0.22382571600E+03 -0.83339043407E+02  0.10150386518E+04  0.10427592301E+04  0.00000000000E+00 0. -1.
         11    1    3    3    0    0 -0.64184438420E+02  0.36885320187E+02  0.20261148267E+03  0.21571180285E+03  0.00000000000E+00 0.  1.
</event>
<event>
 7    1  0.6145388E-006  0.1293870E+03  0.7561462E-02  0.1228368E+00
          1   -1    0    0  501    0  0.00000000000E+00  0.00000000000E+00  0.17583835386E+02  0.17583835386E+02  0.00000000000E+00 0. -1.
         -1   -1    0    0    0  501 -0.00000000000E+00 -0.00000000000E+00 -0.10730824990E+04  0.10730824990E+04  0.00000000000E+00 0.  1.
         23    2    1    2    0    0  0.19624739163E+02  0.72184476705E+02 -0.31935411056E+03  0.34023216474E+03  0.90416530203E+02 0.  0.
          5    1    1    2  502    0  0.41502214971E+02  0.83427420487E+01 -0.27907075662E+03  0.28229416358E+03  0.41800000000E+01 0. -1.
         -5    1    1    2    0  502 -0.61126954134E+02 -0.80527218754E+02 -0.45707379646E+03  0.46814000608E+03  0.41800000000E+01 0. -1.
        -11    1    3    3    0    0  0.38619639474E+02 -0.18039995530E+01 -0.14108423226E+03  0.14628565056E+03  0.00000000000E+00 0.  1.
         11    1    3    3    0    0 -0.18994900311E+02  0.73988476258E+02 -0.17826987830E+03  0.19394651418E+03  0.00000000000E+00 0. -1.
</event>
<event>
 7    1  0.6145388E-006  0.1210924E+03  0.7561462E-02  0.1241306E+00
          1   -1    0    0  501    0  0.00000000000E+00  0.00000000000E+00  0.16328104310E+03  0.16328104310E+03  0.00000000000E+00 0. -1.
         -1   -1    0    0    0  501 -0.00000000000E+00 -0.00000000000E+00 -0.11384255922E+03  0.11384255922E+03  0.00000000000E+00 0.  1.
         23    2    1    2    0    0 -0.42224529445E+02 -0.68612995119E+02  0.28472139665E+02  0.12686760138E+03  0.93776711166E+02 0.  0.
          5    1    1    2  502    0 -0.35021052474E+02  0.31305675648E+02  0.40517026779E+02  0.62174120847E+02  0.41800000000E+01 0.  1.
         -5    1    1    2    0  502  0.77245581919E+02  0.37307319472E+02 -0.19550682564E+02  0.88081880094E+02  0.41800000000E+01 0.  1.
        -11    1    3    3    0    0  0.72496074900E+01 -0.58114607227E+02 -0.14688456870E+02  0.60378929662E+02  0.00000000000E+00 0.  1.
         11    1    3    3    0    0 -0.49474136935E+02 -0.10498387892E+02  0.43160596535E+02  0.66488671719E+02  0.00000000000E+00 0. -1.
</event>
<event>
 7    1  0.6145388E-006  0.7622483E+02  0.7561462E-02  0.1340120E+00
          2   -1    0    0  501    0  0.00000000000E+00  0.00000000000E+00  0.20167084835E+03  0.20167084835E+03  0.00000000000E+00 0. -1.
         -2   -1    0    0    0  501 -0.00000000000E+00 -0.00000000000E+00 -0.74625678728E+02  0.74625678728E+02  0.00000000000E+00 0.  1.
         23    2    1    2    0    0  0.52057217171E+00  0.46519835530E+02  0.93936678655E+02  0.13879034257E+03  0.90963143640E+02 0.  0.
          5    1    1    2  502    0 -0.12223877857E+02 -0.39049212836E+02  0.79169766678E+02  0.89216526321E+02  0.41800000000E+01 0.  1.
         -5    1    1    2    0  502  0.11703305686E+02 -0.74706226945E+01 -0.46061275712E+02  0.48289658185E+02  0.41800000000E+01 0.  1.
        -11    1    3    3    0    0  0.40799337884E+02  0.37775469137E+02  0.31292480205E+02  0.63802753528E+02  0.00000000000E+00 0.  1.
         11    1    3    3    0    0 -0.40278765713E+02  0.87443663929E+01  0.62644198450E+02  0.74987589043E+02  0.00000000000E+00 0. -1.
</event>
<event>
 7    1  0.6145388E-006  0.1021362E+03  0.7561462E-02  0.1275867E+00
         -1   -1    0    0    0  501 -0.00000000000E+00  0.00000000000E+00  0.30016881991E+02  0.30016881991E+02  0.00000000000E+00 0.  1.
          1   -1    0    0  501    0  0.00000000000E+00 -0.00000000000E+00 -0.43153589333E+03  0.43153589333E+03  0.00000000000E+00 0. -1.
         23    2    1    2    0    0  0.10140786353E+02 -0.25805267130E+02 -0.20526778779E+03  0.22717697785E+03  0.93304700867E+02 0.  0.
          5    1    1    2  502    0  0.29515813797E+02 -0.28193477628E+02 -0.14277030701E+03  0.14854927939E+03  0.41800000000E+01 0. -1.
         -5    1    1    2    0  502 -0.39656600149E+02  0.53998744758E+02 -0.53480916546E+02  0.85826518078E+02  0.41800000000E+01 0. -1.
        -11    1    3    3    0    0  0.13394738445E+02 -0.60146516512E+02 -0.11364374748E+03  0.12927460620E+03  0.00000000000E+00 0.  1.
         11    1    3    3    0    0 -0.32539520927E+01  0.34341249382E+02 -0.91624040303E+02  0.97902371651E+02  0.00000000000E+00 0. -1.
</event>
<event>
 7    1  0.6145388E-006  0.1125897E+03  0.7561462E-02  0.1255848E+00
         -1   -1    0    0    0  501 -0.00000000000E+00  0.00000000000E+00  0.28320349367E+03  0.28320349367E+03  0.00000000000E+00 0.  1.
          1   -1    0    0  501    0  0.00000000000E+00 -0.00000000000E+00 -0.53814740368E+02  0.53814740368E+02  0.00000000000E+00 0. -1.
         23    2    1    2    0    0  0.13085101072E+02 -0.40274143266E+02  0.46477803272E+02  0.11142259734E+03  0.91986860557E+02 0.  0.
          5    1    1    2  502    0 -0.64961745448E+02  0.27589016200E+02  0.14044458561E+03  0.15723656131E+03  0.41800000000E+01 0. -1.
         -5    1    1    2    0  502  0.51876644375E+02  0.12685127066E+02  0.42466364422E+02  0.68359075385E+02  0.41800000000E+01 0. -1.
        -11    1    3    3    0    0 -0.31348465352E+02  0.10851726414E+02  0.19723710651E+02  0.38594183602E+02  0.00000000000E+00 0.  1.
         11    1    3    3    0    0  0.44433566424E+02 -0.51125869679E+02  0.26754092621E+02  0.72828413738E+02  0.00000000000E+00 0. -1.
</event>
<event>
 7    1  0.6145388E-006  0.9591029E+02  0.7561462E-02  0.1289139E+00
          1   -1    0    0  501    0  0.00000000000E+00  0.00000000000E+00  0.14663780740E+03  0.14663780740E+03  0.00000000000E+00 0. -1.
         -1   -1    0    0    0  501 -0.00000000000E+00 -0.00000000000E+00 -0.11887819214E+03  0.11887819214E+03  0.00000000000E+00 0.  1.
         23    2    1    2    0    0  0.31560674689E+01 -0.25200914782E+02  0.81383540023E+02  0.12706612010E+03  0.94220334441E+02 0.  0.
          5    1    1    2  502    0 -0.39671264806E+02 -0.32481136476E+02 -0.47092502204E+02  0.69742452222E+02  0.41800000000E+01 0. -1.
         -5    1    1    2    0  502  0.36515197338E+02  0.57682051258E+02 -0.65314225628E+01  0.68707427216E+02  0.41800000000E+01 0. -1.
        -11    1    3    3    0    0 -0.31371931082E+02 -0.44172722088E+01 -0.46885182080E+01  0.32026435277E+02  0.00000000000E+00 0.  1.
         11    1    3    3    0    0  0.34527998551E+02 -0.20783642573E+02  0.86072058231E+02  0.95039684820E+02  0.00000000000E+00 0. -1.
</event>
<event>
 7    1  0.6145388E-006  0.8928878E+02  0.7561462E-02  0.1304583E+00
          1   -1    0    0  501    0  0.00000000000E+00  0.00000000000E+00  0.29361449009E+03  0.29361449009E+03  0.00000000000E+00 0. -1.
         -1   -1    0    0    0  501 -0.00000000000E+00 -0.00000000000E+00 -0.42803093552E+02  0.42803093552E+02  0.00000000000E+00 0.  1.
         23    2    1    2    0    0 -0.68815279599E+01 -0.20428487189E+02  0.13974153345E+03  0.16775022022E+03  0.90264952759E+02 0.  0.
          5    1    1    2  502    0 -0.52885123347E+02 -0.33505610443E+01  0.19361913813E+02  0.56572242640E+02  0.41800000000E+01 0. -1.
         -5    1    1    2    0  502  0.59766651307E+02  0.23779048234E+02  0.91707949283E+02  0.11209512079E+03  0.41800000000E+01 0. -1.
        -11    1    3    3    0    0 -0.28299188890E+02 -0.26428093670E+02  0.14025546037E+03  0.14550217314E+03  0.00000000000E+00 0. -1.
         11    1    3    3    0    0  0.21417660930E+02  0.59996064810E+01 -0.51392692059E+00  0.22248047072E+02  0.00000000000E+00 0.  1.
</event>
<event>
 7    1  0.6145388E-006  0.1883815E+03  0.7561462E-02  0.1159929E+00
         -1   -1    0    0    0  501 -0.00000000000E+00  0.00000000000E+00  0.39023502521E+03  0.39023502521E+03  0.00000000000E+00 0.  1.
          1   -1    0    0  501    0  0.00000000000E+00 -0.00000000000E+00 -0.12542872800E+03  0.12542872800E+03  0.00000000000E+00 0. -1.
         23    2    1    2    0    0  0.14502674300E+03 -0.99272216291E+02  0.35919011229E+02  0.20114002845E+03  0.90991244429E+02 0.  0.
          5    1    1    2  502    0 -0.12482188001E+03  0.29604372453E+02  0.19711781044E+03  0.23522292446E+03  0.41800000000E+01 0. -1.
         -5    1    1    2    0  502 -0.20204862997E+02  0.69667843838E+02  0.31769475529E+02  0.79300800306E+02  0.41800000000E+01 0. -1.
        -11    1    3    3    0    0  0.97159329236E+01 -0.69355920127E+01  0.35364547788E+02  0.37324965229E+02  0.00000000000E+00 0.  1.
         11    1    3    3    0    0  0.13531081008E+03 -0.92336624278E+02  0.55446344092E+00  0.16381506322E+03  0.00000000000E+00 0. -1.
</event>
<event>
 7    1  0.6145388E-006  0.1304927E+03  0.7561462E-02  0.1226726E+00
          1   -1    0    0  501    0  0.00000000000E+00  0.00000000000E+00  0.59989358957E+02  0.59989358957E+02  0.00000000000E+00 0. -1.
         -1   -1    0    0    0  501 -0.00000000000E+00 -0.00000000000E+00 -0.64233259661E+03  0.64233259661E+03  0.00000000000E+00 0.  1.
         23    2    1    2    0    0  0.10188113191E+02  0.11183181261E+03 -0.67001743538E+02  0.16025817114E+03  0.92646078266E+02 0.  0.
          5    1    1    2  502    0  0.32247895062E+02 -0.58374014381E+02 -0.41678819725E+03  0.42211056142E+03  0.41800000000E+01 0. -1.
         -5    1    1    2    0  502 -0.42436008253E+02 -0.53457798229E+02 -0.98553296864E+02  0.11995322301E+03  0.41800000000E+01 0. -1.
        -11    1    3    3    0    0  0.28373284106E+02  0.27498441167E+02  0.14000186672E+02  0.41919121465E+02  0.00000000000E+00 0. -1.
         11    1    3    3    0    0 -0.18185170915E+02  0.84333371443E+02 -0.81001930210E+02  0.11833904967E+03  0.00000000000E+00 0.  1.
</event>
<event>
 7    1  0.6145388E-006  0.8925787E+02  0.7561462E-02  0.1304659E+00
         -1   -1    0    0    0  501 -0.00000000000E+00  0.00000000000E+00  0.26038668918E+03  0.26038668918E+03  0.00000000000E+00 0.  1.
          1   -1    0    0  501    0  0.00000000000E+00 -0.00000000000E+00 -0.11646640830E+03  0.11646640830E+03  0.00000000000E+00 0. -1.
         23    2    1    2    0    0 -0.20197992892E+02  0.32387000018E+02 -0.73362716541E+02  0.12324608200E+03  0.91381791751E+02 0.  0.
          5    1    1    2  502    0 -0.26790449716E+02  0.37374406600E+02  0.86574886193E+02  0.98118590410E+02  0.41800000000E+01 0.  1.
         -5    1    1    2    0  502  0.46988442608E+02 -0.69761406618E+02  0.13070811122E+03  0.15548842507E+03  0.41800000000E+01 0.  1.
        -11    1    3    3    0    0  0.43863311629E+01  0.20232618353E+02 -0.89204031753E+02  0.91574876617E+02  0.00000000000E+00 0. -1.
         11    1    3    3    0    0 -0.24584324055E+02  0.12154381665E+02  0.15841315212E+02  0.31671205385E+02  0.00000000000E+00 0.  1.
</event>
<event>
 7    1  0.6145388E-006  0.9047326E+02  0.7561462E-02  0.1301710E+00
          2   -1    0    0  501    0  0.00000000000E+00  0.00000000000E+00  0.19964455106E+03  0.19964455106E+03  0.00000000000E+00 0. -1.
         -2   -1    0    0    0  501 -0.00000000000E+00 -0.00000000000E+00 -0.72087458071E+02  0.72087458071E+02  0.00000000000E+00 0.  1.
         23    2    1    2    0    0 -0.24609767231E+01  0.44253801759E+02  0.11539104030E+03  0.13846385394E+03  0.62391436020E+02 0.  0.
          5    1    1    2  502    0 -0.31805517030E+02 -0.75926154742E+02 -0.68461691644E+01  0.82708610916E+02  0.41800000000E+01 0. -1.
         -5    1    1    2    0  502  0.34266493753E+02  0.31672352983E+02  0.19012221847E+02  0.50559544274E+02  0.41800000000E+01 0. -1.
        -11    1    3    3    0    0 -0.12885685206E+02  0.36421862746E+02  0.11885187582E+03  0.12497344260E+03  0.00000000000E+00 0. -1.
         11    1    3    3    0    0  0.10424708483E+02  0.78319390135E+01 -0.34608355162E+01  0.13490411340E+02  0.00000000000E+00 0.  1.
</event>
<event>
 7    1  0.6145388E-006  0.1264997E+03  0.7561462E-02  0.1232744E+00
          2   -1    0    0  501    0  0.00000000000E+00  0.00000000000E+00  0.84395014598E+03  0.84395014598E+03  0.00000000000E+00 0. -1.
         -2   -1    0    0    0  501 -0.00000000000E+00 -0.00000000000E+00 -0.28984552202E+02  0.28984552202E+02  0.00000000000E+00 0.  1.
         23    2    1    2    0    0  0.10929719234E+03  0.10733763284E+02  0.44354261833E+03  0.46591634801E+03  0.91032407087E+02 0.  0.
          5    1    1    2  502    0 -0.74298113951E+02 -0.15764419958E+02  0.36238735022E+03  0.37028474270E+03  0.41800000000E+01 0. -1.
         -5    1    1    2    0  502 -0.34999078388E+02  0.50306566737E+01  0.90356252195E+01  0.36733607469E+02  0.41800000000E+01 0. -1.
        -11    1    3    3    0    0  0.10858290007E+03 -0.20148806596E+02  0.37053341169E+03  0.38664095719E+03  0.00000000000E+00 0.  1.
         11    1    3    3    0    0  0.71429226427E+00  0.30882569880E+02  0.73009206643E+02  0.79275390825E+02  0.00000000000E+00 0. -1.
</event>
<event>
 7    1  0.6145388E-006  0.1013691E+03  0.7561462E-02  0.1277443E+00
         -2   -1    0    0    0  501 -0.00000000000E+00  0.00000000000E+00  0.19252835762E+03  0.19252835762E+03  0.00000000000E+00 0.  1.
          2   -1    0    0  501    0  0.00000000000E+00 -0.00000000000E+00 -0.94889050015E+02  0.94889050015E+02  0.00000000000E+00 0. -1.
         23    2    1    2    0    0  0.32553844934E+02  0.67988104932E+02  0.15439576716E+02  0.11982320228E+03  0.91853601145E+02 0.  0.
          5    1    1    2  502    0 -0.69078095256E+02 -0.33980515994E+02  0.72286211443E+01  0.77435031317E+02  0.41800000000E+01 0. -1.
         -5    1    1    2    0  502  0.36524250322E+02 -0.34007588938E+02  0.74971109747E+02  0.90159174040E+02  0.41800000000E+01 0. -1.
        -11    1    3    3    0    0  0.14827722656E+02  0.25073146619E+02 -0.38739941363E+02  0.48469651302E+02  0.00000000000E+00 0. -1.
         11    1    3    3    0    0  0.17726122278E+02  0.42914958312E+02  0.54179518079E+02  0.71353550978E+02  0.00000000000E+00 0.  1.
</event>
<event>
 7    1  0.6145388E-006  0.1163087E+03  0.7561462E-02  0.1249314E+00
          1   -1    0    0  501    0  0.00000000000E+00  0.00000000000E+00  0.73097862886E+02  0.73097862886E+02  0.00000000000E+00 0. -1.
         -1   -1    0    0    0  501 -0.00000000000E+00 -0.00000000000E+00 -0.24934655529E+03  0.24934655529E+03  0.00000000000E+00 0.  1.
         23    2    1    2    0    0 -0.44812091896E+02  0.50979970803E+02 -0.29208217953E+02  0.11781318666E+03  0.91759173666E+02 0.  0.
          5    1    1    2  502    0 -0.29870055947E+02 -0.57045354299E+02 -0.88120113245E+02  0.10922005058E+03  0.41800000000E+01 0. -1.
         -5    1    1    2    0  502  0.74682147843E+02  0.60653834965E+01 -0.58920361202E+02  0.95411180936E+02  0.41800000000E+01 0. -1.
        -11    1    3    3    0    0 -0.60589786865E+02  0.47241651792E+02 -0.49834152312E+02  0.91576954923E+02  0.00000000000E+00 0.  1.
         11    1    3    3    0    0  0.15777694969E+02  0.37383190111E+01  0.20625934359E+02  0.26236231737E+02  0.00000000000E+00 0. -1.
</event>
<event>
 7    1  0.6145388E-006  0.7326668E+02  0.7561462E-02  0.1349324E+00
          3   -1    0    0  501    0  0.00000000000E+00  0.00000000000E+00  0.18966787028E+03  0.18966787028E+03  0.00000000000E+00 0. -1.
         -3   -1    0    0    0  501 -0.00000000000E+00 -0.00000000000E+00 -0.71883380649E+02  0.71883380649E+02  0.00000000000E+00 0.  1.
         23    2    1    2    0    0  0.12427397218E+02 -0.40637468884E+02  0.65343998315E+02  0.11941247151E+03  0.90463562601E+02 0.  0.
          5    1    1    2  502    0  0.46503053692E+01  0.96359879494E+01  0.89785007618E+02  0.90516835985E+02  0.41800000000E+01 0.  1.
         -5    1    1    2    0  502 -0.17077702588E+02  0.31001480934E+02 -0.37344516301E+02  0.51621943431E+02  0.41800000000E+01 0.  1.
        -11    1    3    3    0    0 -0.34741951420E+02  0.33582489234E+01  0.28975035738E+02  0.45363352173E+02  0.00000000000E+00 0.  1.
         11    1    3    3    0    0  0.47169348638E+02 -0.43995717807E+02  0.36368962576E+02  0.74049119341E+02  0.00000000000E+00 0. -1.
</event>
<event>
 7    1  0.6145388E-006  0.8571070E+02  0.7561462E-02  0.1313584E+00
          2   -1    0    0  501    0  0.00000000000E+00  0.00000000000E+00  0.22495620911E+03  0.22495620911E+03  0.00000000000E+00 0. -1.
         -2   -1    0    0    0  501 -0.00000000000E+00 -0.00000000000E+00 -0.60077090252E+02  0.60077090252E+02  0.00000000000E+00 0.  1.
         23    2    1    2    0    0  0.25795345188E+02 -0.38655945961E+02  0.98833562469E+02  0.13613987703E+03  0.81279216622E+02 0.  0.
          5    1    1    2  502    0 -0.33390302022E+02  0.57786171211E+02 -0.12116177574E+02  0.67959017146E+02  0.41800000000E+01 0. -1.
         -5    1    1    2    0  502  0.75949568343E+01 -0.19130225251E+02  0.78161733965E+02  0.80934405192E+02  0.41800000000E+01 0. -1.
        -11    1    3    3    0    0 -0.24065905611E+02 -0.10197708436E+02  0.57293388607E+01  0.26757922079E+02  0.00000000000E+00 0.  1.
         11    1    3    3    0    0  0.49861250798E+02 -0.28458237525E+02  0.93104223609E+02  0.10938195495E+03  0.00000000000E+00 0. -1.
</event>
<event>
 7    1  0.6145388E-006  0.8368077E+02  0.7561462E-02  0.1318919E+00
          2   -1    0    0  501    0  0.00000000000E+00  0.00000000000E+00  0.18433699593E+03  0.18433699593E+03  0.00000000000E+00 0.  1.
         -2   -1    0    0    0  501 -0.00000000000E+00 -0.00000000000E+00 -0.15134900708E+03  0.15134900708E+03  0.00000000000E+00 0. -1.
         23    2    1    2    0    0  0.32728477533E+02 -0.37567970569E+01  0.13802563280E+03  0.16905726658E+03  0.91891334241E+02 0.  0.
          5    1    1    2  502    0  0.63753792742E+01 -0.24788430098E+02 -0.11426061811E+03  0.11716685956E+03  0.41800000000E+01 0. -1.
         -5    1    1    2    0  502 -0.39103856807E+02  0.28545227155E+02  0.92229741657E+01  0.49461876865E+02  0.41800000000E+01 0. -1.
        -11    1    3    3    0    0 -0.23491282249E+02 -0.23518655344E+02  0.76466783570E+02  0.83379472776E+02  0.00000000000E+00 0.  1.
         11    1    3    3    0    0  0.56219759782E+02  0.19761858287E+02  0.61558849228E+02  0.85677793804E+02  0.00000000000E+00 0. -1.
</event>
<event>
 7    1  0.6145388E-006  0.1208010E+03  0.7561462E-02  0.1241782E+00
          1   -1    0    0  501    0  0.00000000000E+00  0.00000000000E+00  0.23079772648E+03  0.23079772648E+03  0.00000000000E+00 0. -1.
         -1   -1    0    0    0  501 -0.00000000000E+00 -0.00000000000E+00 -0.39127057751E+03  0.39127057751E+03  0.00000000000E+00 0.  1.
         23    2    1    2    0    0  0.66837007040E+02 -0.16375537151E+02  0.20413642808E+03  0.23216970962E+03  0.86577994135E+02 0.  0.
          5    1    1    2  502    0  0.20547506632E+02  0.36365804282E+02 -0.67093509124E+02  0.79143433818E+02  0.41800000000E+01 0.  1.
         -5    1    1    2    0  502 -0.87384513673E+02 -0.19990267131E+02 -0.29751577000E+03  0.31075516055E+03  0.41800000000E+01 0.  1.
        -11    1    3    3    0    0  0.25651785125E+02  0.35405932327E+02  0.94344812625E+02  0.10398335344E+03  0.00000000000E+00 0. -1.
         11    1    3    3    0    0  0.41185221916E+02 -0.51781469478E+02  0.10979161546E+03  0.12818635618E+03  0.00000000000E+00 0.  1.
</event>
<event>
 7    1  0.6145388E-006  0.1947836E+03  0.7561462E-02  0.1154216E+00
          1   -1    0    0  501    0  0.00000000000E+00  0.00000000000E+00  0.71518753107E+03  0.71518753107E+03  0.00000000000E+00 0.  1.
         -1   -1    0    0    0  501 -0.00000000000E+00 -0.00000000000E+00 -0.64802683018E+02  0.64802683018E+02  0.00000000000E+00 0. -1.
         23    2    1    2    0    0 -0.82056833021E+02  0.15515191658E+03  0.42617187124E+03  0.46898557328E+03  0.86715414073E+02 0.  0.
          5    1    1    2  502    0  0.72065467190E+02 -0.43661988313E+02  0.16255074888E+03  0.18313934352E+03  0.41800000000E+01 0.  1.
         -5    1    1    2    0  502  0.99913658308E+01 -0.11148992827E+03  0.61662227929E+02  0.12786529729E+03  0.41800000000E+01 0.  1.
        -11    1    3    3    0    0 -0.20282216068E+02  0.12082850838E+03  0.23219531147E+03  0.26253677722E+03  0.00000000000E+00 0.  1.
         11    1    3    3    0    0 -0.61774616953E+02  0.34323408203E+02  0.19397655978E+03  0.20644879606E+03  0.00000000000E+00 0. -1.
</event>
<event>
 7    1  0.6145388E-006  0.1045004E+03  0.7561462E-02  0.1271107E+00
         -1   -1    0    0    0  501 -0.00000000000E+00  0.00000000000E+00  0.18204547742E+02  0.18204547742E+02  0.00000000000E+00 0. -1.
          1   -1    0    0  501    0  0.00000000000E+00 -0.00000000000E+00 -0.79835844790E+03  0.79835844790E+03  0.00000000000E+00 0.  1.
         23    2    1    2    0    0  0.24558874916E+02 -0.51749000832E+02 -0.35898812522E+03  0.37349615663E+03  0.85707686625E+02 0.  0.
          5    1    1    2  502    0 -0.32501118692E+02  0.76158298077E+02 -0.15630746462E+03  0.17693474780E+03  0.41800000000E+01 0. -1.
         -5    1    1    2    0  502  0.79422437757E+01 -0.24409297244E+02 -0.26485831032E+03  0.26613209121E+03  0.41800000000E+01 0. -1.
        -11    1    3    3    0    0  0.51777130596E+02 -0.14164180745E+02 -0.14716314042E+03  0.15664764655E+03  0.00000000000E+00 0.  1.
         11    1    3    3    0    0 -0.27218255680E+02 -0.37584820087E+02 -0.21182498480E+03  0.21684851009E+03  0.00000000000E+00 0. -1.
</event>
<event>
 7    1  0.6145388E-006  0.1169594E+03  0.7561462E-02  0.1248199E+00
         -1   -1    0    0    0  501 -0.00000000000E+00  0.00000000000E+00  0.14211618104E+02  0.14211618104E+02  0.00000000000E+00 0.  1.
          1   -1    0    0  501    0  0.00000000000E+00 -0.00000000000E+00 -0.10341497545E+04  0.10341497545E+04  0.00000000000E+00 0. -1.
         23    2    1    2    0    0 -0.26434473450E+02  0.46724188432E+02 -0.45775400721E+03  0.46993293449E+03  0.91740398047E+02 0.  0.
          5    1    1    2  502    0  0.64644884971E+02  0.75792544391E+01 -0.20581231571E+03  0.21589948575E+03  0.41800000000E+01 0.  1.
         -5    1    1    2    0  502 -0.38210411520E+02 -0.54303442871E+02 -0.35637181344E+03  0.36252895232E+03  0.41800000000E+01 0.  1.
        -11    1    3    3    0    0  0.16182003855E+02  0.56221708440E+02 -0.32379798965E+03  0.32904084222E+03  0.00000000000E+00 0.  1.
         11    1    3    3    0    0 -0.42616477305E+02 -0.94975200081E+01 -0.13395601756E+03  0.14089209227E+03  0.00000000000E+00 0. -1.
</event>
<event>
 7    1  0.6145388E-006  0.1048457E+03  0.7561462E-02  0.1270424E+00
         -1   -1    0    0    0  501 -0.00000000000E+00  0.00000000000E+00  0.75723835194E+03  0.75723835194E+03  0.00000000000E+00 0.  1.
          1   -1    0    0  501    0  0.00000000000E+00 -0.00000000000E+00 -0.15873833117E+02  0.15873833117E+02  0.00000000000E+00 0. -1.
         23    2    1    2    0    0 -0.12971838349E+02 -0.86483552809E+01  0.32608388722E+03  0.33911981399E+03  0.91806775893E+02 0.  0.
          5    1    1    2  502    0 -0.18730979966E+02 -0.48304143112E+02  0.10812930453E+03  0.11997315846E+03  0.41800000000E+01 0. -1.
         -5    1    1    2    0  502  0.31702818315E+02  0.56952498393E+02  0.30715132707E+03  0.31401921260E+03  0.41800000000E+01 0. -1.
        -11    1    3    3    0    0 -0.32770523138E+02 -0.42206859105E+02  0.20900516408E+03  0.21572780246E+03  0.00000000000E+00 0. -1.
         11    1    3    3    0    0  0.19798684789E+02  0.33558503824E+02  0.11707872314E+03  0.12339201154E+03  0.00000000000E+00 0.  1.
</event>
<event>
 7    1  0.6145388E-006  0.1530515E+03  0.7561462E-02  0.1196773E+00
         -2   -1    0    0    0  501 -0.00000000000E+00  0.00000000000E+00  0.21996799226E+03  0.21996799226E+03  0.00000000000E+00 0.  1.
          2   -1    0    0  501    0  0.00000000000E+00 -0.00000000000E+00 -0.13015816636E+03  0.13015816636E+03  0.00000000000E+00 0. -1.
         23    2    1    2    0    0  0.51770037854E+02 -0.11351259334E+03  0.51130652939E+01  0.15420081329E+03  0.90479288878E+02 0.  0.
          5    1    1    2  502    0 -0.92300571323E+02  0.68488996892E+02  0.45699036518E+02  0.12375787854E+03  0.41800000000E+01 0.  1.
         -5    1    1    2    0  502  0.40530533469E+02  0.45023596444E+02  0.38997724089E+02  0.72167466799E+02  0.41800000000E+01 0.  1.
        -11    1    3    3    0    0  0.35280002213E+02 -0.10695281262E+03  0.36292361256E+02  0.11832463045E+03  0.00000000000E+00 0.  1.
         11    1    3    3    0    0  0.16490035641E+02 -0.65597807111E+01 -0.31179295963E+02  0.35876182840E+02  0.00000000000E+00 0. -1.
</event>
<event>
 6    1  0.6145388E-006  0.1379546E+03  0.7561462E-02  0.1216108E+00
         -2   -1    0    0    0  501 -0.00000000000E+00  0.00000000000E+00  0.26319496421E+03  0.26319496421E+03  0.00000000000E+00 0.  1.
          2   -1    0    0  501    0  0.00000000000E+00 -0.00000000000E+00 -0.13835209035E+03  0.13835209035E+03  0.00000000000E+00 0. -1.
          5    1    1    2  502    0 -0.12075191714E+02  0.15071465300E+01  0.61856726966E+02  0.63180763026E+02  0.41800000000E+01 0.  1.
         -5    1    1    2    0  502  0.13453595177E+03  0.26474845592E+02  0.47794553999E+02  0.14526744839E+03  0.41800000000E+01 0.  1.
        -11    1    1    2    0    0 -0.50379617324E+02 -0.75552816926E+01  0.79461615907E+02  0.94389281837E+02  0.00000000000E+00 0.  1.
         11    1    1    2    0    0 -0.72081142736E+02 -0.20426710430E+02 -0.64270023007E+02  0.98709561312E+02  0.00000000000E+00 0. -1.
</event>
<event>
 7    1  0.6145388E-006  0.1496705E+03  0.7561462E-02  0.1200878E+00
          2   -1    0    0  501    0  0.00000000000E+00  0.00000000000E+00  0.51863415724E+02  0.51863415724E+02  0.00000000000E+00 0. -1.
         -2   -1    0    0    0  501 -0.00000000000E+00 -0.00000000000E+00 -0.45059641446E+03  0.45059641446E+03  0.00000000000E+00 0.  1.
         23    2    1    2    0    0  0.78937966293E+01 -0.10766631467E+03 -0.14713739266E+03  0.20145915313E+03  0.85334815417E+02 0.  0.
          5    1    1    2  502    0 -0.13873706180E+02  0.13433184655E+03 -0.22609862601E+03  0.26339245586E+03  0.41800000000E+01 0.  1.
         -5    1    1    2    0  502  0.59799095503E+01 -0.26665531877E+02 -0.25496980066E+02  0.37608221189E+02  0.41800000000E+01 0.  1.
        -11    1    3    3    0    0  0.44219985011E+02 -0.39270478562E+02 -0.51692768503E+02  0.78547564421E+02  0.00000000000E+00 0.  1.
         11    1    3    3    0    0 -0.36326188382E+02 -0.68395836110E+02 -0.95444624157E+02  0.12291158871E+03  0.00000000000E+00 0. -1.
</event>
<event>
 7    1  0.6145388E-006  0.2063277E+03  0.7561462E-02  0.1144508E+00
          1   -1    0    0  501    0  0.00000000000E+00  0.00000000000E+00  0.19949015773E+03  0.19949015773E+03  0.00000000000E+00 0. -1.
         -1   -1    0    0    0  501 -0.00000000000E+00 -0.00000000000E+00 -0.28310682580E+03  0.28310682580E+03  0.00000000000E+00 0.  1.
         23    2    1    2    0    0 -0.18494723036E+03 -0.35646188338E+02  0.55414148820E+02  0.21716836306E+03  0.92818323965E+02 0.  0.
          5    1    1    2  502    0  0.15353440761E+02 -0.36216108706E+02 -0.10953650947E+02  0.41046187911E+02  0.41800000000E+01 0.  1.
         -5    1    1    2    0  502  0.16959378960E+03  0.71862297043E+02 -0.12807716594E+03  0.22438243256E+03  0.41800000000E+01 0.  1.
        -11    1    3    3    0    0 -0.27773049451E+02 -0.37119676997E+00  0.48555413679E+02  0.55938432767E+02  0.00000000000E+00 0. -1.
         11    1    3    3    0    0 -0.15717418091E+03 -0.35274991568E+02  0.68587351411E+01  0.16122993029E+03  0.00000000000E+00 0.  1.
</event>
<event>
 7    1  0.6145388E-006  0.9292560E+02  0.7561462E-02  0.1295918E+00
          1   -1    0    0  501    0  0.00000000000E+00  0.00000000000E+00  0.36416150360E+03  0.36416150360E+03  0.00000000000E+00 0. -1.
         -1   -1    0    0    0  501 -0.00000000000E+00 -0.00000000000E+00 -0.40952464362E+02  0.40952464362E+02  0.00000000000E+00 0.  1.
         23    2    1    2    0    0  0.46296306724E+02  0.89894381719E+01  0.19313732589E+03  0.21859078692E+03  0.90861143850E+02 0.  0.
          5    1    1    2  502    0 -0.89196755955E+02  0.45966813551E-01  0.80628753783E+02  0.12031014804E+03  0.41800000000E+01 0. -1.
         -5    1    1    2    0  502  0.42900449231E+02 -0.90354049854E+01  0.49442959567E+02  0.66213032993E+02  0.41800000000E+01 0. -1.
        -11    1    3    3    0    0  0.15677033121E+02 -0.78920816854E+01 -0.43088644907E+01  0.18072648782E+02  0.00000000000E+00 0.  1.
         11    1    3    3    0    0  0.30619273603E+02  0.16881519857E+02  0.19744619038E+03  0.20051813814E+03  0.00000000000E+00 0. -1.
</event>
<event>
 7    1  0.6145388E-006  0.8123090E+02  0.7561462E-02  0.1325594E+00
          1   -1    0    0  501    0  0.00000000000E+00  0.00000000000E+00  0.15091320965E+03  0.15091320965E+03  0.00000000000E+00 0. -1.
         -1   -1    0    0    0  501 -0.00000000000E+00 -0.00000000000E+00 -0.86648706581E+02  0.86648706581E+02  0.00000000000E+00 0.  1.
         23    2    1    2    0    0  0.59785134859E+01  0.70254092089E+01  0.64713123703E+02  0.11213147633E+03  0.91107522234E+02 0.  0.
          5    1    1    2  502    0  0.15747857461E+02  0.29930604341E+02  0.49106475757E+02  0.59772522551E+02  0.41800000000E+01 0. -1.
         -5    1    1    2    0  502 -0.21726370947E+02 -0.36956013550E+02 -0.49555096390E+02  0.65657917346E+02  0.41800000000E+01 0. -1.
        -11    1    3    3    0    0 -0.15655681428E+02  0.41643418362E+02  0.13203131728E+02  0.46406867393E+02  0.00000000000E+00 0.  1.
         11    1    3    3    0    0  0.21634194914E+02 -0.34618009153E+02  0.51509991975E+02  0.65724608942E+02  0.00000000000E+00 0. -1.
</event>
<event>
 7    1  0.6145388E-006  0.1769156E+03  0.7561462E-02  0.1170822E+00
          1   -1    0    0  501    0  0.00000000000E+00  0.00000000000E+00  0.36143743537E+03  0.36143743537E+03  0.00000000000E+00 0. -1.
         -1   -1    0    0    0  501 -0.00000000000E+00 -0.00000000000E+00 -0.47514177289E+03  0.47514177289E+03  0.00000000000E+00 0.  1.
         23    2    1    2    0    0  0.10134127879E+02 -0.52815958658E+01  0.27896198605E+03  0.29316065517E+03  0.89402372871E+02 0.  0.
          5    1    1    2  502    0 -0.11604751875E+03 -0.77845080574E+02 -0.12812025922E+02  0.14038697798E+03  0.41800000000E+01 0. -1.
         -5    1    1    2    0  502  0.10591339087E+03  0.83126676440E+02 -0.37985429764E+03  0.40303157511E+03  0.41800000000E+01 0.  1.
        -11    1    3    3    0    0 -0.28643618670E+02 -0.22958890081E+02  0.61998166857E+02  0.72050955705E+02  0.00000000000E+00 0. -1.
         11    1    3    3    0    0  0.38777746549E+02  0.17677294216E+02  0.21696381919E+03  0.22110969946E+03  0.00000000000E+00 0.  1.
</event>
<event>
 7    1  0.6145388E-006  0.1479524E+03  0.7561462E-02  0.1203012E+00
          1   -1    0    0  501    0  0.00000000000E+00  0.00000000000E+00  0.84367210599E+03  0.84367210599E+03  0.00000000000E+00 0.  1.
         -1   -1    0    0    0  501 -0.00000000000E+00 -0.00000000000E+00 -0.35292981923E+02  0.35292981923E+02  0.00000000000E+00 0. -1.
         23    2    1    2    0    0  0.12633010721E+03 -0.43420983578E+02  0.39985920438E+03  0.43132533740E+03  0.91156379651E+02 0.  0.
          5    1    1    2  502    0 -0.10816473891E+03  0.39169184124E+02  0.15331976859E+03  0.19172443654E+03  0.41800000000E+01 0.  1.
         -5    1    1    2    0  502 -0.18165368298E+02  0.42517994533E+01  0.25520015110E+03  0.25591531397E+03  0.41800000000E+01 0.  1.
        -11    1    3    3    0    0 -0.23195052437E+01  0.18675998636E+02  0.50109917442E+02  0.53527346802E+02  0.00000000000E+00 0.  1.
         11    1    3    3    0    0  0.12864961245E+03 -0.62096982213E+02  0.34974928694E+03  0.37779799060E+03  0.00000000000E+00 0. -1.
</event>
<event>
 7    1  0.6145388E-006  0.1701166E+03  0.7561462E-02  0.1177726E+00
         -2   -1    0    0    0  501 -0.00000000000E+00  0.00000000000E+00  0.22413043133E+02  0.22413043133E+02  0.00000000000E+00 0.  1.
          2   -1    0    0  501    0  0.00000000000E+00 -0.00000000000E+00 -0.14954285355E+04  0.14954285355E+04  0.00000000000E+00 0. -1.
         23    2    1    2    0    0  0.31079514338E+02  0.13841578465E+03 -0.86006067790E+03  0.87635766915E+03  0.90407571375E+02 0.  0.
          5    1    1    2  502    0  0.33192072786E+02 -0.22853532369E+02 -0.56542934312E+02  0.69559855220E+02  0.41800000000E+01 0. -1.
         -5    1    1    2    0  502 -0.64271587124E+02 -0.11556225228E+03 -0.55641188018E+03  0.57192405428E+03  0.41800000000E+01 0. -1.
        -11    1    3    3    0    0  0.31207833902E+02  0.15132509941E+03 -0.81334974664E+03  0.82789553989E+03  0.00000000000E+00 0. -1.
         11    1    3    3    0    0 -0.12831956484E+00 -0.12909314764E+02 -0.46710931254E+02  0.48462129258E+02  0.00000000000E+00 0.  1.
</event>
<event>
 7    1  0.6145388E-006  0.1234991E+03  0.7561462E-02  0.1237434E+00
          1   -1    0    0  501    0  0.00000000000E+00  0.00000000000E+00  0.48837791153E+03  0.48837791153E+03  0.00000000000E+00 0. -1.
         -1   -1    0    0    0  501 -0.00000000000E+00 -0.00000000000E+00 -0.32723397235E+03  0.32723397235E+03  0.00000000000E+00 0.  1.
         23    2    1    2    0    0  0.44622318656E+02  0.62050227633E+02  0.46541494141E+03  0.48028643998E+03  0.90678633997E+02 0.  0.
          5    1    1    2  502    0 -0.19673441971E+02  0.34904483132E+02 -0.75562422972E+02  0.85630131538E+02  0.41800000000E+01 0. -1.
         -5    1    1    2    0  502 -0.24948876685E+02 -0.96954710765E+02 -0.22870857927E+03  0.24969531237E+03  0.41800000000E+01 0.  1.
        -11    1    3    3    0    0 -0.96068640799E-01  0.61794144822E+02  0.36728812123E+03  0.37245011688E+03  0.00000000000E+00 0. -1.
         11    1    3    3    0    0  0.44718387297E+02  0.25608281129E+00  0.98126820177E+02  0.10783632310E+03  0.00000000000E+00 0.  1.
</event>
<event>
 7    1  0.6145388E-006  0.1262886E+03  0.7561462E-02  0.1233069E+00
         -2   -1    0    0    0  501 -0.00000000000E+00  0.00000000000E+00  0.59765676041E+02  0.59765676041E+02  0.00000000000E+00 0.  1.
          2   -1    0    0  501    0  0.00000000000E+00 -0.00000000000E+00 -0.35325397064E+03  0.35325397064E+03  0.00000000000E+00 0. -1.
         23    2    1    2    0    0  0.18358898293E+01 -0.10310818653E+03 -0.15139698413E+03  0.20431626097E+03  0.90495409118E+02 0.  0.
          5    1    1    2  502    0  0.29607273064E+02  0.35444767388E+02 -0.12317808649E+03  0.13161776303E+03  0.41800000000E+01 0. -1.
         -5    1    1    2    0  502 -0.31443162893E+02  0.67663419143E+02 -0.18913223976E+02  0.77085622680E+02  0.41800000000E+01 0.  1.
        -11    1    3    3    0    0 -0.35143590076E+02 -0.19820856206E+02 -0.21720848098E+02  0.45822849172E+02  0.00000000000E+00 0. -1.
         11    1    3    3    0    0  0.36979479905E+02 -0.83287330325E+02 -0.12967613603E+03  0.15849341180E+03  0.00000000000E+00 0.  1.
</event>
<event>
 7    1  0.6145388E-006  0.1210593E+03  0.7561462E-02  0.1241360E+00
          2   -1    0    0  501    0  0.00000000000E+00  0.00000000000E+00  0.81518262049E+03  0.81518262049E+03  0.00000000000E+00 0. -1.
         -2   -1    0    0    0  501 -0.00000000000E+00 -0.00000000000E+00 -0.19377445806E+02  0.19377445806E+02  0.00000000000E+00 0.  1.
         23    2    1    2    0    0  0.22677318586E+02  0.60390364809E+02  0.34472004719E+03  0.36202816355E+03  0.89839987349E+02 0.  0.
          5    1    1    2  502    0 -0.71041055809E+02 -0.53458271147E+02  0.24420164940E+03  0.25991640258E+03  0.41800000000E+01 0.  1.
         -5    1    1    2    0  502  0.48363737223E+02 -0.69320936621E+01  0.20688347810E+03  0.21261550016E+03  0.41800000000E+01 0.  1.
        -11    1    3    3    0    0 -0.30943633478E+02  0.18703649213E+02  0.67110283736E+02  0.76230736123E+02  0.00000000000E+00 0. -1.
         11    1    3    3    0    0  0.53620952064E+02  0.41686715596E+02  0.27760976346E+03  0.28579742743E+03  0.00000000000E+00 0.  1.
</event>
<event>
 7    1  0.6145388E-006  0.9807987E+02  0.7561462E-02  0.1284386E+00
          1   -1    0    0  501    0  0.00000000000E+00  0.00000000000E+00  0.19727295077E+03  0.19727295077E+03  0.00000000000E+00 0. -1.
         -1   -1    0    0    0  501 -0.00000000000E+00 -0.00000000000E+00 -0.85335119877E+02  0.85335119877E+02  0.00000000000E+00 0.  1.
         23    2    1    2    0    0  0.81406793713E+01  0.30006906668E+02  0.12906631684E+03  0.15257656069E+03  0.75198454915E+02 0.  0.
          5    1    1    2  502    0 -0.54442048577E+02  0.15278057942E+02 -0.29574185366E+02  0.63948890122E+02  0.41800000000E+01 0.  1.
         -5    1    1    2    0  502  0.46301369206E+02 -0.45284964610E+02  0.12445699421E+02  0.66082619834E+02  0.41800000000E+01 0.  1.
        -11    1    3    3    0    0 -0.18499795577E+02  0.41583643908E+02  0.46574526810E+02  0.65120107684E+02  0.00000000000E+00 0.  1.
         11    1    3    3    0    0  0.26640474949E+02 -0.11576737240E+02  0.82491790028E+02  0.87456453008E+02  0.00000000000E+00 0. -1.
</event>
<event>
 7    1  0.6145388E-006  0.1491649E+03  0.7561462E-02  0.1201503E+00
          2   -1    0    0  501    0  0.00000000000E+00  0.00000000000E+00  0.75226758489E+03  0.75226758489E+03  0.00000000000E+00 0. -1.
         -2   -1    0    0    0  501 -0.00000000000E+00 -0.00000000000E+00 -0.32209188086E+02  0.32209188086E+02  0.00000000000E+00 0.  1.
         23    2    1    2    0    0  0.44779335794E+02  0.11338913304E+03  0.26016075006E+03  0.29252567155E+03  0.55003347509E+02 0.  0.
          5    1    1    2  502    0 -0.20395209994E+02 -0.13202970713E+03  0.42383451084E+03  0.44441081573E+03  0.41800000000E+01 0. -1.
         -5    1    1    2    0  502 -0.24384125799E+02  0.18640574090E+02  0.36063135898E+02  0.47540285698E+02  0.41800000000E+01 0. -1.
        -11    1    3    3    0    0  0.49828661958E+02  0.51724317013E+02  0.13567854791E+03  0.15351537020E+03  0.00000000000E+00 0.  1.
         11    1    3    3    0    0 -0.50493261643E+01  0.61664816025E+02  0.12448220215E+03  0.13901030135E+03  0.00000000000E+00 0. -1.
</event>
<event>
 7    1  0.6145388E-006  0.1363204E+03  0.7561462E-02  0.1218368E+00
          2   -1    0    0  501    0  0.00000000000E+00  0.00000000000E+00  0.11709153023E+03  0.11709153023E+03  0.00000000000E+00 0. -1.
         -2   -1    0    0    0  501 -0.00000000000E+00 -0.00000000000E+00 -0.16137103064E+03  0.16137103064E+03  0.00000000000E+00 0.  1.
         23    2    1    2    0    0 -0.33733813565E+02  0.76563662902E+02 -0.15446499619E+02  0.12523705577E+03  0.91900822264E+02 0.  0.
          5    1    1    2  502    0 -0.45906859280E+02 -0.13921434359E+02 -0.14161586753E+01  0.48173893023E+02  0.41800000000E+01 0. -1.
         -5    1    1    2    0  502  0.79640672845E+02 -0.62642228543E+02 -0.27416842119E+02  0.10505161208E+03  0.41800000000E+01 0. -1.
        -11    1    3    3    0    0  0.30190929748E+02  0.37571213275E+02 -0.14573511896E+02  0.50353505886E+02  0.00000000000E+00 0.  1.
         11    1    3    3    0    0 -0.63924743313E+02  0.38992449627E+02 -0.87298772280E+00  0.74883549883E+02  0.00000000000E+00 0. -1.
</event>
<event>
 7    1  0.6145388E-006  0.6874642E+02  0.7561462E-02  0.1364409E+00
         -1   -1    0    0    0  501 -0.00000000000E+00  0.00000000000E+00  0.54952648951E+02  0.54952648951E+02  0.00000000000E+00 0.  1.
          1   -1    0    0  501    0  0.00000000000E+00 -0.00000000000E+00 -0.26296429768E+03  0.26296429768E+03  0.00000000000E+00 0. -1.
         23    2    1    2    0    0  0.33080360524E+02  0.32278196396E+02 -0.56889896672E+02  0.11636816300E+03  0.90381949540E+02 0.  0.
          5    1    1    2  502    0 -0.30064654581E+02 -0.54349514291E+02 -0.15642278527E+02  0.64186497305E+02  0.41800000000E+01 0.  1.
         -5    1    1    2    0  502 -0.30157059428E+01  0.22071317895E+02 -0.13547947353E+03  0.13736228633E+03  0.41800000000E+01 0.  1.
        -11    1    3    3    0    0  0.69547863568E+01  0.24276203528E+02  0.21617492465E+02  0.33241827439E+02  0.00000000000E+00 0.  1.
         11    1    3    3    0    0  0.26125574167E+02  0.80019928681E+01 -0.78507389137E+02  0.83126335566E+02  0.00000000000E+00 0. -1.
</event>
<event>
 7    1  0.6145388E-006  0.9322784E+02  0.7561462E-02  0.1295218E+00
         -1   -1    0    0    0  501 -0.00000000000E+00  0.00000000000E+00  0.14602128699E+03  0.14602128699E+03  0.00000000000E+00 0.  1.
          1   -1    0    0  501    0  0.00000000000E+00 -0.00000000000E+00 -0.97909623504E+02  0.97909623504E+02  0.00000000000E+00 0. -1.
         23    2    1    2    0    0 -0.49920471052E+02  0.17199015906E+02  0.18022349389E+02  0.10486175141E+03  0.88788074943E+02 0.  0.
          5    1    1    2  502    0  0.65995789870E+02 -0.56838059128E+02  0.38426750704E+02  0.95289542006E+02  0.41800000000E+01 0.  1.
         -5    1    1    2    0  502 -0.16075318818E+02  0.39639043223E+02 -0.83374366068E+01  0.43779617082E+02  0.41800000000E+01 0.  1.
        -11    1    3    3    0    0 -0.18969130872E+02  0.16779008697E+02  0.52644843989E+02  0.58419540031E+02  0.00000000000E+00 0.  1.
         11    1    3    3    0    0 -0.30951340180E+02  0.42000720903E+00 -0.34622494600E+02  0.46442211374E+02  0.00000000000E+00 0. -1.
</event>
<event>
 7    1  0.6145388E-006  0.9108317E+02  0.7561462E-02  0.1300250E+00
         -1   -1    0    0    0  501 -0.00000000000E+00  0.00000000000E+00  0.33544975229E+02  0.33544975229E+02  0.00000000000E+00 0.  1.
          1   -1    0    0  501    0  0.00000000000E+00 -0.00000000000E+00 -0.38870271724E+03  0.38870271724E+03  0.00000000000E+00 0. -1.
         23    2    1    2    0    0  0.33911107234E+02  0.11017280796E+02 -0.17725402574E+03  0.20186527675E+03  0.89773362679E+02 0.  0.
          5    1    1    2  502    0 -0.10552980882E+02  0.34809694516E+02 -0.16243145320E+03  0.16650684558E+03  0.41800000000E+01 0. -1.
         -5    1    1    2    0  502 -0.23358126352E+02 -0.45826975312E+02 -0.15472263072E+02  0.53875570136E+02  0.41800000000E+01 0. -1.
        -11    1    3    3    0    0  0.62582744266E+02  0.16577005910E+02 -0.98510766614E+02  0.11788031279E+03  0.00000000000E+00 0.  1.
         11    1    3    3    0    0 -0.28671637032E+02 -0.55597251135E+01 -0.78743259131E+02  0.83984963964E+02  0.00000000000E+00 0. -1.
</event>
<event>
 7    1  0.6145388E-006  0.9537095E+02  0.7561462E-02  0.1290343E+00
         -2   -1    0    0    0  501 -0.00000000000E+00  0.00000000000E+00  0.96340489039E+02  0.96340489039E+02  0.00000000000E+00 0.  1.
          2   -1    0    0  501    0  0.00000000000E+00 -0.00000000000E+00 -0.12122063753E+03  0.12122063753E+03  0.00000000000E+00 0. -1.
         23    2    1    2    0    0 -0.19198499957E-01  0.16192702320E+01 -0.16259650597E+02  0.92164332478E+02  0.90704275196E+02 0.  0.
          5    1    1    2  502    0 -0.46882386814E+02  0.23157623993E+02 -0.37852039738E+02  0.64687580374E+02  0.41800000000E+01 0.  1.
         -5    1    1    2    0  502  0.46901585313E+02 -0.24776894225E+02  0.29231541840E+02  0.60709213722E+02  0.41800000000E+01 0.  1.
        -11    1    3    3    0    0 -0.65153877058E+01 -0.41228154890E+02 -0.23990555017E+02  0.48143096728E+02  0.00000000000E+00 0. -1.
         11    1    3    3    0    0  0.64961892058E+01  0.42847425122E+02  0.77309044197E+01  0.44021235750E+02  0.00000000000E+00 0.  1.
</event>
<event>
 7    1  0.6145388E-006  0.1365976E+03  0.7561462E-02  0.1217982E+00
         -1   -1    0    0    0  501 -0.00000000000E+00  0.00000000000E+00  0.70726779929E+03  0.70726779929E+03  0.00000000000E+00 0.  1.
          1   -1    0    0  501    0  0.00000000000E+00 -0.00000000000E+00 -0.61294019345E+02  0.61294019345E+02  0.00000000000E+00 0. -1.
         23    2    1    2    0    0  0.61079924867E+02 -0.75762667951E+02  0.33714908433E+02  0.13639398019E+03  0.89419705345E+02 0.  0.
          5    1    1    2  502    0 -0.75232200424E+02  0.92138921164E+02  0.36474250010E+03  0.38367177190E+03  0.41800000000E+01 0.  1.
         -5    1    1    2    0  502  0.14152275557E+02 -0.16376253213E+02  0.24751637141E+03  0.24849606655E+03  0.41800000000E+01 0.  1.
        -11    1    3    3    0    0 -0.12600609723E+02  0.12092474598E+02  0.55282991686E+01  0.18318444230E+02  0.00000000000E+00 0. -1.
         11    1    3    3    0    0  0.73680534590E+02 -0.87855142549E+02  0.28186609265E+02  0.11807553596E+03  0.00000000000E+00 0.  1.
</event>
<event>
 7    1  0.6145388E-006  0.9933001E+02  0.7561462E-02  0.1281711E+00
          1   -1    0    0  501    0  0.00000000000E+00  0.00000000000E+00  0.53570872844E+03  0.53570872844E+03  0.00000000000E+00 0. -1.
         -1   -1    0    0    0  501 -0.00000000000E+00 -0.00000000000E+00 -0.36276989181E+02  0.36276989181E+02  0.00000000000E+00 0.  1.
         23    2    1    2    0    0 -0.49307821318E+02 -0.33153258053E+02  0.29259172523E+03  0.31219373613E+03  0.91239308670E+02 0.  0.
          5    1    1    2  502    0  0.34499668218E+02  0.55293491117E+02  0.22021505249E+03  0.22969488243E+03  0.41800000000E+01 0. -1.
         -5    1    1    2    0  502  0.14808153100E+02 -0.22140233063E+02 -0.13375038460E+02  0.30097099066E+02  0.41800000000E+01 0.  1.
        -11    1    3    3    0    0 -0.10008883437E+02  0.30212774931E+02  0.59658855306E+02  0.67617812247E+02  0.00000000000E+00 0.  1.
         11    1    3    3    0    0 -0.39298937881E+02 -0.63366032984E+02  0.23293286992E+03  0.24457592388E+03  0.00000000000E+00 0. -1.
</event>
<event>
 7    1  0.6145388E-006  0.1658373E+03  0.7561462E-02  0.1182260E+00
         -1   -1    0    0    0  501 -0.00000000000E+00  0.00000000000E+00  0.41517463445E+03  0.41517463445E+03  0.00000000000E+00 0.  1.
          1   -1    0    0  501    0  0.00000000000E+00 -0.00000000000E+00 -0.87282953295E+02  0.87282953295E+02  0.00000000000E+00 0. -1.
         23    2    1    2    0    0 -0.13248222616E+03 -0.56544009769E+02  0.84059877956E+02  0.19286141598E+03  0.96854000451E+02 0.  0.
          5    1    1    2  502    0  0.14844767211E+03  0.70073996383E+02  0.23456391011E+03  0.28632983891E+03  0.41800000000E+01 0.  1.
         -5    1    1    2    0  502 -0.15965445951E+02 -0.13529986613E+02  0.92678930966E+01  0.23266332857E+02  0.41800000000E+01 0.  1.
        -11    1    3    3    0    0 -0.26713749538E+02 -0.11734930379E+01 -0.20868192429E+02  0.33918769959E+02  0.00000000000E+00 0. -1.
         11    1    3    3    0    0 -0.10576847663E+03 -0.55370516731E+02  0.10492807038E+03  0.15894264602E+03  0.00000000000E+00 0.  1.
</event>
<event>
 7    1  0.6145388E-006  0.1254234E+03  0.7561462E-02  0.1234409E+00
          1   -1    0    0  501    0  0.00000000000E+00  0.00000000000E+00  0.25678107404E+03  0.25678107404E+03  0.00000000000E+00 0. -1.
         -1   -1    0    0    0  501 -0.00000000000E+00 -0.00000000000E+00 -0.12178266448E+03  0.12178266448E+03  0.00000000000E+00 0.  1.
         23    2    1    2    0    0 -0.42196069623E+02 -0.91352375278E+02  0.16746088609E+03  0.21476660953E+03  0.89195198519E+02 0.  0.
          5    1    1    2  502    0  0.55912694909E+02  0.12819454803E+02 -0.56298502969E+02  0.80483300815E+02  0.41800000000E+01 0.  1.
         -5    1    1    2    0  502 -0.13716625286E+02  0.78532920475E+02  0.23836026433E+02  0.83313828166E+02  0.41800000000E+01 0.  1.
        -11    1    3    3    0    0 -0.37117189036E+02 -0.20376187438E+02  0.12483043181E+03  0.13181620326E+03  0.00000000000E+00 0.  1.
         11    1    3    3    0    0 -0.50788805872E+01 -0.70976187840E+02  0.42630454284E+02  0.82950406273E+02  0.00000000000E+00 0. -1.
</event>
<event>
 7    1  0.6145388E-006  0.1020183E+03  0.7561462E-02  0.1276108E+00
          4   -1    0    0  501    0  0.00000000000E+00  0.00000000000E+00  0.30144160459E+03  0.30144160459E+03  0.00000000000E+00 0. -1.
         -4   -1    0    0    0  501 -0.00000000000E+00 -0.00000000000E+00 -0.43004291144E+02  0.43004291144E+02  0.00000000000E+00 0.  1.
         23    2    1    2    0    0 -0.13515594990E+02 -0.15360482755E+02  0.15751667590E+03  0.18246227654E+03  0.89790664522E+02 0.  0.
          5    1    1    2  502    0 -0.45222173725E+02  0.35499826082E+02  0.74936026032E+02  0.94541858696E+02  0.41800000000E+01 0.  1.
         -5    1    1    2    0  502  0.58737768715E+02 -0.20139343327E+02  0.25984611512E+02  0.67441760495E+02  0.41800000000E+01 0.  1.
        -11    1    3    3    0    0 -0.36763771900E+02 -0.37171094873E+02  0.13082853993E+03  0.14088779961E+03  0.00000000000E+00 0. -1.
         11    1    3    3    0    0  0.23248176910E+02  0.21810612118E+02  0.26688135974E+02  0.41574476934E+02  0.00000000000E+00 0.  1.
</event>
<event>
 7    1  0.6145388E-006  0.1125093E+03  0.7561462E-02  0.1255992E+00
          2   -1    0    0  501    0  0.00000000000E+00  0.00000000000E+00  0.75581093140E+03  0.75581093140E+03  0.00000000000E+00 0. -1.
         -2   -1    0    0    0  501 -0.00000000000E+00 -0.00000000000E+00 -0.17171789988E+02  0.17171789988E+02  0.00000000000E+00 0.  1.
         23    2    1    2    0    0 -0.43414786315E+02  0.11456925256E+02  0.34573637387E+03  0.36003678451E+03  0.89870691401E+02 0.  0.
          5    1    1    2  502    0 -0.38589970255E+02 -0.21365422113E+02  0.14390652813E+03  0.15057299992E+03  0.41800000000E+01 0. -1.
         -5    1    1    2    0  502  0.82004756570E+02  0.99084968566E+01  0.24899623941E+03  0.26237293696E+03  0.41800000000E+01 0.  1.
        -11    1    3    3    0    0  0.24553424463E+02  0.16917323694E+02  0.71877884080E+02  0.77817072122E+02  0.00000000000E+00 0.  1.
         11    1    3    3    0    0 -0.67968210778E+02 -0.54603984383E+01  0.27385848979E+03  0.28221971239E+03  0.00000000000E+00 0. -1.
</event>
<event>
 7    1  0.6145388E-006  0.1065894E+03  0.7561462E-02  0.1267019E+00
          1   -1    0    0  501    0  0.00000000000E+00  0.00000000000E+00  0.40506906612E+03  0.40506906612E+03  0.00000000000E+00 0. -1.
         -1   -1    0    0    0  501 -0.00000000000E+00 -0.00000000000E+00 -0.39306653573E+02  0.39306653573E+02  0.00000000000E+00 0.  1.
         23    2    1    2    0    0 -0.18836619826E+02 -0.48055653949E+01  0.26815074113E+03  0.28452070290E+03  0.93109068861E+02 0.  0.
          5    1    1    2  502    0 -0.39606132108E+02 -0.35270669641E+02  0.57434451596E+02  0.78287000630E+02  0.41800000000E+01 0.  1.
         -5    1    1    2    0  502  0.58442751934E+02  0.40076235036E+02  0.40177219820E+02  0.81568016163E+02  0.41800000000E+01 0.  1.
        -11    1    3    3    0    0 -0.22439433166E+01 -0.45235210110E+02  0.18638389717E+03  0.19180775959E+03  0.00000000000E+00 0. -1.
         11    1    3    3    0    0 -0.16592676510E+02  0.40429644715E+02  0.81766843965E+02  0.92712943312E+02  0.00000000000E+00 0.  1.
</event>
<event>
 7    1  0.6145388E-006  0.1294536E+03  0.7561462E-02  0.1228269E+00
         -2   -1    0    0    0  501 -0.00000000000E+00  0.00000000000E+00  0.42237557251E+02  0.42237557251E+02  0.00000000000E+00 0.  1.
          2   -1    0    0  501    0  0.00000000000E+00 -0.00000000000E+00 -0.52556508105E+03  0.52556508105E+03  0.00000000000E+00 0. -1.
         23    2    1    2    0    0  0.50669651763E+02  0.76597215754E+02 -0.30361005435E+03  0.33034858337E+03  0.92285287869E+02 0.  0.
          5    1    1    2  502    0 -0.90155357708E+02 -0.45172010012E+02 -0.94129795039E+02  0.13800865816E+03  0.41800000000E+01 0. -1.
         -5    1    1    2    0  502  0.39485705946E+02 -0.31425205742E+02 -0.85587674401E+02  0.99445396773E+02  0.41800000000E+01 0. -1.
        -11    1    3    3    0    0  0.62667714502E+02  0.68654849670E+02 -0.30186656243E+03  0.31585463799E+03  0.00000000000E+00 0. -1.
         11    1    3    3    0    0 -0.11998062740E+02  0.79423660840E+01 -0.17434919196E+01  0.14493945377E+02  0.00000000000E+00 0.  1.
</event>
<event>
 7    1  0.6145388E-006  0.1064828E+03  0.7561462E-02  0.1267225E+00
          2   -1    0    0  501    0  0.00000000000E+00  0.00000000000E+00  0.55964278431E+03  0.55964278431E+03  0.00000000000E+00 0. -1.
         -2   -1    0    0    0  501 -0.00000000000E+00 -0.00000000000E+00 -0.23413944956E+02  0.23413944956E+02  0.00000000000E+00 0.  1.
         23    2    1    2    0    0 -0.35148258322E+02 -0.49632799374E+01  0.26541459058E+03  0.28264482778E+03  0.90460817857E+02 0.  0.
          5    1    1    2  502    0  0.64344621451E+02  0.39617427653E+02  0.11173340377E+03  0.13495034940E+03  0.41800000000E+01 0. -1.
         -5    1    1    2    0  502 -0.29196363129E+02 -0.34654147715E+02  0.15908084501E+03  0.16546155210E+03  0.41800000000E+01 0. -1.
        -11    1    3    3    0    0 -0.48103923593E+02 -0.34720741960E+02  0.12274140437E+03  0.13632670221E+03  0.00000000000E+00 0.  1.
         11    1    3    3    0    0  0.12955665271E+02  0.29757462023E+02  0.14267318620E+03  0.14631812557E+03  0.00000000000E+00 0. -1.
</event>
<event>
 7    1  0.6145388E-006  0.8891204E+02  0.7561462E-02  0.1305508E+00
          1   -1    0    0  501    0  0.00000000000E+00  0.00000000000E+00  0.12941113129E+03  0.12941113129E+03  0.00000000000E+00 0. -1.
         -1   -1    0    0    0  501 -0.00000000000E+00 -0.00000000000E+00 -0.11934614061E+03  0.11934614061E+03  0.00000000000E+00 0.  1.
         23    2    1    2    0    0  0.16413834841E+02  0.19317869314E+02  0.59187135353E+02  0.11199580876E+03  0.91637056590E+02 0.  0.
          5    1    1    2  502    0 -0.57918804741E+02 -0.40193753703E+02 -0.55312624749E+02  0.89705544065E+02  0.41800000000E+01 0.  1.
         -5    1    1    2    0  502  0.41504969900E+02  0.20875884389E+02  0.61904800794E+01  0.47055919065E+02  0.41800000000E+01 0.  1.
        -11    1    3    3    0    0 -0.20474551330E+02  0.60040436066E+01 -0.16352718200E+02  0.26882469833E+02  0.00000000000E+00 0.  1.
         11    1    3    3    0    0  0.36888386172E+02  0.13313825707E+02  0.75539853553E+02  0.85113338932E+02  0.00000000000E+00 0. -1.
</event>
<event>
 7    1  0.6145388E-006  0.1215650E+03  0.7561462E-02  0.1240537E+00
          2   -1    0    0  501    0  0.00000000000E+00  0.00000000000E+00  0.15335919330E+03  0.15335919330E+03  0.00000000000E+00 0. -1.
         -2   -1    0    0    0  501 -0.00000000000E+00 -0.00000000000E+00 -0.15134670845E+03  0.15134670845E+03  0.00000000000E+00 0.  1.
         23    2    1    2    0    0  0.13229883753E+02  0.61544512739E+02  0.87194537142E+02  0.14079069375E+03  0.90864598542E+02 0.  0.
          5    1    1    2  502    0 -0.63997920567E+02 -0.14169508675E+02 -0.62711171142E+02  0.90811189834E+02  0.41800000000E+01 0.  1.
         -5    1    1    2    0  502  0.50768036814E+02 -0.47375004064E+02 -0.22470881146E+02  0.73104018162E+02  0.41800000000E+01 0.  1.
        -11    1    3    3    0    0 -0.36975926428E+02  0.35781276525E+02  0.26358860682E+02  0.57812701211E+02  0.00000000000E+00 0.  1.
         11    1    3    3    0    0  0.50205810181E+02  0.25763236214E+02  0.60835676460E+02  0.82977992543E+02  0.00000000000E+00 0. -1.
</event>
<event>
 7    1  0.6145388E-006  0.1233110E+03  0.7561462E-02  0.1237733E+00
          1   -1    0    0  501    0  0.00000000000E+00  0.00000000000E+00  0.16402881974E+03  0.16402881974E+03  0.00000000000E+00 0. -1.
         -1   -1    0    0    0  501 -0.00000000000E+00 -0.00000000000E+00 -0.10686796267E+03  0.10686796267E+03  0.00000000000E+00 0.  1.
         23    2    1    2    0    0  0.21399529773E+02  0.71999673480E+02  0.25030214470E+02  0.12148724743E+03  0.92145248368E+02 0.  0.
          5    1    1    2  502    0  0.33376982987E+02  0.19565938281E+02  0.12221346211E+02  0.40788265927E+02  0.41800000000E+01 0.  1.
         -5    1    1    2    0  502 -0.54776512760E+02 -0.91565611761E+02  0.19909296393E+02  0.10862126905E+03  0.41800000000E+01 0.  1.
        -11    1    3    3    0    0  0.38016367798E+02  0.13868324822E+02 -0.20913643507E+02  0.45551675476E+02  0.00000000000E+00 0.  1.
         11    1    3    3    0    0 -0.16616838024E+02  0.58131348658E+02  0.45943857977E+02  0.75935571958E+02  0.00000000000E+00 0. -1.
</event>
<event>
 7    1  0.6145388E-006  0.1419950E+03  0.7561462E-02  0.1210670E+00
         -4   -1    0    0    0  501 -0.00000000000E+00  0.00000000000E+00  0.11325542739E+04  0.11325542739E+04  0.00000000000E+00 0.  1.
          4   -1    0    0  501    0  0.00000000000E+00 -0.00000000000E+00 -0.24785201123E+02  0.24785201123E+02  0.00000000000E+00 0. -1.
         23    2    1    2    0    0 -0.68987865527E+02 -0.10753788792E+03  0.46274572219E+03  0.48912880479E+03  0.93753193765E+02 0.  0.
          5    1    1    2  502    0  0.30805151157E+01 -0.14904509278E+01 -0.40420042755E+01  0.67469412262E+01  0.41800000000E+01 0. -1.
         -5    1    1    2    0  502  0.65907350411E+02  0.10902833885E+03  0.64906535487E+03  0.66146372902E+03  0.41800000000E+01 0.  1.
        -11    1    3    3    0    0 -0.36636318630E+02  0.22086668065E+01  0.59002198110E+02  0.69486383081E+02  0.00000000000E+00 0.  1.
         11    1    3    3    0    0 -0.32351546897E+02 -0.10974655473E+03  0.40374352408E+03  0.41964242171E+03  0.00000000000E+00 0. -1.
</event>
<event>
 7    1  0.6145388E-006  0.9846897E+02  0.7561462E-02  0.1283549E+00
         -1   -1    0    0    0  501 -0.00000000000E+00  0.00000000000E+00  0.55873517154E+03  0.55873517154E+03  0.00000000000E+00 0.  1.
          1   -1    0    0  501    0  0.00000000000E+00 -0.00000000000E+00 -0.25532483102E+02  0.25532483102E+02  0.00000000000E+00 0. -1.
         23    2    1    2    0    0  0.37871600059E+02 -0.22512285922E+02  0.18898012822E+03  0.21538144790E+03  0.93459178939E+02 0.  0.
          5    1    1    2  502    0 -0.72601879106E+01  0.61897621226E+02  0.88573368475E+02  0.10838237793E+03  0.41800000000E+01 0. -1.
         -5    1    1    2    0  502 -0.30611412149E+02 -0.39385335304E+02  0.25564919174E+03  0.26050382882E+03  0.41800000000E+01 0. -1.
        -11    1    3    3    0    0  0.36814214921E+02 -0.47115555694E+02  0.62380096225E+02  0.86408555211E+02  0.00000000000E+00 0. -1.
         11    1    3    3    0    0  0.10573851388E+01  0.24603269772E+02  0.12660003200E+03  0.12897289269E+03  0.00000000000E+00 0.  1.
</event>
<event>
 7    1  0.6145388E-006  0.1143842E+03  0.7561462E-02  0.1252660E+00
          1   -1    0    0  501    0  0.00000000000E+00  0.00000000000E+00  0.11067554559E+03  0.11067554559E+03  0.00000000000E+00 0. -1.
         -1   -1    0    0    0  501 -0.00000000000E+00 -0.00000000000E+00 -0.25315157068E+03  0.25315157068E+03  0.00000000000E+00 0.  1.
         23    2    1    2    0    0  0.24674452896E+02 -0.69714209297E+02  0.36464442602E+02  0.13331501466E+03  0.10475847439E+03 0.  0.
          5    1    1    2  502    0 -0.69499753893E+02  0.13994921408E+02 -0.67137856917E+02  0.97729411376E+02  0.41800000000E+01 0. -1.
         -5    1    1    2    0  502  0.44825300998E+02  0.55719287889E+02 -0.11180261077E+03  0.13278269024E+03  0.41800000000E+01 0. -1.
        -11    1    3    3    0    0  0.30736944388E+02 -0.21470035662E+02 -0.32033312446E+02  0.49313844790E+02  0.00000000000E+00 0.  1.
         11    1    3    3    0    0 -0.60624914924E+01 -0.48244173635E+02  0.68497755048E+02  0.84001169869E+02  0.00000000000E+00 0. -1.
</event>
<event>
 7    1  0.6145388E-006  0.1035382E+03  0.7561462E-02  0.1273027E+00
         -3   -1    0    0    0  501 -0.00000000000E+00  0.00000000000E+00  0.26584881256E+03  0.26584881256E+03  0.00000000000E+00 0.  1.
          3   -1    0    0  501    0  0.00000000000E+00 -0.00000000000E+00 -0.66377839687E+02  0.66377839687E+02  0.00000000000E+00 0. -1.
         23    2    1    2    0    0 -0.48492335193E+02  0.39837212179E+02  0.35256338896E+02  0.11646228533E+03  0.91552959678E+02 0.  0.
          5    1    1    2  502    0  0.11121921588E+02 -0.68818449450E+02  0.15118158202E+03  0.16653233700E+03  0.41800000000E+01 0.  1.
         -5    1    1    2    0  502  0.37370413605E+02  0.28981237271E+02  0.13033051966E+02  0.49232029923E+02  0.41800000000E+01 0.  1.
        -11    1    3    3    0    0 -0.43903852453E+02 -0.54538681195E+01 -0.16786583189E+02  0.47318942431E+02  0.00000000000E+00 0. -1.
         11    1    3    3    0    0 -0.45884827401E+01  0.45291080298E+02  0.52042922084E+02  0.69143342901E+02  0.00000000000E+00 0.  1.
</event>
<event>
 7    1  0.6145388E-006  0.8359038E+02  0.7561462E-02  0.1319161E+00
         -1   -1    0    0    0  501 -0.00000000000E+00  0.00000000000E+00  0.19540035702E+02  0.19540035702E+02  0.00000000000E+00 0.  1.
          1   -1    0    0  501    0  0.00000000000E+00 -0.00000000000E+00 -0.79138023659E+03  0.79138023659E+03  0.00000000000E+00 0. -1.
         23    2    1    2    0    0 -0.17692382798E+02  0.49076905375E+02 -0.44808433234E+03  0.45994025382E+03  0.89687820508E+02 0.  0.
          5    1    1    2  502    0  0.27922509046E+02 -0.28753073471E+02 -0.32530754112E+03  0.32779395122E+03  0.41800000000E+01 0. -1.
         -5    1    1    2    0  502 -0.10230126248E+02 -0.20323831904E+02  0.15516725814E+01  0.23186067242E+02  0.41800000000E+01 0. -1.
        -11    1    3    3    0    0 -0.45259311977E+01 -0.26576290364E+02 -0.11887123928E+03  0.12188992899E+03  0.00000000000E+00 0.  1.
         11    1    3    3    0    0 -0.13166451600E+02  0.75653195738E+02 -0.32921309307E+03  0.33805032483E+03  0.00000000000E+00 0. -1.
</event>
<event>
 7    1  0.6145388E-006  0.1749041E+03  0.7561462E-02  0.1172828E+00
          1   -1    0    0  501    0  0.00000000000E+00  0.00000000000E+00  0.35175552009E+03  0.35175552009E+03  0.00000000000E+00 0. -1.
         -1   -1    0    0    0  501 -0.00000000000E+00 -0.00000000000E+00 -0.15012913898E+03  0.15012913898E+03  0.00000000000E+00 0.  1.
         23    2    1    2    0    0  0.58729317560E+02 -0.15168949934E+03  0.22904485335E+03  0.29486324692E+03  0.89576518052E+02 0.  0.
          5    1    1    2  502    0 -0.17332037297E+02  0.10304109184E+03 -0.73781696085E+02  0.12798076888E+03  0.41800000000E+01 0.  1.
         -5    1    1    2    0  502 -0.41397280263E+02  0.48648407494E+02  0.46363223841E+02  0.79040643279E+02  0.41800000000E+01 0.  1.
        -11    1    3    3    0    0  0.34518823076E+01 -0.11460424862E+03  0.17453740159E+03  0.20882852738E+03  0.00000000000E+00 0.  1.
         11    1    3    3    0    0  0.55277435253E+02 -0.37085250720E+02  0.54507451761E+02  0.86034719541E+02  0.00000000000E+00 0. -1.
</event>
<event>
 7    1  0.6145388E-006  0.9212120E+02  0.7561462E-02  0.1297795E+00
          4   -1    0    0  501    0  0.00000000000E+00  0.00000000000E+00  0.39288772665E+02  0.39288772665E+02  0.00000000000E+00 0. -1.
         -4   -1    0    0    0  501 -0.00000000000E+00 -0.00000000000E+00 -0.34653625845E+03  0.34653625845E+03  0.00000000000E+00 0.  1.
         23    2    1    2    0    0  0.14509203082E+02  0.15051553133E+02 -0.65350429100E+02  0.11269612024E+03  0.89401737725E+02 0.  0.
          5    1    1    2  502    0 -0.27556105967E+02  0.44507304473E+02 -0.53077914207E+02  0.74665765275E+02  0.41800000000E+01 0.  1.
         -5    1    1    2    0  502  0.13046902885E+02 -0.59558857607E+02 -0.18881914247E+03  0.19846314559E+03  0.41800000000E+01 0.  1.
        -11    1    3    3    0    0  0.25369004131E+02 -0.21018477336E+02  0.45836072940E+01  0.33262173951E+02  0.00000000000E+00 0. -1.
         11    1    3    3    0    0 -0.10859801050E+02  0.36070030470E+02 -0.69934036394E+02  0.79433946291E+02  0.00000000000E+00 0.  1.
</event>
<event>
 7    1  0.6145388E-006  0.1084814E+03  0.7561462E-02  0.1263408E+00
          1   -1    0    0  501    0  0.00000000000E+00  0.00000000000E+00  0.37547546999E+03  0.37547546999E+03  0.00000000000E+00 0. -1.
         -1   -1    0    0    0  501 -0.00000000000E+00 -0.00000000000E+00 -0.47153321006E+02  0.47153321006E+02  0.00000000000E+00 0.  1.
         23    2    1    2    0    0  0.60914498232E+02 -0.26655224043E+02  0.20674183972E+03  0.23595699393E+03  0.92262872422E+02 0.  0.
          5    1    1    2  502    0 -0.80761798775E+02 -0.19608569178E+02  0.44093817018E+02  0.94173782052E+02  0.41800000000E+01 0.  1.
         -5    1    1    2    0  502  0.19847300543E+02  0.46263793221E+02  0.77486492239E+02  0.92498015014E+02  0.41800000000E+01 0.  1.
        -11    1    3    3    0    0 -0.10426780472E+01 -0.20993809726E+02  0.10323038650E+01  0.21045020209E+02  0.00000000000E+00 0.  1.
         11    1    3    3    0    0  0.61957176279E+02 -0.56614143164E+01  0.20570953586E+03  0.21491197372E+03  0.00000000000E+00 0. -1.
</event>
<event>
 7    1  0.6145388E-006  0.1064586E+03  0.7561462E-02  0.1267272E+00
         -1   -1    0    0    0  501 -0.00000000000E+00  0.00000000000E+00  0.21289565262E+02  0.21289565262E+02  0.00000000000E+00 0.  1.
          1   -1    0    0  501    0  0.00000000000E+00 -0.00000000000E+00 -0.59774093853E+03  0.59774093853E+03  0.00000000000E+00 0. -1.
         23    2    1    2    0    0 -0.15335664243E+02  0.28384009830E+02 -0.24652092519E+03  0.26470829947E+03  0.90868490901E+02 0.  0.
          5    1    1    2  502    0 -0.45190687484E+02 -0.33080757389E+02 -0.23457717070E+03  0.24120625232E+03  0.41800000000E+01 0. -1.
         -5    1    1    2    0  502  0.60526351726E+02  0.46967475585E+01 -0.95353277376E+02  0.11311595200E+03  0.41800000000E+01 0. -1.
        -11    1    3    3    0    0  0.15716651126E+02  0.53629378304E+02 -0.12987703235E+03  0.14139012297E+03  0.00000000000E+00 0.  1.
         11    1    3    3    0    0 -0.31052315369E+02 -0.25245368474E+02 -0.11664389284E+03  0.12331817650E+03  0.00000000000E+00 0. -1.
</event>
<event>
 7    1  0.6145388E-006  0.1539698E+03  0.7561462E-02  0.1195678E+00
         -2   -1    0    0    0  501 -0.00000000000E+00  0.00000000000E+00  0.60069668316E+02  0.60069668316E+02  0.00000000000E+00 0.  1.
          2   -1    0    0  501    0  0.00000000000E+00 -0.00000000000E+00 -0.51775607332E+03  0.51775607332E+03  0.00000000000E+00 0. -1.
         23    2    1    2    0    0  0.74474775786E+02 -0.11690298601E+03 -0.23336264246E+03  0.28596368484E+03  0.90023917870E+02 0.  0.
          5    1    1    2  502    0 -0.84764865872E+02  0.10434559600E+03 -0.23585766960E+03  0.27151316469E+03  0.41800000000E+01 0. -1.
         -5    1    1    2    0  502  0.10290090086E+02  0.12557390011E+02  0.11533907053E+02  0.20348892102E+02  0.41800000000E+01 0. -1.
        -11    1    3    3    0    0  0.67270277905E+02 -0.37641131101E+02 -0.16053467152E+03  0.17808291833E+03  0.00000000000E+00 0.  1.
         11    1    3    3    0    0  0.72044978807E+01 -0.79261854909E+02 -0.72827970937E+02  0.10788076652E+03  0.00000000000E+00 0. -1.
</event>
<event>
 7    1  0.6145388E-006  0.1658234E+03  0.7561462E-02  0.1182275E+00
          1   -1    0    0  501    0  0.00000000000E+00  0.00000000000E+00  0.66622621486E+02  0.66622621486E+02  0.00000000000E+00 0. -1.
         -1   -1    0    0    0  501 -0.00000000000E+00 -0.00000000000E+00 -0.49365567594E+03  0.49365567594E+03  0.00000000000E+00 0.  1.
         23    2    1    2    0    0 -0.89591196437E+02  0.86343143757E+02 -0.11351707816E+03  0.20120272131E+03  0.11006673919E+03 0.  0.
          5    1    1    2  502    0  0.11586640820E+02 -0.94869682159E+02 -0.15487132765E+03  0.18203600569E+03  0.41800000000E+01 0. -1.
         -5    1    1    2    0  502  0.78004555617E+02  0.85265384024E+01 -0.15864464864E+03  0.17703957043E+03  0.41800000000E+01 0.  1.
        -11    1    3    3    0    0  0.20793975191E+02  0.92464030663E+01  0.32399411482E+01  0.22986574180E+02  0.00000000000E+00 0. -1.
         11    1    3    3    0    0 -0.11038517163E+03  0.77096740691E+02 -0.11675701931E+03  0.17821614713E+03  0.00000000000E+00 0.  1.
</event>
<event>
 7    1  0.6145388E-006  0.1060155E+03  0.7561462E-02  0.1268132E+00
         -1   -1    0    0    0  501 -0.00000000000E+00  0.00000000000E+00  0.14057252199E+03  0.14057252199E+03  0.00000000000E+00 0.  1.
          1   -1    0    0  501    0  0.00000000000E+00 -0.00000000000E+00 -0.23057537898E+03  0.23057537898E+03  0.00000000000E+00 0. -1.
         23    2    1    2    0    0 -0.18474488030E+02  0.99136080167E+02 -0.14595446955E+03  0.20100902087E+03  0.94512698568E+02 0.  0.
          5    1    1    2  502    0 -0.10037367809E+02 -0.36230504300E+02  0.86571298953E+02  0.94474654785E+02  0.41800000000E+01 0. -1.
         -5    1    1    2    0  502  0.28511855839E+02 -0.62905575867E+02 -0.30619686400E+02  0.75664225323E+02  0.41800000000E+01 0. -1.
        -11    1    3    3    0    0 -0.25936900021E+02  0.63303256763E+02 -0.22149698239E+02  0.71907122259E+02  0.00000000000E+00 0.  1.
         11    1    3    3    0    0  0.74624119906E+01  0.35832823404E+02 -0.12380477131E+03  0.12910189861E+03  0.00000000000E+00 0. -1.
</event>
<event>
 7    1  0.6145388E-006  0.1131420E+03  0.7561462E-02  0.1254860E+00
          2   -1    0    0  501    0  0.00000000000E+00  0.00000000000E+00  0.48911848059E+03  0.48911848059E+03  0.00000000000E+00 0. -1.
         -2   -1    0    0    0  501 -0.00000000000E+00 -0.00000000000E+00 -0.27262401196E+02  0.27262401196E+02  0.00000000000E+00 0.  1.
         23    2    1    2    0    0 -0.72310689634E+01  0.36681839798E+02  0.24201081250E+03  0.26068841063E+03  0.89394453641E+02 0.  0.
          5    1    1    2  502    0  0.41419627164E+02  0.32067826901E+02  0.73192428395E+02  0.90102913443E+02  0.41800000000E+01 0. -1.
         -5    1    1    2    0  502 -0.34188558200E+02 -0.68749666699E+02  0.14665283850E+03  0.16558955771E+03  0.41800000000E+01 0. -1.
        -11    1    3    3    0    0 -0.16790141849E+02 -0.27353189392E+02  0.84507310858E+02  0.90396855154E+02  0.00000000000E+00 0. -1.
         11    1    3    3    0    0  0.95590728857E+01  0.64035029190E+02  0.15750350164E+03  0.17029155548E+03  0.00000000000E+00 0.  1.
</event>
<event>
 7    1  0.6145388E-006  0.1476971E+03  0.7561462E-02  0.1203332E+00
          2   -1    0    0  501    0  0.00000000000E+00  0.00000000000E+00  0.29642648989E+03  0.29642648989E+03  0.00000000000E+00 0. -1.
         -2   -1    0    0    0  501 -0.00000000000E+00 -0.00000000000E+00 -0.80252175771E+02  0.80252175771E+02  0.00000000000E+00 0.  1.
         23    2    1    2    0    0 -0.61321138840E+02  0.93826698594E+02  0.10363235087E+03  0.17449698064E+03  0.84532837820E+02 0.  0.
          5    1    1    2  502    0  0.88040538178E+02 -0.43209138208E+02  0.31921718513E+02  0.10322128899E+03  0.41800000000E+01 0.  1.
         -5    1    1    2    0  502 -0.26719399338E+02 -0.50617560387E+02  0.80620244746E+02  0.98960396035E+02  0.41800000000E+01 0.  1.
        -11    1    3    3    0    0  0.42357146149E+01  0.69943705202E+02  0.59621142405E+02  0.92004042288E+02  0.00000000000E+00 0. -1.
         11    1    3    3    0    0 -0.65556853455E+02  0.23882993393E+02  0.44011208460E+02  0.82492938355E+02  0.00000000000E+00 0.  1.
</event>
<event>
 7    1  0.6145388E-006  0.6043020E+02  0.7561462E-02  0.1396035E+00
          2   -1    0    0  501    0  0.00000000000E+00  0.00000000000E+00  0.22299160857E+03  0.22299160857E+03  0.00000000000E+00 0. -1.
         -2   -1    0    0    0  501 -0.00000000000E+00 -0.00000000000E+00 -0.50549530762E+02  0.50549530762E+02  0.00000000000E+00 0.  1.
         23    2    1    2    0    0  0.14246428848E+02 -0.46432730059E+01  0.74370990118E+02  0.12026805564E+03  0.93321167569E+02 0.  0.
          5    1    1    2  502    0  0.84599573797E+01 -0.32259242189E+01  0.12003555328E+03  0.12044909263E+03  0.41800000000E+01 0. -1.
         -5    1    1    2    0  502 -0.22706386227E+02  0.78691972248E+01 -0.21964465589E+02  0.32823991059E+02  0.41800000000E+01 0.  1.
        -11    1    3    3    0    0  0.50297299230E+02 -0.17219414504E+01  0.18314203482E+02  0.53555517375E+02  0.00000000000E+00 0.  1.
         11    1    3    3    0    0 -0.36050870382E+02 -0.29213315554E+01  0.56056786635E+02  0.66712538261E+02  0.00000000000E+00 0. -1.
</event>
<event>
 7    1  0.6145388E-006  0.9535856E+02  0.7561462E-02  0.1290371E+00
          2   -1    0    0  501    0  0.00000000000E+00  0.00000000000E+00  0.88099980407E+03  0.88099980407E+03  0.00000000000E+00 0. -1.
         -2   -1    0    0    0  501 -0.00000000000E+00 -0.00000000000E+00 -0.22363875256E+02  0.22363875256E+02  0.00000000000E+00 0.  1.
         23    2    1    2    0    0 -0.11960999820E+02  0.74854002602E+02  0.54309806777E+03  0.55557414604E+03  0.89224062355E+02 0.  0.
          5    1    1    2  502    0  0.88612398118E+00 -0.65681557658E+00 -0.11471682852E+02  0.12259222238E+02  0.41800000000E+01 0. -1.
         -5    1    1    2    0  502  0.11074875839E+02 -0.74197187026E+02  0.32700954390E+03  0.33553031105E+03  0.41800000000E+01 0. -1.
        -11    1    3    3    0    0  0.28912408922E+02  0.62002579483E+02  0.41229884893E+03  0.41793610526E+03  0.00000000000E+00 0.  1.
         11    1    3    3    0    0 -0.40873408742E+02  0.12851423119E+02  0.13079921884E+03  0.13763804077E+03  0.00000000000E+00 0. -1.
</event>
<event>
 7    1  0.6145388E-006  0.2365952E+03  0.7561462E-02  0.1122082E+00
          2   -1    0    0  501    0  0.00000000000E+00  0.00000000000E+00  0.79589524412E+03  0.79589524412E+03  0.00000000000E+00 0. -1.
         -2   -1    0    0    0  501 -0.00000000000E+00 -0.00000000000E+00 -0.75919709698E+02  0.75919709698E+02  0.00000000000E+00 0.  1.
         23    2    1    2    0    0 -0.20052711881E+03 -0.69285680873E+02  0.45315387852E+03  0.50869983030E+03  0.91735755153E+02 0.  0.
          5    1    1    2  502    0  0.65383024736E+02 -0.32611338238E+02  0.52895234932E+02  0.90298491592E+02  0.41800000000E+01 0.  1.
         -5    1    1    2    0  502  0.13514409408E+03  0.10189701911E+03  0.21392642096E+03  0.27281663192E+03  0.41800000000E+01 0.  1.
        -11    1    3    3    0    0 -0.16923739101E+03 -0.17425210301E+02  0.34761860216E+03  0.38701889494E+03  0.00000000000E+00 0.  1.
         11    1    3    3    0    0 -0.31289727800E+02 -0.51860470572E+02  0.10553527636E+03  0.12168093536E+03  0.00000000000E+00 0. -1.
</event>
<event>
 7    1  0.6145388E-006  0.8251755E+02  0.7561462E-02  0.1322055E+00
         -1   -1    0    0    0  501 -0.00000000000E+00  0.00000000000E+00  0.47484261658E+02  0.47484261658E+02  0.00000000000E+00 0.  1.
          1   -1    0    0  501    0  0.00000000000E+00 -0.00000000000E+00 -0.41994156924E+03  0.41994156924E+03  0.00000000000E+00 0. -1.
         23    2    1    2    0    0 -0.59309943356E+02  0.12241220552E+02 -0.27951570265E+03  0.30023578621E+03  0.91350875391E+02 0.  0.
          5    1    1    2  502    0  0.53718317015E+02 -0.96781287415E+01 -0.12384493775E+03  0.13540444884E+03  0.41800000000E+01 0.  1.
         -5    1    1    2    0  502  0.55916263414E+01 -0.25630918106E+01  0.30903332811E+02  0.31785595851E+02  0.41800000000E+01 0.  1.
        -11    1    3    3    0    0 -0.76612395869E+02 -0.70562671366E+01 -0.15491488818E+03  0.17296783714E+03  0.00000000000E+00 0.  1.
         11    1    3    3    0    0  0.17302452512E+02  0.19297487689E+02 -0.12460081447E+03  0.12726794907E+03  0.00000000000E+00 0. -1.
</event>
<event>
 7    1  0.6145388E-006  0.1753290E+03  0.7561462E-02  0.1172402E+00
          1   -1    0    0  501    0  0.00000000000E+00  0.00000000000E+00  0.29679683878E+02  0.29679683878E+02  0.00000000000E+00 0. -1.
         -1   -1    0    0    0  501 -0.00000000000E+00 -0.00000000000E+00 -0.11919842086E+04  0.11919842086E+04  0.00000000000E+00 0.  1.
         23    2    1    2    0    0  0.14193798613E+03 -0.49134864759E+02 -0.45957571360E+03  0.49225711879E+03  0.92447864375E+02 0.  0.
          5    1    1    2  502    0 -0.15672676995E+03  0.66975922369E+02 -0.64259406641E+03  0.66482603828E+03  0.41800000000E+01 0. -1.
         -5    1    1    2    0  502  0.14788783823E+02 -0.17841057610E+02 -0.60134744690E+02  0.64580735382E+02  0.41800000000E+01 0. -1.
        -11    1    3    3    0    0  0.49408744213E+02  0.45975788829E+01 -0.56387907111E+02  0.75112966954E+02  0.00000000000E+00 0. -1.
         11    1    3    3    0    0  0.92529241912E+02 -0.53732443642E+02 -0.40318780649E+03  0.41714415184E+03  0.00000000000E+00 0.  1.
</event>
<event>
 7    1  0.6145388E-006  0.1065105E+03  0.7561462E-02  0.1267172E+00
         -1   -1    0    0    0  501 -0.00000000000E+00  0.00000000000E+00  0.24282864729E+02  0.24282864729E+02  0.00000000000E+00 0.  1.
          1   -1    0    0  501    0  0.00000000000E+00 -0.00000000000E+00 -0.78193835686E+03  0.78193835686E+03  0.00000000000E+00 0. -1.
         23    2    1    2    0    0 -0.47357186449E+02 -0.25173380667E+02 -0.54336660400E+03  0.55393913790E+03  0.93407172932E+02 0.  0.
          5    1    1    2  502    0  0.41774662804E+02 -0.29108280182E+02 -0.28286203055E+02  0.58395171982E+02  0.41800000000E+01 0. -1.
         -5    1    1    2    0  502  0.55825236444E+01  0.54281660849E+02 -0.18600268508E+03  0.19388691170E+03  0.41800000000E+01 0.  1.
        -11    1    3    3    0    0 -0.41983953775E+02 -0.59300721395E+02 -0.39237700162E+03  0.39904754019E+03  0.00000000000E+00 0. -1.
         11    1    3    3    0    0 -0.53732326736E+01  0.34127340729E+02 -0.15098960238E+03  0.15489159771E+03  0.00000000000E+00 0.  1.
</event>
<event>
 7    1  0.6145388E-006  0.1740255E+03  0.7561462E-02  0.1173714E+00
          2   -1    0    0  501    0  0.00000000000E+00  0.00000000000E+00  0.13097108358E+04  0.13097108358E+04  0.00000000000E+00 0.  1.
         -2   -1    0    0    0  501 -0.00000000000E+00 -0.00000000000E+00 -0.26052181899E+02  0.26052181899E+02  0.00000000000E+00 0. -1.
         23    2    1    2    0    0 -0.71472095668E+01  0.14803572102E+03  0.54388411000E+03  0.57098843713E+03  0.90841691583E+02 0.  0.
          5    1    1    2  502    0  0.50912259762E+02 -0.98018361586E+02  0.29470981127E+03  0.31475546486E+03  0.41800000000E+01 0.  1.
         -5    1    1    2    0  502 -0.43765050195E+02 -0.50017359435E+02  0.44506473263E+03  0.45001911570E+03  0.41800000000E+01 0.  1.
        -11    1    3    3    0    0 -0.39115999333E+02  0.31908401711E+02  0.21190098590E+03  0.21783074928E+03  0.00000000000E+00 0. -1.
         11    1    3    3    0    0  0.31968789767E+02  0.11612731931E+03  0.33198312409E+03  0.35315768786E+03  0.00000000000E+00 0.  1.
</event>
<event>
 7    1  0.6145388E-006  0.1706954E+03  0.7561462E-02  0.1177125E+00
         -1   -1    0    0    0  501 -0.00000000000E+00  0.00000000000E+00  0.30826144799E+03  0.30826144799E+03  0.00000000000E+00 0.  1.
          1   -1    0    0  501    0  0.00000000000E+00 -0.00000000000E+00 -0.11907004131E+03  0.11907004131E+03  0.00000000000E+00 0. -1.
         23    2    1    2    0    0 -0.14638854234E+03 -0.10350190553E+02  0.16668959355E+02  0.17239169849E+03  0.88906196250E+02 0.  0.
          5    1    1    2  502    0  0.14721774455E+03  0.44042348211E+02  0.14255292136E+03  0.20964637020E+03  0.41800000000E+01 0. -1.
         -5    1    1    2    0  502 -0.82920221708E+00 -0.33692157658E+02  0.29969525964E+02  0.45293420609E+02  0.41800000000E+01 0.  1.
        -11    1    3    3    0    0 -0.68696607880E+02 -0.27754409803E+02  0.46380505738E+02  0.87410997651E+02  0.00000000000E+00 0.  1.
         11    1    3    3    0    0 -0.77691934457E+02  0.17404219249E+02 -0.29711546384E+02  0.84980700844E+02  0.00000000000E+00 0. -1.
</event>
<event>
 7    1  0.6145388E-006  0.1005195E+03  0.7561462E-02  0.1279207E+00
         -2   -1    0    0    0  501 -0.00000000000E+00  0.00000000000E+00  0.86785673372E+02  0.86785673372E+02  0.00000000000E+00 0.  1.
          2   -1    0    0  501    0  0.00000000000E+00 -0.00000000000E+00 -0.16669434294E+03  0.16669434294E+03  0.00000000000E+00 0. -1.
         23    2    1    2    0    0 -0.14118379987E+02  0.27594032641E+02 -0.78718208556E+02  0.12459858059E+03  0.91473988844E+02 0.  0.
          5    1    1    2  502    0  0.51904575464E+02  0.76431062203E+01 -0.38334495181E+02  0.65111503957E+02  0.41800000000E+01 0. -1.
         -5    1    1    2    0  502 -0.37786195478E+02 -0.35237138861E+02  0.37144034166E+02  0.63769931770E+02  0.41800000000E+01 0. -1.
        -11    1    3    3    0    0  0.48054058239E+01  0.59383294338E+02 -0.49430532113E+02  0.77413468315E+02  0.00000000000E+00 0.  1.
         11    1    3    3    0    0 -0.18923785811E+02 -0.31789261697E+02 -0.29287676443E+02  0.47185112272E+02  0.00000000000E+00 0. -1.
</event>
<event>
 7    1  0.6145388E-006  0.1456763E+03  0.7561462E-02  0.1205889E+00
          2   -1    0    0  501    0  0.00000000000E+00  0.00000000000E+00  0.16671291908E+03  0.16671291908E+03  0.00000000000E+00 0. -1.
         -2   -1    0    0    0  501 -0.00000000000E+00 -0.00000000000E+00 -0.20159631263E+03  0.20159631263E+03  0.00000000000E+00 0.  1.
         23    2    1    2    0    0  0.59661175092E+02  0.94990412072E+02  0.79005401259E+02  0.16533126825E+03  0.92249339476E+02 0.  0.
          5    1    1    2  502    0 -0.78418281764E+02 -0.27657441219E+02 -0.10247214277E+03  0.13203171367E+03  0.41800000000E+01 0.  1.
         -5    1    1    2    0  502  0.18757106672E+02 -0.67332970853E+02 -0.11416652035E+02  0.70946249783E+02  0.41800000000E+01 0.  1.
        -11    1    3    3    0    0  0.60338811452E+02  0.20716114861E+02  0.11224516324E+02  0.64775916428E+02  0.00000000000E+00 0.  1.
         11    1    3    3    0    0 -0.67763635986E+00  0.74274297210E+02  0.67780884935E+02  0.10055535182E+03  0.00000000000E+00 0. -1.
</event>
<event>
 7    1  0.6145388E-006  0.7204127E+02  0.7561462E-02  0.1353286E+00
          2   -1    0    0  501    0  0.00000000000E+00  0.00000000000E+00  0.44269799577E+03  0.44269799577E+03  0.00000000000E+00 0. -1.
         -2   -1    0    0    0  501 -0.00000000000E+00 -0.00000000000E+00 -0.13836689069E+03  0.13836689069E+03  0.00000000000E+00 0.  1.
         23    2    1    2    0    0 -0.16564691693E+02  0.49170205416E+02  0.40757346987E+03  0.42110397486E+03  0.92305612988E+02 0.  0.
          5    1    1    2  502    0  0.21390901461E+02 -0.32186691708E+02  0.14005072429E+02  0.41317892518E+02  0.41800000000E+01 0. -1.
         -5    1    1    2    0  502 -0.48262097686E+01 -0.16983513708E+02 -0.11724743722E+03  0.11864301907E+03  0.41800000000E+01 0.  1.
        -11    1    3    3    0    0 -0.37729693728E+02  0.53497463284E+02  0.38226248376E+03  0.38782742922E+03  0.00000000000E+00 0. -1.
         11    1    3    3    0    0  0.21165002035E+02 -0.43272578686E+01  0.25310986117E+02  0.33276545644E+02  0.00000000000E+00 0.  1.
</event>
<event>
 7    1  0.6145388E-006  0.9009446E+02  0.7561462E-02  0.1302623E+00
          1   -1    0    0  501    0  0.00000000000E+00  0.00000000000E+00  0.30451650812E+03  0.30451650812E+03  0.00000000000E+00 0. -1.
         -1   -1    0    0    0  501 -0.00000000000E+00 -0.00000000000E+00 -0.41491269231E+02  0.41491269231E+02  0.00000000000E+00 0.  1.
         23    2    1    2    0    0  0.13740751361E+02 -0.22911487263E+01  0.15616800149E+03  0.18090508501E+03  0.90244930523E+02 0.  0.
          5    1    1    2  502    0 -0.79923403086E+00 -0.42269739809E+02  0.11048531030E+03  0.11837164302E+03  0.41800000000E+01 0. -1.
         -5    1    1    2    0  502 -0.12941517330E+02  0.44560888535E+02 -0.36280728942E+01  0.46731049322E+02  0.41800000000E+01 0. -1.
        -11    1    3    3    0    0 -0.34771781858E+02 -0.19224799880E+02  0.74051942729E+02  0.84037848414E+02  0.00000000000E+00 0. -1.
         11    1    3    3    0    0  0.48512533219E+02  0.16933651154E+02  0.82116058756E+02  0.96867236599E+02  0.00000000000E+00 0.  1.
</event>
<event>
 7    1  0.6145388E-006  0.7965394E+02  0.7561462E-02  0.1330036E+00
         -1   -1    0    0    0  501 -0.00000000000E+00  0.00000000000E+00  0.65932142697E+03  0.65932142697E+03  0.00000000000E+00 0.  1.
          1   -1    0    0  501    0  0.00000000000E+00 -0.00000000000E+00 -0.28886975073E+02  0.28886975073E+02  0.00000000000E+00 0. -1.
         23    2    1    2    0    0  0.46362351160E+02  0.18632440628E+02  0.19856176772E+03  0.23582004306E+03  0.11699436594E+03 0.  0.
          5    1    1    2  502    0 -0.19259516273E+02 -0.20173374148E+02  0.10456926209E+02  0.30078459026E+02  0.41800000000E+01 0.  1.
         -5    1    1    2    0  502 -0.27102834887E+02  0.15409335204E+01  0.42141575797E+03  0.42230989995E+03  0.41800000000E+01 0.  1.
        -11    1    3    3    0    0  0.14366361694E+00  0.48570926753E+02  0.16344181516E+03  0.17050625358E+03  0.00000000000E+00 0.  1.
         11    1    3    3    0    0  0.46218687543E+02 -0.29938486125E+02  0.35119952557E+02  0.65313789488E+02  0.00000000000E+00 0. -1.
</event>
<event>
 7    1  0.6145388E-006  0.9675330E+02  0.7561462E-02  0.1287275E+00
         -1   -1    0    0    0  501 -0.00000000000E+00  0.00000000000E+00  0.35685572107E+02  0.35685572107E+02  0.00000000000E+00 0.  1.
          1   -1    0    0  501    0  0.00000000000E+00 -0.00000000000E+00 -0.38216610624E+03  0.38216610624E+03  0.00000000000E+00 0. -1.
         23    2    1    2    0    0  0.34661630783E+02  0.18671277955E+02 -0.19766431300E+03  0.21949841102E+03  0.86938636616E+02 0.  0.
          5    1    1    2  502    0 -0.65279634655E+02 -0.67095407335E+01 -0.25277431708E+02  0.70447637230E+02  0.41800000000E+01 0.  1.
         -5    1    1    2    0  502  0.30618003872E+02 -0.11961737222E+02 -0.12353878942E+03  0.12790563010E+03  0.41800000000E+01 0.  1.
        -11    1    3    3    0    0  0.57026516899E+02 -0.10366978524E+02 -0.10668009637E+03  0.12140898169E+03  0.00000000000E+00 0.  1.
         11    1    3    3    0    0 -0.22364886116E+02  0.29038256479E+02 -0.90984216623E+02  0.98089429323E+02  0.00000000000E+00 0. -1.
</event>
<event>
 7    1  0.6145388E-006  0.1885194E+03  0.7561462E-02  0.1159804E+00
          2   -1    0    0  501    0  0.00000000000E+00  0.00000000000E+00  0.53736434241E+03  0.53736434241E+03  0.00000000000E+00 0. -1.
         -2   -1    0    0    0  501 -0.00000000000E+00 -0.00000000000E+00 -0.84513157074E+02  0.84513157074E+02  0.00000000000E+00 0.  1.
         23    2    1    2    0    0  0.14157289805E+03  0.11161437382E+03  0.26312313548E+03  0.33180354969E+03  0.91428426964E+02 0.  0.
          5    1    1    2  502    0  0.84115780747E+01 -0.15047750703E+02 -0.11492312404E+02  0.21136108708E+02  0.41800000000E+01 0. -1.
         -5    1    1    2    0  502 -0.14998447612E+03 -0.96566623117E+02  0.20122036226E+03  0.26893784108E+03  0.41800000000E+01 0. -1.
        -11    1    3    3    0    0  0.48547687493E+02  0.47260271203E+02  0.32955312813E+02  0.75342311072E+02  0.00000000000E+00 0.  1.
         11    1    3    3    0    0  0.93025210557E+02  0.64354102618E+02  0.23016782266E+03  0.25646123862E+03  0.00000000000E+00 0. -1.
</event>
<event>
 7    1  0.6145388E-006  0.2121374E+03  0.7561462E-02  0.1139885E+00
          1   -1    0    0  501    0  0.00000000000E+00  0.00000000000E+00  0.59348000172E+03  0.59348000172E+03  0.00000000000E+00 0. -1.
         -1   -1    0    0    0  501 -0.00000000000E+00 -0.00000000000E+00 -0.21189366338E+03  0.21189366338E+03  0.00000000000E+00 0.  1.
         23    2    1    2    0    0  0.12808148838E+03 -0.13259850942E+03  0.50860247572E+03  0.54892141112E+03  0.93010778452E+02 0.  0.
          5    1    1    2  502    0 -0.14233039908E+02  0.10258708606E+03 -0.73418733373E+02  0.12702154330E+03  0.41800000000E+01 0.  1.
         -5    1    1    2    0  502 -0.11384844847E+03  0.30011423358E+02 -0.53597404011E+02  0.12943071069E+03  0.41800000000E+01 0.  1.
        -11    1    3    3    0    0  0.11735695723E+03 -0.64584581816E+02  0.28408138681E+03  0.31407970000E+03  0.00000000000E+00 0.  1.
         11    1    3    3    0    0  0.10724531153E+02 -0.68013927605E+02  0.22452108891E+03  0.23484171112E+03  0.00000000000E+00 0. -1.
</event>
<event>
 7    1  0.6145388E-006  0.1695113E+03  0.7561462E-02  0.1178358E+00
         -2   -1    0    0    0  501 -0.00000000000E+00  0.00000000000E+00  0.58924544896E+02  0.58924544896E+02  0.00000000000E+00 0. -1.
          2   -1    0    0  501    0  0.00000000000E+00 -0.00000000000E+00 -0.51973198191E+03  0.51973198191E+03  0.00000000000E+00 0.  1.
         23    2    1    2    0    0  0.57774982413E+02 -0.11936096681E+03 -0.27580276408E+03  0.31892781092E+03  0.89793067198E+02 0.  0.
          5    1    1    2  502    0 -0.27435967357E+02 -0.22762657013E+02 -0.48210089335E+02  0.60104542031E+02  0.41800000000E+01 0. -1.
         -5    1    1    2    0  502 -0.30339015056E+02  0.14212362382E+03 -0.13679458360E+03  0.19962417385E+03  0.41800000000E+01 0. -1.
        -11    1    3    3    0    0  0.63544178494E+02 -0.33773977526E+02 -0.15361529455E+03  0.16963550011E+03  0.00000000000E+00 0.  1.
         11    1    3    3    0    0 -0.57691960806E+01 -0.85586989283E+02 -0.12218746953E+03  0.14929231081E+03  0.00000000000E+00 0. -1.
</event>
<event>
 7    1  0.6145388E-006  0.8851445E+02  0.7561462E-02  0.1306490E+00
          1   -1    0    0  501    0  0.00000000000E+00  0.00000000000E+00  0.37222803714E+03  0.37222803714E+03  0.00000000000E+00 0. -1.
         -1   -1    0    0    0  501 -0.00000000000E+00 -0.00000000000E+00 -0.34276881602E+02  0.34276881602E+02  0.00000000000E+00 0.  1.
         23    2    1    2    0    0 -0.34570193413E+01  0.39102304691E+02  0.16544454450E+03  0.18983318542E+03  0.84402605214E+02 0.  0.
          5    1    1    2  502    0  0.14303624280E+02 -0.62775409558E+02  0.28957806253E+02  0.70720383594E+02  0.41800000000E+01 0.  1.
         -5    1    1    2    0  502 -0.10846604939E+02  0.23673104866E+02  0.14354880478E+03  0.14595134973E+03  0.41800000000E+01 0.  1.
        -11    1    3    3    0    0  0.27878684082E+01  0.62172762729E+02  0.81455498700E+02  0.10250962347E+03  0.00000000000E+00 0.  1.
         11    1    3    3    0    0 -0.62448877495E+01 -0.23070458038E+02  0.83989045804E+02  0.87323561953E+02  0.00000000000E+00 0. -1.
</event>
<event>
 7    1  0.6145388E-006  0.2272784E+03  0.7561462E-02  0.1128570E+00
         -3   -1    0    0    0  501 -0.00000000000E+00  0.00000000000E+00  0.33665736779E+03  0.33665736779E+03  0.00000000000E+00 0.  1.
          3   -1    0    0  501    0  0.00000000000E+00 -0.00000000000E+00 -0.29585187913E+03  0.29585187913E+03  0.00000000000E+00 0. -1.
         23    2    1    2    0    0 -0.65811927165E+02 -0.20807158345E+03 -0.18041278235E+03  0.29753143035E+03  0.91384825972E+02 0.  0.
          5    1    1    2  502    0  0.79968039901E+01  0.46468311974E+02  0.13459809542E+03  0.14267926473E+03  0.41800000000E+01 0.  1.
         -5    1    1    2    0  502  0.57815123175E+02  0.16160327147E+03  0.86620175592E+02  0.19229855183E+03  0.41800000000E+01 0.  1.
        -11    1    3    3    0    0 -0.60513764204E+02 -0.53201195285E+02 -0.75306911837E+02  0.11028786791E+03  0.00000000000E+00 0. -1.
         11    1    3    3    0    0 -0.52981629609E+01 -0.15487038816E+03 -0.10510587051E+03  0.18724356244E+03  0.00000000000E+00 0.  1.
</event>
<event>
 7    1  0.6145388E-006  0.1244827E+03  0.7561462E-02  0.1235880E+00
         -1   -1    0    0    0  501 -0.00000000000E+00  0.00000000000E+00  0.41528870966E+03  0.41528870966E+03  0.00000000000E+00 0.  1.
          1   -1    0    0  501    0  0.00000000000E+00 -0.00000000000E+00 -0.16975472455E+03  0.16975472455E+03  0.00000000000E+00 0. -1.
         23    2    1    2    0    0  0.55786114460E+02  0.37208811098E+01 -0.13246383655E+03  0.17030436375E+03  0.91274162805E+02 0.  0.
          5    1    1    2  502    0  0.36222620700E+02 -0.31168456736E+02  0.25063585274E+03  0.25518494083E+03  0.41800000000E+01 0. -1.
         -5    1    1    2    0  502 -0.92008735160E+02  0.27447575626E+02  0.12736196892E+03  0.15955412963E+03  0.41800000000E+01 0.  1.
        -11    1    3    3    0    0 -0.66387223318E+01  0.34609895820E+02 -0.61437036336E+02  0.70826738995E+02  0.00000000000E+00 0.  1.
         11    1    3    3    0    0  0.62424836792E+02 -0.30889014710E+02 -0.71026800214E+02  0.99477624755E+02  0.00000000000E+00 0. -1.
</event>
<event>
 7    1  0.6145388E-006  0.1094263E+03  0.7561462E-02  0.1261636E+00
          1   -1    0    0  501    0  0.00000000000E+00  0.00000000000E+00  0.13454299532E+03  0.13454299532E+03  0.00000000000E+00 0. -1.
         -1   -1    0    0    0  501 -0.00000000000E+00 -0.00000000000E+00 -0.13083202545E+03  0.13083202545E+03  0.00000000000E+00 0.  1.
         23    2    1    2    0    0  0.68191954593E+01 -0.20770202061E+02  0.72558917539E+02  0.12087061605E+03  0.94164784229E+02 0.  0.
          5    1    1    2  502    0  0.58768514437E+02  0.16075252521E+02 -0.30399012011E+02  0.68218211380E+02  0.41800000000E+01 0. -1.
         -5    1    1    2    0  502 -0.65587709896E+02  0.46949495399E+01 -0.38448935659E+02  0.76286193337E+02  0.41800000000E+01 0. -1.
        -11    1    3    3    0    0  0.26424931668E+02  0.28500320382E+02  0.12669386657E+02  0.40878584048E+02  0.00000000000E+00 0.  1.
         11    1    3    3    0    0 -0.19605736208E+02 -0.49270522443E+02  0.59889530883E+02  0.79992031999E+02  0.00000000000E+00 0. -1.
</event>
<event>
 7    1  0.6145388E-006  0.1278057E+03  0.7561462E-02  0.1230748E+00
         -1   -1    0    0    0  501 -0.00000000000E+00  0.00000000000E+00  0.27170506297E+03  0.27170506297E+03  0.00000000000E+00 0.  1.
          1   -1    0    0  501    0  0.00000000000E+00 -0.00000000000E+00 -0.87651912057E+02  0.87651912057E+02  0.00000000000E+00 0. -1.
         23    2    1    2    0    0  0.66800866666E+02  0.52567200451E+02  0.34342580407E+02  0.12936383315E+03  0.91268407166E+02 0.  0.
          5    1    1    2  502    0 -0.10833173821E+03 -0.11286167554E+02  0.64933087196E+02  0.12687364302E+03  0.41800000000E+01 0. -1.
         -5    1    1    2    0  502  0.41530871543E+02 -0.41281032897E+02  0.84777483314E+02  0.10311949886E+03  0.41800000000E+01 0.  1.
        -11    1    3    3    0    0  0.62953165604E+02  0.39579958610E+02  0.63132379363E+02  0.97546765744E+02  0.00000000000E+00 0.  1.
         11    1    3    3    0    0  0.38477010630E+01  0.12987241842E+02 -0.28789798957E+02  0.31817067402E+02  0.00000000000E+00 0. -1.
</event>
<event>
 7    1  0.6145388E-006  0.1540652E+03  0.7561462E-02  0.1195565E+00
         -1   -1    0    0    0  501 -0.00000000000E+00  0.00000000000E+00  0.61951095987E+02  0.61951095987E+02  0.00000000000E+00 0.  1.
          1   -1    0    0  501    0  0.00000000000E+00 -0.00000000000E+00 -0.53798787637E+03  0.53798787637E+03  0.00000000000E+00 0. -1.
         23    2    1    2    0    0 -0.31527632280E+02 -0.14294920110E+03 -0.23239494628E+03  0.28939594618E+03  0.91181889190E+02 0.  0.
          5    1    1    2  502    0 -0.17462493341E+02  0.52778628912E+02 -0.11819392004E+02  0.56988531924E+02  0.41800000000E+01 0.  1.
         -5    1    1    2    0  502  0.48990125621E+02  0.90170572185E+02 -0.23182244210E+03  0.25355449426E+03  0.41800000000E+01 0.  1.
        -11    1    3    3    0    0  0.56739949254E+01 -0.35937702911E+02 -0.13556033324E+03  0.14035781651E+03  0.00000000000E+00 0.  1.
         11    1    3    3    0    0 -0.37201627205E+02 -0.10701149819E+03 -0.96834613039E+02  0.14903812966E+03  0.00000000000E+00 0. -1.
</event>
<event>
 7    1  0.6145388E-006  0.1321051E+03  0.7561462E-02  0.1224365E+00
         -2   -1    0    0    0  501 -0.00000000000E+00  0.00000000000E+00  0.68408379312E+02  0.68408379312E+02  0.00000000000E+00 0.  1.
          2   -1    0    0  501    0  0.00000000000E+00 -0.00000000000E+00 -0.32670347018E+03  0.32670347018E+03  0.00000000000E+00 0. -1.
         23    2    1    2    0    0  0.78554990517E+02 -0.64315829022E+02 -0.12519068379E+03  0.18613227494E+03  0.93086540742E+02 0.  0.
          5    1    1    2  502    0 -0.34608705758E+02 -0.19183788525E+02  0.66094218412E+01  0.40335308522E+02  0.41800000000E+01 0.  1.
         -5    1    1    2    0  502 -0.43946284759E+02  0.83499617547E+02 -0.13971382892E+03  0.16864426603E+03  0.41800000000E+01 0.  1.
        -11    1    3    3    0    0  0.16817908231E+00  0.17013209451E+02  0.65754443892E+00  0.17026742046E+02  0.00000000000E+00 0.  1.
         11    1    3    3    0    0  0.78386811435E+02 -0.81329038472E+02 -0.12584822823E+03  0.16910553289E+03  0.00000000000E+00 0. -1.
</event>
<event>
 7    1  0.6145388E-006  0.1665424E+03  0.7561462E-02  0.1181502E+00
          1   -1    0    0  501    0  0.00000000000E+00  0.00000000000E+00  0.14855160688E+03  0.14855160688E+03  0.00000000000E+00 0. -1.
         -1   -1    0    0    0  501 -0.00000000000E+00 -0.00000000000E+00 -0.23783698081E+03  0.23783698081E+03  0.00000000000E+00 0.  1.
         23    2    1    2    0    0 -0.61060469503E+02 -0.13458320973E+03 -0.10140550674E+02  0.17721801909E+03  0.97274735910E+02 0.  0.
          5    1    1    2  502    0  0.33836453481E+02  0.12809568460E+03 -0.10632911673E+03  0.16993164350E+03  0.41800000000E+01 0.  1.
         -5    1    1    2    0  502  0.27224016023E+02  0.64875251242E+01  0.27184293481E+02  0.39238925096E+02  0.41800000000E+01 0.  1.
        -11    1    3    3    0    0  0.14436360246E+02 -0.74108369043E+02  0.15652453990E+02  0.77106797205E+02  0.00000000000E+00 0. -1.
         11    1    3    3    0    0 -0.75496829750E+02 -0.60474840686E+02 -0.25793004664E+02  0.10011122189E+03  0.00000000000E+00 0.  1.
</event>
<event>
 7    1  0.6145388E-006  0.1149578E+03  0.7561462E-02  0.1251655E+00
         -1   -1    0    0    0  501 -0.00000000000E+00  0.00000000000E+00  0.53484974601E+02  0.53484974601E+02  0.00000000000E+00 0.  1.
          1   -1    0    0  501    0  0.00000000000E+00 -0.00000000000E+00 -0.30583099898E+03  0.30583099898E+03  0.00000000000E+00 0. -1.
         23    2    1    2    0    0  0.18935395154E+02 -0.54832909773E+02 -0.16098005343E+03  0.19390507588E+03  0.91210765074E+02 0.  0.
          5    1    1    2  502    0  0.42229197603E+02 -0.13340340390E+02 -0.18005824063E+02  0.47989081176E+02  0.41800000000E+01 0. -1.
         -5    1    1    2    0  502 -0.61164592757E+02  0.68173250163E+02 -0.73360146882E+02  0.11742181652E+03  0.41800000000E+01 0. -1.
        -11    1    3    3    0    0 -0.28551725780E+02 -0.20558145074E+02 -0.11251549155E+03  0.11788797315E+03  0.00000000000E+00 0. -1.
         11    1    3    3    0    0  0.47487120934E+02 -0.34274764699E+02 -0.48464561886E+02  0.76017102737E+02  0.00000000000E+00 0.  1.
</event>
<event>
 7    1  0.6145388E-006  0.1868087E+03  0.7561462E-02  0.1161372E+00
         -2   -1    0    0    0  501 -0.00000000000E+00  0.00000000000E+00  0.26258462975E+02  0.26258462975E+02  0.00000000000E+00 0.  1.
          2   -1    0    0  501    0  0.00000000000E+00 -0.00000000000E+00 -0.14692153929E+04  0.14692153929E+04  0.00000000000E+00 0. -1.
         23    2    1    2    0    0  0.25954388305E+02  0.15893465289E+03 -0.79033516318E+03  0.81173716653E+03  0.91398595217E+02 0.  0.
          5    1    1    2  502    0  0.16749902291E+02 -0.15248305978E+03 -0.42124035993E+03  0.44832193342E+03  0.41800000000E+01 0. -1.
         -5    1    1    2    0  502 -0.42704290596E+02 -0.64515931114E+01 -0.23138140681E+03  0.23541475592E+03  0.41800000000E+01 0. -1.
        -11    1    3    3    0    0  0.41808457984E+02  0.15485409823E+03 -0.76454917681E+03  0.78119343485E+03  0.00000000000E+00 0. -1.
         11    1    3    3    0    0 -0.15854069679E+02  0.40805546604E+01 -0.25785986370E+02  0.30543731678E+02  0.00000000000E+00 0.  1.
</event>
<event>
 7    1  0.6145388E-006  0.1200824E+03  0.7561462E-02  0.1242961E+00
         -1   -1    0    0    0  501 -0.00000000000E+00  0.00000000000E+00  0.25742073007E+02  0.25742073007E+02  0.00000000000E+00 0.  1.
          1   -1    0    0  501    0  0.00000000000E+00 -0.00000000000E+00 -0.58683216375E+03  0.58683216375E+03  0.00000000000E+00 0. -1.
         23    2    1    2    0    0  0.17745508692E+02  0.56911701434E+02 -0.24892749146E+03  0.27103808713E+03  0.89122970286E+02 0.  0.
          5    1    1    2  502    0 -0.35669232796E+02 -0.89740815738E+02 -0.18244235840E+03  0.20646644937E+03  0.41800000000E+01 0. -1.
         -5    1    1    2    0  502  0.17923724104E+02  0.32829114304E+02 -0.12972024087E+03  0.13506970024E+03  0.41800000000E+01 0. -1.
        -11    1    3    3    0    0 -0.35655038425E+02  0.19215759011E+02 -0.75082833742E+02  0.85310955229E+02  0.00000000000E+00 0. -1.
         11    1    3    3    0    0  0.53400547117E+02  0.37695942423E+02 -0.17384465772E+03  0.18572713191E+03  0.00000000000E+00 0.  1.
</event>
<event>
 7    1  0.6145388E-006  0.9870769E+02  0.7561462E-02  0.1283037E+00
         -1   -1    0    0    0  501 -0.00000000000E+00  0.00000000000E+00  0.19238269065E+02  0.19238269065E+02  0.00000000000E+00 0.  1.
          1   -1    0    0  501    0  0.00000000000E+00 -0.00000000000E+00 -0.64834129927E+03  0.64834129927E+03  0.00000000000E+00 0. -1.
         23    2    1    2    0    0 -0.98814356681E+01 -0.23661041977E+02 -0.28990235305E+03  0.30513969847E+03  0.91702636828E+02 0.  0.
          5    1    1    2  502    0 -0.40755195654E+02  0.32966767873E+02 -0.27527787631E+03  0.28025555364E+03  0.41800000000E+01 0. -1.
         -5    1    1    2    0  502  0.50636631322E+02 -0.93057258961E+01 -0.63922800842E+02  0.82184316226E+02  0.41800000000E+01 0. -1.
        -11    1    3    3    0    0  0.37588257948E+02 -0.25909239463E+02 -0.11072507588E+03  0.11976730878E+03  0.00000000000E+00 0.  1.
         11    1    3    3    0    0 -0.47469693616E+02  0.22481974857E+01 -0.17917727717E+03  0.18537238969E+03  0.00000000000E+00 0. -1.
</event>
<event>
 7    1  0.6145388E-006  0.1909941E+03  0.7561462E-02  0.1157568E+00
         -1   -1    0    0    0  501 -0.00000000000E+00  0.00000000000E+00  0.16243519070E+03  0.16243519070E+03  0.00000000000E+00 0.  1.
          1   -1    0    0  501    0  0.00000000000E+00 -0.00000000000E+00 -0.35118202475E+03  0.35118202475E+03  0.00000000000E+00 0. -1.
         23    2    1    2    0    0  0.10295696291E+03 -0.12789425777E+03 -0.23643125292E+03  0.30177082500E+03  0.90602516978E+02 0.  0.
          5    1    1    2  502    0 -0.39024458687E+02  0.13298192702E+03  0.50372881502E+02  0.14751949323E+03  0.41800000000E+01 0. -1.
         -5    1    1    2    0  502 -0.63932504225E+02 -0.50876692590E+01 -0.26884626379E+01  0.64326897223E+02  0.41800000000E+01 0. -1.
        -11    1    3    3    0    0  0.69651432101E+02 -0.30323144187E+02 -0.57543155592E+02  0.95299684274E+02  0.00000000000E+00 0.  1.
         11    1    3    3    0    0  0.33305530811E+02 -0.97571113579E+02 -0.17888809733E+03  0.20647114073E+03  0.00000000000E+00 0. -1.
</event>
<event>
 7    1  0.6145388E-006  0.1273061E+03  0.7561462E-02  0.1231509E+00
          1   -1    0    0  501    0  0.00000000000E+00  0.00000000000E+00  0.68144471258E+03  0.68144471258E+03  0.00000000000E+00 0. -1.
         -1   -1    0    0    0  501 -0.00000000000E+00 -0.00000000000E+00 -0.43461584564E+02  0.43461584564E+02  0.00000000000E+00 0.  1.
         23    2    1    2    0    0  0.11462915342E+03  0.40547549144E+02  0.41410502286E+03  0.44108450362E+03  0.91041874024E+02 0.  0.
          5    1    1    2  502    0 -0.10752210317E+03 -0.43314723819E+02  0.23940492557E+03  0.26602510926E+03  0.41800000000E+01 0. -1.
         -5    1    1    2    0  502 -0.71070502480E+01  0.27671746752E+01 -0.15526820406E+02  0.17796684265E+02  0.41800000000E+01 0. -1.
        -11    1    3    3    0    0  0.59551353303E+02 -0.31196383652E+01  0.80650142700E+02  0.10030224993E+03  0.00000000000E+00 0.  1.
         11    1    3    3    0    0  0.55077800117E+02  0.43667187509E+02  0.33345488016E+03  0.34078225369E+03  0.00000000000E+00 0. -1.
</event>
<event>
 7    1  0.6145388E-006  0.8306395E+02  0.7561462E-02  0.1320575E+00
         -1   -1    0    0    0  501 -0.00000000000E+00  0.00000000000E+00  0.46614086002E+03  0.46614086002E+03  0.00000000000E+00 0.  1.
          1   -1    0    0  501    0  0.00000000000E+00 -0.00000000000E+00 -0.37625522239E+02  0.37625522239E+02  0.00000000000E+00 0. -1.
         23    2    1    2    0    0  0.45043732469E+02  0.68248024795E+01  0.74591491469E+02  0.12563211270E+03  0.90244231824E+02 0.  0.
          5    1    1    2  502    0 -0.76614390558E+01 -0.25566715774E+02  0.59898442233E+01  0.27671379396E+02  0.41800000000E+01 0. -1.
         -5    1    1    2    0  502 -0.37382293413E+02  0.18741913294E+02  0.34793400209E+03  0.35046289017E+03  0.41800000000E+01 0. -1.
        -11    1    3    3    0    0  0.41546005528E+02  0.43553939531E+02  0.28515335400E+02  0.66604358543E+02  0.00000000000E+00 0. -1.
         11    1    3    3    0    0  0.34977269411E+01 -0.36729137052E+02  0.46076156069E+02  0.59027754154E+02  0.00000000000E+00 0.  1.
</event>
<event>
 7    1  0.6145388E-006  0.1229513E+03  0.7561462E-02  0.1238306E+00
          2   -1    0    0  501    0  0.00000000000E+00  0.00000000000E+00  0.11196335469E+03  0.11196335469E+03  0.00000000000E+00 0. -1.
         -2   -1    0    0    0  501 -0.00000000000E+00 -0.00000000000E+00 -0.22595090957E+03  0.22595090957E+03  0.00000000000E+00 0.  1.
         23    2    1    2    0    0  0.22158300430E+02  0.80900421882E+02  0.29256042495E+02  0.13006304005E+03  0.94997946433E+02 0.  0.
          5    1    1    2  502    0  0.49807066455E+02 -0.13290703883E+02 -0.46438714932E+02  0.69508368727E+02  0.41800000000E+01 0.  1.
         -5    1    1    2    0  502 -0.71965366885E+02 -0.67609717999E+02 -0.96804882436E+02  0.13834285548E+03  0.41800000000E+01 0.  1.
        -11    1    3    3    0    0  0.34754701827E+02  0.42287206613E+02 -0.26715045267E+02  0.60908051897E+02  0.00000000000E+00 0.  1.
         11    1    3    3    0    0 -0.12596401397E+02  0.38613215268E+02  0.55971087762E+02  0.69154988155E+02  0.00000000000E+00 0. -1.
</event>
<event>
 7    1  0.6145388E-006  0.1076540E+03  0.7561462E-02  0.1264977E+00
         -2   -1    0    0    0  501 -0.00000000000E+00  0.00000000000E+00  0.56837341410E+02  0.56837341410E+02  0.00000000000E+00 0.  1.
          2   -1    0    0  501    0  0.00000000000E+00 -0.00000000000E+00 -0.26773461542E+03  0.26773461542E+03  0.00000000000E+00 0. -1.
         23    2    1    2    0    0 -0.84440957293E+01  0.24723039668E+02 -0.16187158726E+03  0.18770167454E+03  0.91361788609E+02 0.  0.
          5    1    1    2  502    0  0.11616078200E+02 -0.73613814003E+02 -0.12649650362E+02  0.75706095785E+02  0.41800000000E+01 0.  1.
         -5    1    1    2    0  502 -0.31719824710E+01  0.48890774335E+02 -0.36376036382E+02  0.61164186504E+02  0.41800000000E+01 0.  1.
        -11    1    3    3    0    0  0.31138082633E+02  0.38560971861E+02 -0.61937571949E+02  0.79327117431E+02  0.00000000000E+00 0.  1.
         11    1    3    3    0    0 -0.39582178362E+02 -0.13837932193E+02 -0.99934015314E+02  0.10837455711E+03  0.00000000000E+00 0. -1.
</event>
<event>
 7    1  0.6145388E-006  0.9976368E+02  0.7561462E-02  0.1280794E+00
          1   -1    0    0  501    0  0.00000000000E+00  0.00000000000E+00  0.17524902331E+03  0.17524902331E+03  0.00000000000E+00 0. -1.
         -1   -1    0    0    0  501 -0.00000000000E+00 -0.00000000000E+00 -0.93541459954E+02  0.93541459954E+02  0.00000000000E+00 0.  1.
         23    2    1    2    0    0 -0.34207236498E+02 -0.48940828422E+02  0.90033065020E+02  0.14250751246E+03  0.92935991926E+02 0.  0.
          5    1    1    2  502    0  0.59550278662E+02  0.36013239596E+02  0.32035354096E+02  0.76726302055E+02  0.41800000000E+01 0. -1.
         -5    1    1    2    0  502 -0.25343042164E+02  0.12927588826E+02 -0.40360855764E+02  0.49556668744E+02  0.41800000000E+01 0.  1.
        -11    1    3    3    0    0 -0.61300489919E+02 -0.32996178402E+02  0.32244660832E+02  0.76721678850E+02  0.00000000000E+00 0. -1.
         11    1    3    3    0    0  0.27093253421E+02 -0.15944650020E+02  0.57788404188E+02  0.65785833610E+02  0.00000000000E+00 0.  1.
</event>
<event>
 7    1  0.6145388E-006  0.1344516E+03  0.7561462E-02  0.1220996E+00
          2   -1    0    0  501    0  0.00000000000E+00  0.00000000000E+00  0.13042130057E+03  0.13042130057E+03  0.00000000000E+00 0. -1.
         -2   -1    0    0    0  501 -0.00000000000E+00 -0.00000000000E+00 -0.26246256358E+03  0.26246256358E+03  0.00000000000E+00 0.  1.
         23    2    1    2    0    0  0.74729298868E+02  0.79013122089E+02  0.45475905256E+02  0.15001039658E+03  0.92776718803E+02 0.  0.
          5    1    1    2  502    0 -0.53970486457E+02 -0.91234630341E+02 -0.18831953019E+03  0.21614413948E+03  0.41800000000E+01 0.  1.
         -5    1    1    2    0  502 -0.20758812411E+02  0.12221508252E+02  0.10802361921E+02  0.26729328083E+02  0.41800000000E+01 0.  1.
        -11    1    3    3    0    0 -0.14258939344E+02  0.37606427137E+02  0.31041091937E+02  0.50804626776E+02  0.00000000000E+00 0. -1.
         11    1    3    3    0    0  0.88988238212E+02  0.41406694952E+02  0.14434813318E+02  0.99205769804E+02  0.00000000000E+00 0.  1.
</event>
<event>
 7    1  0.6145388E-006  0.9954000E+02  0.7561462E-02  0.1281266E+00
         -1   -1    0    0    0  501 -0.00000000000E+00  0.00000000000E+00  0.72216931404E+03  0.72216931404E+03  0.00000000000E+00 0.  1.
          1   -1    0    0  501    0  0.00000000000E+00 -0.00000000000E+00 -0.20000980951E+02  0.20000980951E+02  0.00000000000E+00 0. -1.
         23    2    1    2    0    0  0.12261311416E+02 -0.14562631901E+02  0.17270904809E+03  0.19780569629E+03  0.94531836893E+02 0.  0.
          5    1    1    2  502    0 -0.55514544125E+02 -0.30857900492E+02  0.26481114603E+03  0.27235361223E+03  0.41800000000E+01 0.  1.
         -5    1    1    2    0  502  0.43253232710E+02  0.45420532393E+02  0.26464813897E+03  0.27201098647E+03  0.41800000000E+01 0.  1.
        -11    1    3    3    0    0 -0.17354542921E+02  0.20377177556E+02  0.96763475448E+01  0.28461223216E+02  0.00000000000E+00 0. -1.
         11    1    3    3    0    0  0.29615854336E+02 -0.34939809457E+02  0.16303270055E+03  0.16934447307E+03  0.00000000000E+00 0.  1.
</event>
<event>
 7    1  0.6145388E-006  0.9775489E+02  0.7561462E-02  0.1285089E+00
         -2   -1    0    0    0  501 -0.00000000000E+00  0.00000000000E+00  0.53633782305E+02  0.53633782305E+02  0.00000000000E+00 0.  1.
          2   -1    0    0  501    0  0.00000000000E+00 -0.00000000000E+00 -0.23091075583E+03  0.23091075583E+03  0.00000000000E+00 0. -1.
         23    2    1    2    0    0  0.10812468003E+02 -0.14023448046E+02 -0.10024316354E+03  0.13656399377E+03  0.91035520525E+02 0.  0.
          5    1    1    2  502    0 -0.59222217190E+02  0.25199145506E+02 -0.73808912054E+02  0.98017834305E+02  0.41800000000E+01 0.  1.
         -5    1    1    2    0  502  0.48409749188E+02 -0.11175697459E+02 -0.32248979283E+01  0.49962710062E+02  0.41800000000E+01 0.  1.
        -11    1    3    3    0    0 -0.34513470681E+02 -0.41048715573E+01 -0.77403181381E+02  0.84848583470E+02  0.00000000000E+00 0. -1.
         11    1    3    3    0    0  0.45325938683E+02 -0.99185764889E+01 -0.22839982160E+02  0.51715410297E+02  0.00000000000E+00 0.  1.
</event>
<event>
 7    1  0.6145388E-006  0.8992177E+02  0.7561462E-02  0.1303041E+00
          1   -1    0    0  501    0  0.00000000000E+00  0.00000000000E+00  0.20931392078E+02  0.20931392078E+02  0.00000000000E+00 0. -1.
         -1   -1    0    0    0  501 -0.00000000000E+00 -0.00000000000E+00 -0.74851536029E+03  0.74851536029E+03  0.00000000000E+00 0.  1.
         23    2    1    2    0    0 -0.86727733965E+01  0.25794680528E+02 -0.14542015344E+03  0.17337380352E+03  0.90392876802E+02 0.  0.
          5    1    1    2  502    0  0.41198574971E+02 -0.56521746269E+02 -0.47077011981E+03  0.47595588922E+03  0.41800000000E+01 0.  1.
         -5    1    1    2    0  502 -0.32525801575E+02  0.30727065741E+02 -0.11139369496E+03  0.12011705963E+03  0.41800000000E+01 0.  1.
        -11    1    3    3    0    0 -0.30277285240E+02  0.30225646926E+02 -0.14514403563E+03  0.15131786019E+03  0.00000000000E+00 0.  1.
         11    1    3    3    0    0  0.21604511843E+02 -0.44309663979E+01 -0.27611781870E+00  0.22055943332E+02  0.00000000000E+00 0. -1.
</event>
<event>
 7    1  0.6145388E-006  0.1600310E+03  0.7561462E-02  0.1188662E+00
         -2   -1    0    0    0  501 -0.00000000000E+00  0.00000000000E+00  0.62681731098E+03  0.62681731098E+03  0.00000000000E+00 0.  1.
          2   -1    0    0  501    0  0.00000000000E+00 -0.00000000000E+00 -0.55103850223E+02  0.55103850223E+02  0.00000000000E+00 0. -1.
         23    2    1    2    0    0 -0.12712722380E+03 -0.72488414693E+02  0.20148160932E+03  0.26462964864E+03  0.89543904033E+02 0.  0.
          5    1    1    2  502    0  0.10128831510E+03  0.93824412296E+02  0.35365514640E+03  0.37967325175E+03  0.41800000000E+01 0. -1.
         -5    1    1    2    0  502  0.25838908702E+02 -0.21335997603E+02  0.16576705034E+02  0.37618260811E+02  0.41800000000E+01 0. -1.
        -11    1    3    3    0    0 -0.22307974740E+02 -0.23695024141E+02  0.11697905812E+03  0.12142157940E+03  0.00000000000E+00 0.  1.
         11    1    3    3    0    0 -0.10481924906E+03 -0.48793390552E+02  0.84502551200E+02  0.14320806924E+03  0.00000000000E+00 0. -1.
</event>
<event>
 7    1  0.6145388E-006  0.1075348E+03  0.7561462E-02  0.1265204E+00
         -1   -1    0    0    0  501 -0.00000000000E+00  0.00000000000E+00  0.65340329808E+02  0.65340329808E+02  0.00000000000E+00 0.  1.
          1   -1    0    0  501    0  0.00000000000E+00 -0.00000000000E+00 -0.22707553373E+03  0.22707553373E+03  0.00000000000E+00 0. -1.
         23    2    1    2    0    0 -0.53350230445E+02 -0.17380304361E+02 -0.77334550427E+02  0.13141700390E+03  0.90230117792E+02 0.  0.
          5    1    1    2  502    0  0.87562158697E+02 -0.15998710839E+02 -0.53808009589E+02  0.10409545946E+03  0.41800000000E+01 0. -1.
         -5    1    1    2    0  502 -0.34211928252E+02  0.33379015200E+02 -0.30592643905E+02  0.56903400176E+02  0.41800000000E+01 0. -1.
        -11    1    3    3    0    0 -0.70379143195E+01 -0.29320096452E+02 -0.77958104337E+02  0.83586280726E+02  0.00000000000E+00 0. -1.
         11    1    3    3    0    0 -0.46312316125E+02  0.11939792090E+02  0.62355391004E+00  0.47830723176E+02  0.00000000000E+00 0.  1.
</event>
<event>
 7    1  0.6145388E-006  0.1141788E+03  0.7561462E-02  0.1253021E+00
          1   -1    0    0  501    0  0.00000000000E+00  0.00000000000E+00  0.49394329914E+02  0.49394329914E+02  0.00000000000E+00 0. -1.
         -1   -1    0    0    0  501 -0.00000000000E+00 -0.00000000000E+00 -0.33759253062E+03  0.33759253062E+03  0.00000000000E+00 0.  1.
         23    2    1    2    0    0 -0.35724703684E+02  0.32443901852E+02 -0.53297883274E+02  0.11651769881E+03  0.91688868216E+02 0.  0.
          5    1    1    2  502    0 -0.42497805200E+02  0.48888219757E+01 -0.48153837439E+02  0.64546328224E+02  0.41800000000E+01 0. -1.
         -5    1    1    2    0  502  0.78222508885E+02 -0.37332723828E+02 -0.18674647999E+03  0.20592283349E+03  0.41800000000E+01 0. -1.
        -11    1    3    3    0    0 -0.45200924864E+01 -0.29179108391E+02 -0.42343639020E+00  0.29530169335E+02  0.00000000000E+00 0. -1.
         11    1    3    3    0    0 -0.31204611198E+02  0.61623010244E+02 -0.52874446884E+02  0.86987529478E+02  0.00000000000E+00 0.  1.
</event>
<event>
 7    1  0.6145388E-006  0.9861426E+02  0.7561462E-02  0.1283237E+00
          1   -1    0    0  501    0  0.00000000000E+00  0.00000000000E+00  0.58161432026E+02  0.58161432026E+02  0.00000000000E+00 0. -1.
         -1   -1    0    0    0  501 -0.00000000000E+00 -0.00000000000E+00 -0.51065597697E+03  0.51065597697E+03  0.00000000000E+00 0.  1.
         23    2    1    2    0    0  0.26744548543E+02 -0.28630682285E+02 -0.89096392926E+01  0.10365002506E+03  0.95545586914E+02 0.  0.
          5    1    1    2  502    0  0.40343381787E+02  0.50219692978E+01 -0.47217419703E+02  0.62448104479E+02  0.41800000000E+01 0. -1.
         -5    1    1    2    0  502 -0.67087930330E+02  0.23608712987E+02 -0.39636748595E+03  0.40271927946E+03  0.41800000000E+01 0.  1.
        -11    1    3    3    0    0 -0.56776970303E+01  0.23252343131E+02  0.24240012266E+02  0.34065905233E+02  0.00000000000E+00 0.  1.
         11    1    3    3    0    0  0.32422245573E+02 -0.51883025416E+02 -0.33149651559E+02  0.69584119832E+02  0.00000000000E+00 0. -1.
</event>
<event>
 7    1  0.6145388E-006  0.1002864E+03  0.7561462E-02  0.1279695E+00
          2   -1    0    0  501    0  0.00000000000E+00  0.00000000000E+00  0.17463352834E+03  0.17463352834E+03  0.00000000000E+00 0. -1.
         -2   -1    0    0    0  501 -0.00000000000E+00 -0.00000000000E+00 -0.71495601490E+02  0.71495601490E+02  0.00000000000E+00 0.  1.
         23    2    1    2    0    0 -0.90662945599E+01 -0.82843508299E+01  0.88335617272E+02  0.12747330111E+03  0.91079267956E+02 0.  0.
          5    1    1    2  502    0 -0.49349149932E+02  0.80152136025E+01  0.29598084608E+02  0.58250332708E+02  0.41800000000E+01 0. -1.
         -5    1    1    2    0  502  0.58415444492E+02  0.26913722740E+00 -0.14795775027E+02  0.60405496014E+02  0.41800000000E+01 0.  1.
        -11    1    3    3    0    0 -0.46182566822E+02 -0.23386170972E+02  0.52186040486E+02  0.73505954131E+02  0.00000000000E+00 0.  1.
         11    1    3    3    0    0  0.37116272262E+02  0.15101820142E+02  0.36149576786E+02  0.53967346980E+02  0.00000000000E+00 0. -1.
</event>
<event>
 7    1  0.6145388E-006  0.1493474E+03  0.7561462E-02  0.1201277E+00
         -4   -1    0    0    0  501 -0.00000000000E+00  0.00000000000E+00  0.12748927893E+03  0.12748927893E+03  0.00000000000E+00 0.  1.
          4   -1    0    0  501    0  0.00000000000E+00 -0.00000000000E+00 -0.19445708568E+03  0.19445708568E+03  0.00000000000E+00 0. -1.
         23    2    1    2    0    0  0.46259570846E+02  0.98431318912E+02 -0.63163821736E+02  0.15614569185E+03  0.92537215593E+02 0.  0.
          5    1    1    2  502    0  0.11226917726E+02 -0.10620014387E+03  0.49388144052E+01  0.10698774943E+03  0.41800000000E+01 0.  1.
         -5    1    1    2    0  502 -0.57486488572E+02  0.77688249579E+01 -0.87427994141E+01  0.58812923335E+02  0.41800000000E+01 0.  1.
        -11    1    3    3    0    0  0.67460154532E+02  0.62613754517E+02 -0.16308473497E+02  0.93473638060E+02  0.00000000000E+00 0. -1.
         11    1    3    3    0    0 -0.21200583686E+02  0.35817564395E+02 -0.46855348239E+02  0.62672053791E+02  0.00000000000E+00 0.  1.
</event>
<event>
 7    1  0.6145388E-006  0.9281785E+02  0.7561462E-02  0.1296168E+00
          1   -1    0    0  501    0  0.00000000000E+00  0.00000000000E+00  0.74332337308E+02  0.74332337308E+02  0.00000000000E+00 0. -1.
         -1   -1    0    0    0  501 -0.00000000000E+00 -0.00000000000E+00 -0.17286187834E+03  0.17286187834E+03  0.00000000000E+00 0.  1.
         23    2    1    2    0    0  0.29629304809E+02 -0.60034901708E+01 -0.18239608211E+02  0.95509441003E+02  0.88743633097E+02 0.  0.
          5    1    1    2  502    0 -0.26390650808E+02  0.45945022393E+02  0.88323306279E+01  0.53878511459E+02  0.41800000000E+01 0.  1.
         -5    1    1    2    0  502 -0.32386540014E+01 -0.39941532222E+02 -0.89122263448E+02  0.97806263184E+02  0.41800000000E+01 0.  1.
        -11    1    3    3    0    0 -0.30759396053E+02  0.38825530445E+01 -0.14433732822E+02  0.34198644810E+02  0.00000000000E+00 0.  1.
         11    1    3    3    0    0  0.60388700862E+02 -0.98860432153E+01 -0.38058753891E+01  0.61310796192E+02  0.00000000000E+00 0. -1.
</event>
<event>
 7    1  0.6145388E-006  0.9788324E+02  0.7561462E-02  0.1284811E+00
         -2   -1    0    0    0  501 -0.00000000000E+00  0.00000000000E+00  0.12745694471E+03  0.12745694471E+03  0.00000000000E+00 0.  1.
          2   -1    0    0  501    0  0.00000000000E+00 -0.00000000000E+00 -0.11392709521E+03  0.11392709521E+03  0.00000000000E+00 0. -1.
         23    2    1    2    0    0 -0.63544504401E-01 -0.96755111540E+01 -0.46543347426E+02  0.10227881587E+03  0.90559667806E+02 0.  0.
          5    1    1    2  502    0 -0.39077621599E+02 -0.43933161809E+02  0.29112795412E+02  0.65743520389E+02  0.41800000000E+01 0.  1.
         -5    1    1    2    0  502  0.39141166104E+02  0.53608672963E+02  0.30960401516E+02  0.73361703652E+02  0.41800000000E+01 0.  1.
        -11    1    3    3    0    0  0.53083819388E+01 -0.39577030972E+02  0.71691429984E+01  0.40569901537E+02  0.00000000000E+00 0.  1.
         11    1    3    3    0    0 -0.53719264432E+01  0.29901519818E+02 -0.53712490424E+02  0.61708914338E+02  0.00000000000E+00 0. -1.
</event>
<event>
 7    1  0.6145388E-006  0.6927149E+02  0.7561462E-02  0.1362588E+00
         -2   -1    0    0    0  501 -0.00000000000E+00  0.00000000000E+00  0.10025916039E+03  0.10025916039E+03  0.00000000000E+00 0.  1.
          2   -1    0    0  501    0  0.00000000000E+00 -0.00000000000E+00 -0.97998330158E+02  0.97998330158E+02  0.00000000000E+00 0. -1.
         23    2    1    2    0    0 -0.29980085514E+01  0.17625030346E+01 -0.94950138315E+01  0.72574844519E+02  0.71866948572E+02 0.  0.
          5    1    1    2  502    0 -0.30672987016E+02  0.22503440981E+02  0.54083290284E+02  0.66254899263E+02  0.41800000000E+01 0.  1.
         -5    1    1    2    0  502  0.33670995567E+02 -0.24265944016E+02 -0.42327446224E+02  0.59427746763E+02  0.41800000000E+01 0.  1.
        -11    1    3    3    0    0  0.19394515854E-01  0.30079900817E+02 -0.25913850773E+02  0.39703003302E+02  0.00000000000E+00 0. -1.
         11    1    3    3    0    0 -0.30174030673E+01 -0.28317397783E+02  0.16418836942E+02  0.32871841216E+02  0.00000000000E+00 0.  1.
</event>
<event>
 7    1  0.6145388E-006  0.1562841E+03  0.7561462E-02  0.1192957E+00
         -2   -1    0    0    0  501 -0.00000000000E+00  0.00000000000E+00  0.43048083326E+02  0.43048083326E+02  0.00000000000E+00 0.  1.
          2   -1    0    0  501    0  0.00000000000E+00 -0.00000000000E+00 -0.81955817583E+03  0.81955817583E+03  0.00000000000E+00 0. -1.
         23    2    1    2    0    0 -0.81746134819E+02 -0.97627004328E+02 -0.56407126642E+03  0.58506770496E+03  0.88962707070E+02 0.  0.
          5    1    1    2  502    0  0.54412593430E+02 -0.12637748237E+01 -0.17699219864E+02  0.57385209195E+02  0.41800000000E+01 0. -1.
         -5    1    1    2    0  502  0.27333541389E+02  0.98890779152E+02 -0.19473960622E+03  0.22015334501E+03  0.41800000000E+01 0. -1.
        -11    1    3    3    0    0  0.23188853426E+01  0.14763874210E+02 -0.50739507152E+02  0.52894676452E+02  0.00000000000E+00 0.  1.
         11    1    3    3    0    0 -0.84065020162E+02 -0.11239087854E+03 -0.51333175927E+03  0.53217302850E+03  0.00000000000E+00 0. -1.
</event>
<event>
 7    1  0.6145388E-006  0.1114542E+03  0.7561462E-02  0.1257900E+00
         -2   -1    0    0    0  501 -0.00000000000E+00  0.00000000000E+00  0.13788963958E+03  0.13788963958E+03  0.00000000000E+00 0.  1.
          2   -1    0    0  501    0  0.00000000000E+00 -0.00000000000E+00 -0.13836986543E+03  0.13836986543E+03  0.00000000000E+00 0. -1.
         23    2    1    2    0    0  0.29691226689E+02  0.21447603332E+02 -0.17647744106E+02  0.10046073246E+03  0.91865920031E+02 0.  0.
          5    1    1    2  502    0  0.80158581321E+01  0.50427508037E+02 -0.49079238355E+02  0.70946681289E+02  0.41800000000E+01 0. -1.
         -5    1    1    2    0  502 -0.37707084821E+02 -0.71875111369E+02  0.66246756608E+02  0.10485209126E+03  0.41800000000E+01 0.  1.
        -11    1    3    3    0    0 -0.23717604156E+02  0.27886226741E+02 -0.27479266531E+02  0.45774190084E+02  0.00000000000E+00 0.  1.
         11    1    3    3    0    0  0.53408830845E+02 -0.64386234095E+01  0.98315224252E+01  0.54686542374E+02  0.00000000000E+00 0. -1.
</event>
<event>
 7    1  0.6145388E-006  0.1520100E+03  0.7561462E-02  0.1198025E+00
          2   -1    0    0  501    0  0.00000000000E+00  0.00000000000E+00  0.68712157654E+03  0.68712157654E+03  0.00000000000E+00 0. -1.
         -2   -1    0    0    0  501 -0.00000000000E+00 -0.00000000000E+00 -0.63979682359E+02  0.63979682359E+02  0.00000000000E+00 0.  1.
         23    2    1    2    0    0 -0.13020969022E+03  0.11692160187E+02  0.52473193866E+03  0.54513283597E+03  0.68810837509E+02 0.  0.
          5    1    1    2  502    0  0.46917988718E+02  0.44360337939E+02 -0.87300597872E+00  0.64709904859E+02  0.41800000000E+01 0. -1.
         -5    1    1    2    0  502  0.83291701501E+02 -0.56052498126E+02  0.99282961500E+02  0.14125851808E+03  0.41800000000E+01 0. -1.
        -11    1    3    3    0    0 -0.40386776227E+02 -0.18018182822E+02  0.26588779177E+03  0.26954046898E+03  0.00000000000E+00 0. -1.
         11    1    3    3    0    0 -0.89822913992E+02  0.29710343008E+02  0.25884414689E+03  0.27559236699E+03  0.00000000000E+00 0.  1.
</event>
<event>
 7    1  0.6145388E-006  0.1023208E+03  0.7561462E-02  0.1275490E+00
          1   -1    0    0  501    0  0.00000000000E+00  0.00000000000E+00  0.34097958464E+02  0.34097958464E+02  0.00000000000E+00 0. -1.
         -1   -1    0    0    0  501 -0.00000000000E+00 -0.00000000000E+00 -0.44966152994E+03  0.44966152994E+03  0.00000000000E+00 0.  1.
         23    2    1    2    0    0  0.10839923071E+02  0.36281855118E+01 -0.68305674897E+02  0.11448155197E+03  0.91157516725E+02 0.  0.
          5    1    1    2  502    0 -0.66488833487E+02  0.11251043922E+02 -0.19970770876E+03  0.21082692500E+03  0.41800000000E+01 0. -1.
         -5    1    1    2    0  502  0.55648910416E+02 -0.14879229433E+02 -0.14755018782E+03  0.15845101143E+03  0.41800000000E+01 0. -1.
        -11    1    3    3    0    0 -0.27822937919E+02 -0.19769622877E+02 -0.19350118510E+01  0.34186227256E+02  0.00000000000E+00 0. -1.
         11    1    3    3    0    0  0.38662860990E+02  0.23397808389E+02 -0.66370663046E+02  0.80295324712E+02  0.00000000000E+00 0.  1.
</event>
<event>
 7    1  0.6145388E-006  0.9838179E+02  0.7561462E-02  0.1283736E+00
         -2   -1    0    0    0  501 -0.00000000000E+00  0.00000000000E+00  0.21677718378E+02  0.21677718378E+02  0.00000000000E+00 0. -1.
          2   -1    0    0  501    0  0.00000000000E+00 -0.00000000000E+00 -0.55646042361E+03  0.55646042361E+03  0.00000000000E+00 0.  1.
         23    2    1    2    0    0  0.14383105234E+02 -0.15711534507E+02 -0.22592836240E+03  0.24423270460E+03  0.90289883315E+02 0.  0.
          5    1    1    2  502    0 -0.52994606328E+02  0.50281070855E+02 -0.15278037276E+03  0.16939872812E+03  0.41800000000E+01 0.  1.
         -5    1    1    2    0  502  0.38611501094E+02 -0.34569536348E+02 -0.15607397007E+03  0.16450670927E+03  0.41800000000E+01 0.  1.
        -11    1    3    3    0    0 -0.18933058744E+02 -0.29896872871E+02 -0.18983860836E+03  0.19310872830E+03  0.00000000000E+00 0.  1.
         11    1    3    3    0    0  0.33316163978E+02  0.14185338365E+02 -0.36089754040E+02  0.51123976307E+02  0.00000000000E+00 0. -1.
</event>
<event>
 7    1  0.6145388E-006  0.1249689E+03  0.7561462E-02  0.1235118E+00
          2   -1    0    0  501    0  0.00000000000E+00  0.00000000000E+00  0.62782627666E+03  0.62782627666E+03  0.00000000000E+00 0.  1.
         -2   -1    0    0    0  501 -0.00000000000E+00 -0.00000000000E+00 -0.42194111123E+02  0.42194111123E+02  0.00000000000E+00 0. -1.
         23    2    1    2    0    0  0.53190828961E+02 -0.88801148655E+02  0.40179809906E+03  0.42474772996E+03  0.90851601001E+02 0.  0.
          5    1    1    2  502    0 -0.61043572132E+02  0.73095210605E+02  0.45251761640E+02  0.10551976992E+03  0.41800000000E+01 0.  1.
         -5    1    1    2    0  502  0.78527431717E+01  0.15705938050E+02  0.13858230483E+03  0.13975288791E+03  0.41800000000E+01 0.  1.
        -11    1    3    3    0    0 -0.21464003472E+02 -0.12443550373E+01  0.45352315733E+02  0.50190481237E+02  0.00000000000E+00 0. -1.
         11    1    3    3    0    0  0.74654832433E+02 -0.87556793618E+02  0.35644578333E+03  0.37455724872E+03  0.00000000000E+00 0.  1.
</event>
<event>
 7    1  0.6145388E-006  0.1008049E+03  0.7561462E-02  0.1278612E+00
          2   -1    0    0  501    0  0.00000000000E+00  0.00000000000E+00  0.31306446951E+03  0.31306446951E+03  0.00000000000E+00 0. -1.
         -2   -1    0    0    0  501 -0.00000000000E+00 -0.00000000000E+00 -0.51088202008E+02  0.51088202008E+02  0.00000000000E+00 0.  1.
         23    2    1    2    0    0  0.74361859303E+01  0.65896303647E+00  0.20960337989E+03  0.22833439222E+03  0.90262321667E+02 0.  0.
          5    1    1    2  502    0 -0.53227871194E+02  0.25802955925E+02 -0.26834812135E+01  0.59360527944E+02  0.41800000000E+01 0.  1.
         -5    1    1    2    0  502  0.45791685264E+02 -0.26461918962E+02  0.55056368819E+02  0.76457751353E+02  0.41800000000E+01 0.  1.
        -11    1    3    3    0    0 -0.42647515777E+01 -0.43431597991E+02  0.12191470907E+03  0.12949010811E+03  0.00000000000E+00 0. -1.
         11    1    3    3    0    0  0.11700937508E+02  0.44090561027E+02  0.87688670825E+02  0.98844284111E+02  0.00000000000E+00 0.  1.
</event>
<event>
 7    1  0.6145388E-006  0.3022566E+03  0.7561462E-02  0.1084118E+00
          2   -1    0    0  501    0  0.00000000000E+00  0.00000000000E+00  0.80461096779E+03  0.80461096779E+03  0.00000000000E+00 0. -1.
         -2   -1    0    0    0  501 -0.00000000000E+00 -0.00000000000E+00 -0.15917794245E+03  0.15917794245E+03  0.00000000000E+00 0.  1.
         23    2    1    2    0    0  0.20445915366E+03  0.20030677919E+03  0.56689140227E+03  0.64167978707E+03  0.91982258359E+02 0.  0.
          5    1    1    2  502    0 -0.13740209550E+03 -0.20197277398E+03  0.71333805669E+02  0.25451585708E+03  0.41800000000E+01 0.  1.
         -5    1    1    2    0  502 -0.67057058165E+02  0.16659947843E+01  0.72078173905E+01  0.67593266084E+02  0.41800000000E+01 0.  1.
        -11    1    3    3    0    0  0.12910686358E+03  0.16573102025E+03  0.33511388835E+03  0.39552075984E+03  0.00000000000E+00 0. -1.
         11    1    3    3    0    0  0.75352290089E+02  0.34575758945E+02  0.23177751392E+03  0.24615902723E+03  0.00000000000E+00 0.  1.
</event>
<event>
 7    1  0.6145388E-006  0.1093894E+03  0.7561462E-02  0.1261705E+00
          3   -1    0    0  501    0  0.00000000000E+00  0.00000000000E+00  0.32494784738E+03  0.32494784738E+03  0.00000000000E+00 0. -1.
         -3   -1    0    0    0  501 -0.00000000000E+00 -0.00000000000E+00 -0.59637984674E+02  0.59637984674E+02  0.00000000000E+00 0.  1.
         23    2    1    2    0    0  0.53615300813E+02 -0.14102732406E+02  0.21669913720E+03  0.23938210730E+03  0.85274789301E+02 0.  0.
          5    1    1    2  502    0  0.18740921971E+02 -0.39896506067E+02  0.41277541922E+01  0.44468686818E+02  0.41800000000E+01 0. -1.
         -5    1    1    2    0  502 -0.72356222784E+02  0.53999238473E+02  0.44482971318E+02  0.10073503794E+03  0.41800000000E+01 0. -1.
        -11    1    3    3    0    0  0.59814788102E+02  0.87415204419E+01  0.20348216397E+03  0.21227155747E+03  0.00000000000E+00 0. -1.
         11    1    3    3    0    0 -0.61994872891E+01 -0.22844252848E+02  0.13216973222E+02  0.27110549828E+02  0.00000000000E+00 0.  1.
</event>
<event>
 7    1  0.6145388E-006  0.1444121E+03  0.7561462E-02  0.1207513E+00
         -3   -1    0    0    0  501 -0.00000000000E+00  0.00000000000E+00  0.59792979716E+02  0.59792979716E+02  0.00000000000E+00 0.  1.
          3   -1    0    0  501    0  0.00000000000E+00 -0.00000000000E+00 -0.40528585879E+03  0.40528585879E+03  0.00000000000E+00 0. -1.
         23    2    1    2    0    0 -0.39726955929E+02  0.28554585751E+02 -0.15669303867E+03  0.18495603878E+03  0.85219906836E+02 0.  0.
          5    1    1    2  502    0 -0.66950870841E+02  0.33406480769E+02 -0.34431694926E+02  0.82470758934E+02  0.41800000000E+01 0. -1.
         -5    1    1    2    0  502  0.10667782677E+03 -0.61961066520E+02 -0.15436814548E+03  0.19765204079E+03  0.41800000000E+01 0.  1.
        -11    1    3    3    0    0  0.22095541250E+02  0.16211465565E+02 -0.18506689516E+02  0.33068445922E+02  0.00000000000E+00 0.  1.
         11    1    3    3    0    0 -0.61822497179E+02  0.12343120186E+02 -0.13818634915E+03  0.15188759286E+03  0.00000000000E+00 0. -1.
</event>
<event>
 7    1  0.6145388E-006  0.6795216E+02  0.7561462E-02  0.1367199E+00
          1   -1    0    0  501    0  0.00000000000E+00  0.00000000000E+00  0.90819661838E+02  0.90819661838E+02  0.00000000000E+00 0. -1.
         -1   -1    0    0    0  501 -0.00000000000E+00 -0.00000000000E+00 -0.15296477051E+03  0.15296477051E+03  0.00000000000E+00 0.  1.
         23    2    1    2    0    0 -0.41487091917E+02  0.13760928940E+02  0.72283732000E+01  0.94217481649E+02  0.83151322949E+02 0.  0.
          5    1    1    2  502    0  0.22594820251E+02 -0.20368517071E+02  0.33055644868E+02  0.45117074900E+02  0.41800000000E+01 0. -1.
         -5    1    1    2    0  502  0.18892271666E+02  0.66075881317E+01 -0.10242912674E+03  0.10444987580E+03  0.41800000000E+01 0. -1.
        -11    1    3    3    0    0 -0.88863718799E+01  0.41195793028E+02 -0.16721294357E+02  0.45339416112E+02  0.00000000000E+00 0.  1.
         11    1    3    3    0    0 -0.32600720037E+02 -0.27434864089E+02  0.23949667557E+02  0.48878065537E+02  0.00000000000E+00 0. -1.
</event>
<event>
 7    1  0.6145388E-006  0.1426661E+03  0.7561462E-02  0.1209786E+00
          3   -1    0    0  501    0  0.00000000000E+00  0.00000000000E+00  0.82848491056E+02  0.82848491056E+02  0.00000000000E+00 0. -1.
         -3   -1    0    0    0  501 -0.00000000000E+00 -0.00000000000E+00 -0.28520950884E+03  0.28520950884E+03  0.00000000000E+00 0.  1.
         23    2    1    2    0    0 -0.65847041653E+02 -0.66663232722E+02 -0.28756165126E+02  0.13446405834E+03  0.92053497815E+02 0.  0.
          5    1    1    2  502    0  0.26880331517E+02 -0.36401758613E+02 -0.41750781755E+02  0.61710942544E+02  0.41800000000E+01 0.  1.
         -5    1    1    2    0  502  0.38966710136E+02  0.10306499133E+03 -0.13185407091E+03  0.17188299902E+03  0.41800000000E+01 0.  1.
        -11    1    3    3    0    0 -0.81691526276E+02 -0.25597821268E+02 -0.29184000742E+02  0.90445894424E+02  0.00000000000E+00 0. -1.
         11    1    3    3    0    0  0.15844484622E+02 -0.41065411454E+02  0.42783561549E+00  0.44018163911E+02  0.00000000000E+00 0.  1.
</event>
<event>
 7    1  0.6145388E-006  0.1180330E+03  0.7561462E-02  0.1246378E+00
         -2   -1    0    0    0  501 -0.00000000000E+00  0.00000000000E+00  0.11879402735E+03  0.11879402735E+03  0.00000000000E+00 0.  1.
          2   -1    0    0  501    0  0.00000000000E+00 -0.00000000000E+00 -0.14496170241E+03  0.14496170241E+03  0.00000000000E+00 0. -1.
         23    2    1    2    0    0 -0.57943631573E+02 -0.40194879620E+02 -0.28948963149E+02  0.12012909468E+03  0.92843223419E+02 0.  0.
          5    1    1    2  502    0  0.30076330512E+02  0.73944342707E+02  0.36834241025E+02  0.88014687338E+02  0.41800000000E+01 0.  1.
         -5    1    1    2    0  502  0.27867301061E+02 -0.33749463087E+02 -0.34052952936E+02  0.55611947734E+02  0.41800000000E+01 0.  1.
        -11    1    3    3    0    0 -0.25340531380E+01 -0.54801630205E+02  0.22065123435E+01  0.54904542573E+02  0.00000000000E+00 0.  1.
         11    1    3    3    0    0 -0.55409578435E+02  0.14606750586E+02 -0.31155475492E+02  0.65224552111E+02  0.00000000000E+00 0. -1.
</event>
<event>
 6    1  0.6145388E-006  0.1738056E+03  0.7561462E-02  0.1173936E+00
         -2   -1    0    0    0  501 -0.00000000000E+00  0.00000000000E+00  0.13361487491E+03  0.13361487491E+03  0.00000000000E+00 0.  1.
          2   -1    0    0  501    0  0.00000000000E+00 -0.00000000000E+00 -0.25890432427E+03  0.25890432427E+03  0.00000000000E+00 0. -1.
          5    1    1    2  502    0  0.23597982362E+02  0.11731560760E+03 -0.46218607455E+01  0.11982758679E+03  0.41800000000E+01 0. -1.
         -5    1    1    2    0  502  0.41473852513E+02 -0.45301154928E+02 -0.19129037090E+02  0.64464467268E+02  0.41800000000E+01 0.  1.
        -11    1    1    2    0    0  0.19389384768E+02  0.28846383963E+02  0.95478013800E+01  0.36044730830E+02  0.00000000000E+00 0.  1.
         11    1    1    2    0    0 -0.84461219643E+02 -0.10086083664E+03 -0.11108635290E+03  0.17218241429E+03  0.00000000000E+00 0. -1.
</event>
<event>
 7    1  0.6145388E-006  0.8500852E+02  0.7561462E-02  0.1315410E+00
          1   -1    0    0  501    0  0.00000000000E+00  0.00000000000E+00  0.64527633364E+03  0.64527633364E+03  0.00000000000E+00 0. -1.
         -1   -1    0    0    0  501 -0.00000000000E+00 -0.00000000000E+00 -0.25351140276E+02  0.25351140276E+02  0.00000000000E+00 0.  1.
         23    2    1    2    0    0  0.57822053971E+02  0.12574441838E+02  0.35481513472E+03  0.37157502506E+03  0.93127401509E+02 0.  0.
          5    1    1    2  502    0 -0.46382605558E+02 -0.13660287577E+02  0.18189519407E+02  0.51829340834E+02  0.41800000000E+01 0. -1.
         -5    1    1    2    0  502 -0.11439448413E+02  0.10858457384E+01  0.24692053924E+03  0.24722310802E+03  0.41800000000E+01 0. -1.
        -11    1    3    3    0    0  0.29718208552E+02  0.52561748403E+02  0.16993676534E+03  0.18034526201E+03  0.00000000000E+00 0. -1.
         11    1    3    3    0    0  0.28103845419E+02 -0.39987306565E+02  0.18487836938E+03  0.19122976305E+03  0.00000000000E+00 0.  1.
</event>
<event>
 7    1  0.6145388E-006  0.1286808E+03  0.7561462E-02  0.1229426E+00
          2   -1    0    0  501    0  0.00000000000E+00  0.00000000000E+00  0.93418738205E+02  0.93418738205E+02  0.00000000000E+00 0. -1.
         -2   -1    0    0    0  501 -0.00000000000E+00 -0.00000000000E+00 -0.27406033545E+03  0.27406033545E+03  0.00000000000E+00 0.  1.
         23    2    1    2    0    0 -0.87516354177E+02  0.25043553395E+02  0.27683356332E+01  0.12753417451E+03  0.89280513953E+02 0.  0.
          5    1    1    2  502    0 -0.17932323404E+02 -0.43714537711E+02 -0.60350629274E+02  0.76760666253E+02  0.41800000000E+01 0.  1.
         -5    1    1    2    0  502  0.10544867758E+03  0.18670984315E+02 -0.12305930360E+03  0.16318423288E+03  0.41800000000E+01 0.  1.
        -11    1    3    3    0    0 -0.45769159445E+02  0.37523100179E+02 -0.35947622187E+02  0.69246159058E+02  0.00000000000E+00 0.  1.
         11    1    3    3    0    0 -0.41747194732E+02 -0.12479546784E+02  0.38715957820E+02  0.58288015456E+02  0.00000000000E+00 0. -1.
</event>
<event>
 7    1  0.6145388E-006  0.7813203E+02  0.7561462E-02  0.1334438E+00
          3   -1    0    0  501    0  0.00000000000E+00  0.00000000000E+00  0.23038048406E+02  0.23038048406E+02  0.00000000000E+00 0. -1.
         -3   -1    0    0    0  501 -0.00000000000E+00 -0.00000000000E+00 -0.55269446109E+03  0.55269446109E+03  0.00000000000E+00 0.  1.
         23    2    1    2    0    0 -0.16196138637E+02 -0.26435780119E+02 -0.13638038849E+03  0.16187821699E+03  0.81509394507E+02 0.  0.
          5    1    1    2  502    0  0.41390152985E+02 -0.32380387428E+02 -0.93879212902E+02  0.10766806987E+03  0.41800000000E+01 0.  1.
         -5    1    1    2    0  502 -0.25194014348E+02  0.58816167546E+02 -0.29939681129E+03  0.30618622264E+03  0.41800000000E+01 0.  1.
        -11    1    3    3    0    0 -0.59726303562E+01 -0.28394615429E+02 -0.14530065598E+03  0.14816952159E+03  0.00000000000E+00 0.  1.
         11    1    3    3    0    0 -0.10223508281E+02  0.19588353103E+01  0.89202674935E+01  0.13708695398E+02  0.00000000000E+00 0. -1.
</event>
<event>
 7    1  0.6145388E-006  0.1157367E+03  0.7561462E-02  0.1250301E+00
          2   -1    0    0  501    0  0.00000000000E+00  0.00000000000E+00  0.22574334782E+03  0.22574334782E+03  0.00000000000E+00 0. -1.
         -2   -1    0    0    0  501 -0.00000000000E+00 -0.00000000000E+00 -0.63098279438E+02  0.63098279438E+02  0.00000000000E+00 0.  1.
         23    2    1    2    0    0 -0.15684268844E+02  0.47631656401E+02  0.71781315738E+02  0.12630047297E+03  0.91019125479E+02 0.  0.
          5    1    1    2  502    0 -0.49683654442E+02 -0.59525824577E+01  0.61832776366E+02  0.79653395344E+02  0.41800000000E+01 0.  1.
         -5    1    1    2    0  502  0.65367923286E+02 -0.41679073944E+02  0.29030976281E+02  0.82887758947E+02  0.41800000000E+01 0.  1.
        -11    1    3    3    0    0 -0.20945481325E+02  0.73911109964E+02  0.48935929737E+02  0.91083975447E+02  0.00000000000E+00 0. -1.
         11    1    3    3    0    0  0.52612124811E+01 -0.26279453562E+02  0.22845386000E+02  0.35216497523E+02  0.00000000000E+00 0.  1.
</event>
<event>
 6    1  0.6145388E-006  0.2387234E+03  0.7561462E-02  0.1120646E+00
         -2   -1    0    0    0  501 -0.00000000000E+00  0.00000000000E+00  0.27467179784E+03  0.27467179784E+03  0.00000000000E+00 0.  1.
          2   -1    0    0  501    0  0.00000000000E+00 -0.00000000000E+00 -0.23252867589E+03  0.23252867589E+03  0.00000000000E+00 0. -1.
          5    1    1    2  502    0 -0.81765141824E+01 -0.19763411989E+02  0.24473462905E+02  0.32769965276E+02  0.41800000000E+01 0.  1.
         -5    1    1    2    0  502  0.20419338906E+03  0.20439377984E+02  0.48025183634E+02  0.21079990269E+03  0.41800000000E+01 0.  1.
        -11    1    1    2    0    0 -0.61560609006E+02  0.74268717943E+02 -0.49651600809E+02  0.10849346759E+03  0.00000000000E+00 0. -1.
         11    1    1    2    0    0 -0.13445626588E+03 -0.74944683938E+02  0.19296076222E+02  0.15513713818E+03  0.00000000000E+00 0.  1.
</event>
<event>
 7    1  0.6145388E-006  0.1229816E+03  0.7561462E-02  0.1238258E+00
          2   -1    0    0  501    0  0.00000000000E+00  0.00000000000E+00  0.61732647822E+02  0.61732647822E+02  0.00000000000E+00 0. -1.
         -2   -1    0    0    0  501 -0.00000000000E+00 -0.00000000000E+00 -0.29471489639E+03  0.29471489639E+03  0.00000000000E+00 0.  1.
         23    2    1    2    0    0 -0.44525852611E+01 -0.74924995751E+02 -0.73103385823E+02  0.14001507385E+03  0.92879143966E+02 0.  0.
          5    1    1    2  502    0 -0.46713497564E+02  0.52932623093E+02 -0.33481528736E+02  0.78246396778E+02  0.41800000000E+01 0. -1.
         -5    1    1    2    0  502  0.51166082825E+02  0.21992372658E+02 -0.12639733401E+03  0.13818607358E+03  0.41800000000E+01 0. -1.
        -11    1    3    3    0    0 -0.65201050723E+01  0.21744723979E+02 -0.14979601792E+02  0.27198037814E+02  0.00000000000E+00 0.  1.
         11    1    3    3    0    0  0.20675198112E+01 -0.96669719730E+02 -0.58123784030E+02  0.11281703604E+03  0.00000000000E+00 0. -1.
</event>
<event>
 7    1  0.6145388E-006  0.1315675E+03  0.7561462E-02  0.1225148E+00
         -2   -1    0    0    0  501 -0.00000000000E+00  0.00000000000E+00  0.31845796819E+03  0.31845796819E+03  0.00000000000E+00 0.  1.
          2   -1    0    0  501    0  0.00000000000E+00 -0.00000000000E+00 -0.73152084764E+02  0.73152084764E+02  0.00000000000E+00 0. -1.
         23    2    1    2    0    0  0.95117150304E+02  0.41457556968E+02  0.79784497960E+02  0.15963771566E+03  0.91392739515E+02 0.  0.
          5    1    1    2  502    0 -0.17937895998E+02 -0.45166826840E+02 -0.52469977334E+00  0.48780714115E+02  0.41800000000E+01 0. -1.
         -5    1    1    2    0  502 -0.77179254306E+02  0.37092698728E+01  0.16604608524E+03  0.18319162317E+03  0.41800000000E+01 0. -1.
        -11    1    3    3    0    0  0.38531678661E+02 -0.27820453248E+02  0.38292899586E+02  0.61032893084E+02  0.00000000000E+00 0.  1.
         11    1    3    3    0    0  0.56585471643E+02  0.69278010216E+02  0.41491598374E+02  0.98604822581E+02  0.00000000000E+00 0. -1.
</event>
<event>
 7    1  0.6145388E-006  0.8339580E+02  0.7561462E-02  0.1319682E+00
         -2   -1    0    0    0  501 -0.00000000000E+00  0.00000000000E+00  0.75985347074E+02  0.75985347074E+02  0.00000000000E+00 0.  1.
          2   -1    0    0  501    0  0.00000000000E+00 -0.00000000000E+00 -0.16120336226E+03  0.16120336226E+03  0.00000000000E+00 0. -1.
         23    2    1    2    0    0 -0.15813515269E+02  0.73265266481E+01 -0.45420422070E+02  0.10476857785E+03  0.92788441656E+02 0.  0.
          5    1    1    2  502    0  0.54220954066E+02 -0.29658656919E+00  0.22439415539E+02  0.58830260862E+02  0.41800000000E+01 0.  1.
         -5    1    1    2    0  502 -0.38407438796E+02 -0.70299400789E+01 -0.62237008654E+02  0.73589870625E+02  0.41800000000E+01 0.  1.
        -11    1    3    3    0    0 -0.22897873770E+02 -0.28534682623E+02 -0.55840153720E+02  0.66758246704E+02  0.00000000000E+00 0. -1.
         11    1    3    3    0    0  0.70843585008E+01  0.35861209272E+02  0.10419731650E+02  0.38010331141E+02  0.00000000000E+00 0.  1.
</event>
<event>
 7    1  0.6145388E-006  0.4483095E+03  0.7561462E-02  0.1028227E+00
          2   -1    0    0  501    0  0.00000000000E+00  0.00000000000E+00  0.56261472024E+03  0.56261472024E+03  0.00000000000E+00 0. -1.
         -2   -1    0    0    0  501 -0.00000000000E+00 -0.00000000000E+00 -0.45459284154E+03  0.45459284154E+03  0.00000000000E+00 0.  1.
         23    2    1    2    0    0  0.29254555185E+02  0.44103539805E+03  0.27461712892E+03  0.52856757014E+03  0.92741885766E+02 0.  0.
          5    1    1    2  502    0 -0.16421036788E+02 -0.32380121573E+02  0.17153441886E+02  0.40371223549E+02  0.41800000000E+01 0. -1.
         -5    1    1    2    0  502 -0.12833518397E+02 -0.40865527648E+03 -0.18374869211E+03  0.44826876809E+03  0.41800000000E+01 0. -1.
        -11    1    3    3    0    0 -0.30978695258E+02  0.21715552277E+03  0.14509947561E+03  0.26300201226E+03  0.00000000000E+00 0. -1.
         11    1    3    3    0    0  0.60233250443E+02  0.22387987528E+03  0.12951765331E+03  0.26556555788E+03  0.00000000000E+00 0.  1.
</event>
<event>
 7    1  0.6145388E-006  0.1961287E+03  0.7561462E-02  0.1153047E+00
         -1   -1    0    0    0  501 -0.00000000000E+00  0.00000000000E+00  0.83602205552E+02  0.83602205552E+02  0.00000000000E+00 0.  1.
          1   -1    0    0  501    0  0.00000000000E+00 -0.00000000000E+00 -0.59921739325E+03  0.59921739325E+03  0.00000000000E+00 0. -1.
         23    2    1    2    0    0  0.13918900494E+03 -0.10935358548E+03 -0.37534319084E+03  0.42464360041E+03  0.90043826600E+02 0.  0.
          5    1    1    2  502    0 -0.11864717461E+03  0.43543718478E+02 -0.14060894004E+03  0.18910725496E+03  0.41800000000E+01 0. -1.
         -5    1    1    2    0  502 -0.20541830327E+02  0.65809867003E+02  0.33694317144E+00  0.69068743429E+02  0.41800000000E+01 0. -1.
        -11    1    3    3    0    0  0.72463313487E+02 -0.10792386764E+03 -0.27436047331E+03  0.30359868630E+03  0.00000000000E+00 0.  1.
         11    1    3    3    0    0  0.66725691452E+02 -0.14297178372E+01 -0.10098271753E+03  0.12104491411E+03  0.00000000000E+00 0. -1.
</event>
<event>
 7    1  0.6145388E-006  0.1907750E+03  0.7561462E-02  0.1157764E+00
          2   -1    0    0  501    0  0.00000000000E+00  0.00000000000E+00  0.78932958213E+03  0.78932958213E+03  0.00000000000E+00 0. -1.
         -2   -1    0    0    0  501 -0.00000000000E+00 -0.00000000000E+00 -0.57917397790E+02  0.57917397790E+02  0.00000000000E+00 0.  1.
         23    2    1    2    0    0 -0.10291353533E+03  0.13085158285E+03  0.47475340283E+03  0.51674053116E+03  0.11796885416E+03 0.  0.
          5    1    1    2  502    0  0.48771143356E+02 -0.13010645221E+03  0.23289421367E+03  0.27122592150E+03  0.41800000000E+01 0. -1.
         -5    1    1    2    0  502  0.54142391974E+02 -0.74513063388E+00  0.23764567835E+02  0.59280527264E+02  0.41800000000E+01 0. -1.
        -11    1    3    3    0    0  0.36818514306E+01  0.60278918616E+02  0.25907908762E+03  0.26602458101E+03  0.00000000000E+00 0. -1.
         11    1    3    3    0    0 -0.10659538676E+03  0.70572664230E+02  0.21567431521E+03  0.25071595014E+03  0.00000000000E+00 0.  1.
</event>
<event>
 7    1  0.6145388E-006  0.2826499E+03  0.7561462E-02  0.1094250E+00
         -1   -1    0    0    0  501 -0.00000000000E+00  0.00000000000E+00  0.48735690398E+03  0.48735690398E+03  0.00000000000E+00 0.  1.
          1   -1    0    0  501    0  0.00000000000E+00 -0.00000000000E+00 -0.17493818029E+03  0.17493818029E+03  0.00000000000E+00 0. -1.
         23    2    1    2    0    0 -0.72483584150E+02 -0.25848064826E+03  0.11348124311E+03  0.30552170718E+03  0.91648270706E+02 0.  0.
          5    1    1    2  502    0  0.99213344601E+02  0.15211281344E+03  0.15409800987E+03  0.23821264620E+03  0.41800000000E+01 0.  1.
         -5    1    1    2    0  502 -0.26729760451E+02  0.10636783482E+03  0.44839470710E+02  0.11856073090E+03  0.41800000000E+01 0.  1.
        -11    1    3    3    0    0 -0.72828789462E+02 -0.16442160222E+03  0.11120262145E+03  0.21143443161E+03  0.00000000000E+00 0.  1.
         11    1    3    3    0    0  0.34520531211E+00 -0.94059046037E+02  0.22786216662E+01  0.94087275573E+02  0.00000000000E+00 0. -1.
</event>
<event>
 7    1  0.6145388E-006  0.1514438E+03  0.7561462E-02  0.1198710E+00
         -1   -1    0    0    0  501 -0.00000000000E+00  0.00000000000E+00  0.13220833677E+03  0.13220833677E+03  0.00000000000E+00 0.  1.
          1   -1    0    0  501    0  0.00000000000E+00 -0.00000000000E+00 -0.21053536318E+03  0.21053536318E+03  0.00000000000E+00 0. -1.
         23    2    1    2    0    0  0.10903480921E+03 -0.71880599029E+02 -0.11401448789E+02  0.15696266719E+03  0.86324247587E+02 0.  0.
          5    1    1    2  502    0 -0.34128266381E+02  0.69286428566E+02 -0.78060188734E+02  0.10989182506E+03  0.41800000000E+01 0. -1.
         -5    1    1    2    0  502 -0.74906542832E+02  0.25941704636E+01  0.11134611112E+02  0.75889207692E+02  0.41800000000E+01 0.  1.
        -11    1    3    3    0    0  0.11665565377E+03 -0.49311247779E+02  0.70281250037E+01  0.12684453183E+03  0.00000000000E+00 0.  1.
         11    1    3    3    0    0 -0.76208445577E+01 -0.22569351251E+02 -0.18429573793E+02  0.30118135365E+02  0.00000000000E+00 0. -1.
</event>
<event>
 7    1  0.6145388E-006  0.1370116E+03  0.7561462E-02  0.1217408E+00
          1   -1    0    0  501    0  0.00000000000E+00  0.00000000000E+00  0.30534071354E+03  0.30534071354E+03  0.00000000000E+00 0. -1.
         -1   -1    0    0    0  501 -0.00000000000E+00 -0.00000000000E+00 -0.68330681385E+02  0.68330681385E+02  0.00000000000E+00 0.  1.
         23    2    1    2    0    0  0.77799059400E+02  0.49598132071E+02  0.13075760664E+03  0.18539267011E+03  0.93596058086E+02 0.  0.
          5    1    1    2  502    0 -0.10546282954E+03 -0.10319065699E+02  0.83395305927E+02  0.13491160432E+03  0.41800000000E+01 0. -1.
         -5    1    1    2    0  502  0.27663770135E+02 -0.39279066372E+02  0.22857119588E+02  0.53367120486E+02  0.41800000000E+01 0. -1.
        -11    1    3    3    0    0  0.93345172998E+02  0.40648412060E+02  0.73988057245E+02  0.12585645530E+03  0.00000000000E+00 0.  1.
         11    1    3    3    0    0 -0.15546113598E+02  0.89497200112E+01  0.56769549391E+02  0.59536214814E+02  0.00000000000E+00 0. -1.
</event>
<event>
 7    1  0.6145388E-006  0.1391994E+03  0.7561462E-02  0.1214410E+00
         -1   -1    0    0    0  501 -0.00000000000E+00  0.00000000000E+00  0.89840949874E+02  0.89840949874E+02  0.00000000000E+00 0.  1.
          1   -1    0    0  501    0  0.00000000000E+00 -0.00000000000E+00 -0.34221621129E+03  0.34221621129E+03  0.00000000000E+00 0. -1.
         23    2    1    2    0    0 -0.10461857066E+03 -0.29821436563E+02 -0.22164176020E+03  0.26345707578E+03  0.91924955859E+02 0.  0.
          5    1    1    2  502    0 -0.21972982318E+02  0.61053930036E+01 -0.32262305961E+02  0.39729290978E+02  0.41800000000E+01 0.  1.
         -5    1    1    2    0  502  0.12659155298E+03  0.23716043559E+02  0.15288047428E+01  0.12887079441E+03  0.41800000000E+01 0.  1.
        -11    1    3    3    0    0 -0.22165745271E+02  0.20135148081E+02 -0.11870854269E+03  0.12242737667E+03  0.00000000000E+00 0. -1.
         11    1    3    3    0    0 -0.82452825386E+02 -0.49956584643E+02 -0.10293321751E+03  0.14102969911E+03  0.00000000000E+00 0.  1.
</event>
<event>
 7    1  0.6145388E-006  0.2441550E+03  0.7561462E-02  0.1117055E+00
         -1   -1    0    0    0  501 -0.00000000000E+00  0.00000000000E+00  0.20599353155E+03  0.20599353155E+03  0.00000000000E+00 0.  1.
          1   -1    0    0  501    0  0.00000000000E+00 -0.00000000000E+00 -0.36774685292E+03  0.36774685292E+03  0.00000000000E+00 0. -1.
         23    2    1    2    0    0 -0.23064017504E+03  0.61778624658E+02 -0.16404213970E+03  0.30418134264E+03  0.92763014224E+02 0.  0.
          5    1    1    2  502    0  0.12921273640E+03 -0.32734692682E+02 -0.60793567708E+02  0.14656337069E+03  0.41800000000E+01 0.  1.
         -5    1    1    2    0  502  0.10142743864E+03 -0.29043931976E+02  0.63082386028E+02  0.12299567114E+03  0.41800000000E+01 0.  1.
        -11    1    3    3    0    0 -0.17337065976E+02  0.28671919794E+02 -0.74364758041E+00  0.33514263427E+02  0.00000000000E+00 0. -1.
         11    1    3    3    0    0 -0.21330310906E+03  0.33106704864E+02 -0.16329849212E+03  0.27066707921E+03  0.00000000000E+00 0.  1.
</event>
<event>
 7    1  0.6145388E-006  0.1097258E+03  0.7561462E-02  0.1261078E+00
          2   -1    0    0  501    0  0.00000000000E+00  0.00000000000E+00  0.60216448514E+02  0.60216448514E+02  0.00000000000E+00 0.  1.
         -2   -1    0    0    0  501 -0.00000000000E+00 -0.00000000000E+00 -0.30371832771E+03  0.30371832771E+03  0.00000000000E+00 0. -1.
         23    2    1    2    0    0  0.24465879817E+02 -0.41135453647E+02 -0.19440447974E+02  0.10289459656E+03  0.88986865103E+02 0.  0.
          5    1    1    2  502    0 -0.56441625202E+01 -0.37657382200E+02 -0.13608800738E+03  0.14137663582E+03  0.41800000000E+01 0. -1.
         -5    1    1    2    0  502 -0.18821717297E+02  0.78792835847E+02 -0.87973423846E+02  0.11966354385E+03  0.41800000000E+01 0. -1.
        -11    1    3    3    0    0  0.39924973268E+02 -0.62192629082E+02 -0.78647425063E+01  0.74322141905E+02  0.00000000000E+00 0.  1.
         11    1    3    3    0    0 -0.15459093451E+02  0.21057175436E+02 -0.11575705467E+02  0.28572454650E+02  0.00000000000E+00 0. -1.
</event>
<event>
 7    1  0.6145388E-006  0.7760691E+02  0.7561462E-02  0.1335983E+00
         -1   -1    0    0    0  501 -0.00000000000E+00  0.00000000000E+00  0.23054137618E+03  0.23054137618E+03  0.00000000000E+00 0.  1.
          1   -1    0    0  501    0  0.00000000000E+00 -0.00000000000E+00 -0.70053563802E+02  0.70053563802E+02  0.00000000000E+00 0. -1.
         23    2    1    2    0    0  0.17491543675E+01 -0.70560985515E+01 -0.44526634932E+01  0.93461629598E+02  0.93072025481E+02 0.  0.
          5    1    1    2  502    0  0.21187620151E+01 -0.58464129481E+02  0.90025874040E+02  0.10744614458E+03  0.41800000000E+01 0. -1.
         -5    1    1    2    0  502 -0.38679163826E+01  0.65520228032E+02  0.74914601828E+02  0.99687165801E+02  0.41800000000E+01 0. -1.
        -11    1    3    3    0    0  0.14635491580E+02  0.23738609769E+01 -0.46329223931E+02  0.48643908353E+02  0.00000000000E+00 0. -1.
         11    1    3    3    0    0 -0.12886337213E+02 -0.94299595283E+01  0.41876560438E+02  0.44817721245E+02  0.00000000000E+00 0.  1.
</event>
<event>
 7    1  0.6145388E-006  0.1052585E+03  0.7561462E-02  0.1269611E+00
         -2   -1    0    0    0  501 -0.00000000000E+00  0.00000000000E+00  0.82344940932E+02  0.82344940932E+02  0.00000000000E+00 0.  1.
          2   -1    0    0  501    0  0.00000000000E+00 -0.00000000000E+00 -0.15126178323E+03  0.15126178323E+03  0.00000000000E+00 0. -1.
         23    2    1    2    0    0 -0.13220547575E+02 -0.73610487079E+01 -0.60383825678E+02  0.10731626768E+03  0.87416285610E+02 0.  0.
          5    1    1    2  502    0  0.24176785482E+02  0.62249065189E+02  0.89454449337E+01  0.67505232820E+02  0.41800000000E+01 0.  1.
         -5    1    1    2    0  502 -0.10956237907E+02 -0.54888016481E+02 -0.17478461555E+02  0.58785223659E+02  0.41800000000E+01 0.  1.
        -11    1    3    3    0    0  0.36713757315E+02 -0.78508264857E+01 -0.34870438946E+02  0.51239466869E+02  0.00000000000E+00 0. -1.
         11    1    3    3    0    0 -0.49934304890E+02  0.48977777780E+00 -0.25513386732E+02  0.56076800815E+02  0.00000000000E+00 0.  1.
</event>
<event>
 7    1  0.6145388E-006  0.1058128E+03  0.7561462E-02  0.1268526E+00
         -1   -1    0    0    0  501 -0.00000000000E+00  0.00000000000E+00  0.26739510344E+02  0.26739510344E+02  0.00000000000E+00 0.  1.
          1   -1    0    0  501    0  0.00000000000E+00 -0.00000000000E+00 -0.52887536579E+03  0.52887536579E+03  0.00000000000E+00 0. -1.
         23    2    1    2    0    0 -0.46400663111E+02 -0.92354109075E+01 -0.25307430813E+03  0.27294176319E+03  0.90621665777E+02 0.  0.
          5    1    1    2  502    0 -0.12300939547E+02 -0.36605275419E+02 -0.16833098680E+03  0.17275431347E+03  0.41800000000E+01 0.  1.
         -5    1    1    2    0  502  0.58701602657E+02  0.45840686326E+02 -0.80730560511E+02  0.10991879947E+03  0.41800000000E+01 0.  1.
        -11    1    3    3    0    0  0.14675463690E+02 -0.30228704873E+02 -0.53496835787E+02  0.63174799343E+02  0.00000000000E+00 0.  1.
         11    1    3    3    0    0 -0.61076126800E+02  0.20993293966E+02 -0.19957747234E+03  0.20976696385E+03  0.00000000000E+00 0. -1.
</event>
<event>
 7    1  0.6145388E-006  0.1199880E+03  0.7561462E-02  0.1243117E+00
         -1   -1    0    0    0  501 -0.00000000000E+00  0.00000000000E+00  0.15454533423E+03  0.15454533423E+03  0.00000000000E+00 0.  1.
          1   -1    0    0  501    0  0.00000000000E+00 -0.00000000000E+00 -0.32079595840E+03  0.32079595840E+03  0.00000000000E+00 0. -1.
         23    2    1    2    0    0 -0.70168190763E+02  0.53290061624E+02 -0.27044194004E+03  0.29944395154E+03  0.93618542608E+02 0.  0.
          5    1    1    2  502    0 -0.21735026921E+02 -0.50436520903E+01 -0.69751544046E+01  0.23748157837E+02  0.41800000000E+01 0. -1.
         -5    1    1    2    0  502  0.91903217683E+02 -0.48246409534E+02  0.11116647027E+03  0.15214918326E+03  0.41800000000E+01 0.  1.
        -11    1    3    3    0    0 -0.96913778335E+01  0.52007990330E+02 -0.19860873725E+03  0.20553390079E+03  0.00000000000E+00 0.  1.
         11    1    3    3    0    0 -0.60476812929E+02  0.12820712945E+01 -0.71833202785E+02  0.93910050746E+02  0.00000000000E+00 0. -1.
</event>
<event>
 7    1  0.6303805E-006  0.2910635E+03  0.7561462E-02  0.1089795E+00
         -3   -1    0    0    0  501 -0.00000000000E+00  0.00000000000E+00  0.46482534259E+03  0.46482534259E+03  0.00000000000E+00 0.  1.
          3   -1    0    0  501    0  0.00000000000E+00 -0.00000000000E+00 -0.19652403616E+03  0.19652403616E+03  0.00000000000E+00 0. -1.
         23    2    1    2    0    0  0.25719518199E+03 -0.11253225686E+03  0.10559292239E+03  0.31359263261E+03  0.91529249379E+02 0.  0.
          5    1    1    2  502    0 -0.21848126190E+03  0.11684905831E+03  0.17862410054E+03  0.30546981180E+03  0.41800000000E+01 0.  1.
         -5    1    1    2    0  502 -0.38713920096E+02 -0.43168014491E+01 -0.15915716509E+02  0.42286934341E+02  0.41800000000E+01 0.  1.
        -11    1    3    3    0    0  0.13229980452E+03 -0.84497011482E+01  0.42775594976E+02  0.13929963119E+03  0.00000000000E+00 0.  1.
         11    1    3    3    0    0  0.12489537748E+03 -0.10408255572E+03  0.62817327418E+02  0.17429300142E+03  0.00000000000E+00 0. -1.
</event>
<event>
 7    1  0.6145388E-006  0.3469526E+03  0.7561462E-02  0.1063873E+00
         -4   -1    0    0    0  501 -0.00000000000E+00  0.00000000000E+00  0.43768294595E+03  0.43768294595E+03  0.00000000000E+00 0.  1.
          4   -1    0    0  501    0  0.00000000000E+00 -0.00000000000E+00 -0.29089579130E+03  0.29089579130E+03  0.00000000000E+00 0. -1.
         23    2    1    2    0    0 -0.49863708993E+02  0.33196877974E+03  0.20338189708E+02  0.34867447769E+03  0.92035804081E+02 0.  0.
          5    1    1    2  502    0 -0.25953345714E+02 -0.22768957391E+03  0.83803553555E+02  0.24404226316E+03  0.41800000000E+01 0. -1.
         -5    1    1    2    0  502  0.75817054706E+02 -0.10427920584E+03  0.42645411380E+02  0.13586199640E+03  0.41800000000E+01 0. -1.
        -11    1    3    3    0    0 -0.45983204182E+02  0.31128978962E+03  0.43183046483E+02  0.31761700788E+03  0.00000000000E+00 0.  1.
         11    1    3    3    0    0 -0.38805048110E+01  0.20678990120E+02 -0.22844856775E+02  0.31057469811E+02  0.00000000000E+00 0. -1.
</event>
<event>
 7    1  0.6145388E-006  0.1441379E+03  0.7561462E-02  0.1207867E+00
          2   -1    0    0  501    0  0.00000000000E+00  0.00000000000E+00  0.24052080635E+03  0.24052080635E+03  0.00000000000E+00 0. -1.
         -2   -1    0    0    0  501 -0.00000000000E+00 -0.00000000000E+00 -0.13895320918E+03  0.13895320918E+03  0.00000000000E+00 0.  1.
         23    2    1    2    0    0  0.11840065971E+02 -0.80733124207E+02  0.15346728767E+03  0.19703950655E+03  0.92813437881E+02 0.  0.
          5    1    1    2  502    0  0.27495281512E+02 -0.37498301192E+02  0.17248437671E+01  0.46717882911E+02  0.41800000000E+01 0. -1.
         -5    1    1    2    0  502 -0.39335347483E+02  0.11823142540E+03 -0.53624534273E+02  0.13571662606E+03  0.41800000000E+01 0.  1.
        -11    1    3    3    0    0  0.37657770025E+02 -0.63618433856E+01  0.22771509397E+02  0.44464843806E+02  0.00000000000E+00 0.  1.
         11    1    3    3    0    0 -0.25817704054E+02 -0.74371280821E+02  0.13069577827E+03  0.15257466275E+03  0.00000000000E+00 0. -1.
</event>
<event>
 7    1  0.6145388E-006  0.9420519E+02  0.7561462E-02  0.1292976E+00
          1   -1    0    0  501    0  0.00000000000E+00  0.00000000000E+00  0.24966753047E+02  0.24966753047E+02  0.00000000000E+00 0. -1.
         -1   -1    0    0    0  501 -0.00000000000E+00 -0.00000000000E+00 -0.46136500722E+03  0.46136500722E+03  0.00000000000E+00 0.  1.
         23    2    1    2    0    0 -0.27489669504E+01  0.16289614417E+02 -0.16320340577E+03  0.19003860484E+03  0.95950045940E+02 0.  0.
          5    1    1    2  502    0  0.49293306829E+02  0.34439222795E+01 -0.63606196243E+02  0.80653030317E+02  0.41800000000E+01 0. -1.
         -5    1    1    2    0  502 -0.46544339879E+02 -0.19733536696E+02 -0.20958865216E+03  0.21564012511E+03  0.41800000000E+01 0.  1.
        -11    1    3    3    0    0 -0.44355742372E+02  0.31786657230E+01 -0.12270400379E+03  0.13051363279E+03  0.00000000000E+00 0.  1.
         11    1    3    3    0    0  0.41606775421E+02  0.13110948694E+02 -0.40499401979E+02  0.59524972048E+02  0.00000000000E+00 0. -1.
</event>
<event>
 7    1  0.6145388E-006  0.1019464E+03  0.7561462E-02  0.1276255E+00
          1   -1    0    0  501    0  0.00000000000E+00  0.00000000000E+00  0.56006293568E+02  0.56006293568E+02  0.00000000000E+00 0. -1.
         -1   -1    0    0    0  501 -0.00000000000E+00 -0.00000000000E+00 -0.20289568411E+03  0.20289568411E+03  0.00000000000E+00 0.  1.
         23    2    1    2    0    0 -0.52618325767E+00  0.34135799523E+02 -0.61647003025E+02  0.11491931482E+03  0.90777564737E+02 0.  0.
          5    1    1    2  502    0  0.43550046588E+02 -0.50532272010E+02 -0.65912937657E+02  0.93872811948E+02  0.41800000000E+01 0. -1.
         -5    1    1    2    0  502 -0.43023863330E+02  0.16396472487E+02 -0.19329449856E+02  0.50109850904E+02  0.41800000000E+01 0.  1.
        -11    1    3    3    0    0  0.39116523880E+02  0.96059297322E+00 -0.70961486798E+01  0.39766575228E+02  0.00000000000E+00 0. -1.
         11    1    3    3    0    0 -0.39642707137E+02  0.33175206550E+02 -0.54550854346E+02  0.75152739595E+02  0.00000000000E+00 0.  1.
</event>
<event>
 7    1  0.6145388E-006  0.1045731E+03  0.7561462E-02  0.1270963E+00
         -2   -1    0    0    0  501 -0.00000000000E+00  0.00000000000E+00  0.28766851657E+03  0.28766851657E+03  0.00000000000E+00 0.  1.
          2   -1    0    0  501    0  0.00000000000E+00 -0.00000000000E+00 -0.59997440985E+02  0.59997440985E+02  0.00000000000E+00 0. -1.
         23    2    1    2    0    0 -0.65103134157E+02  0.37782269094E+01  0.54359529868E+02  0.12419926593E+03  0.90652115780E+02 0.  0.
          5    1    1    2  502    0  0.74574456868E+02  0.19583923229E+02  0.38551064655E+02  0.86304905146E+02  0.41800000000E+01 0.  1.
         -5    1    1    2    0  502 -0.94713227108E+01 -0.23362150138E+02  0.13476048106E+03  0.13716178648E+03  0.41800000000E+01 0.  1.
        -11    1    3    3    0    0  0.70952394125E+01 -0.26981605372E+02 -0.13925707351E+01  0.27933648241E+02  0.00000000000E+00 0.  1.
         11    1    3    3    0    0 -0.72198373570E+02  0.30759832282E+02  0.55752100603E+02  0.96265617693E+02  0.00000000000E+00 0. -1.
</event>
<event>
 7    1  0.6145388E-006  0.1203124E+03  0.7561462E-02  0.1242583E+00
         -1   -1    0    0    0  501 -0.00000000000E+00  0.00000000000E+00  0.18226942441E+03  0.18226942441E+03  0.00000000000E+00 0.  1.
          1   -1    0    0  501    0  0.00000000000E+00 -0.00000000000E+00 -0.12255018202E+03  0.12255018202E+03  0.00000000000E+00 0. -1.
         23    2    1    2    0    0 -0.97360815397E+02 -0.29368749408E+02  0.34488795427E+02  0.14164481251E+03  0.92369497589E+02 0.  0.
          5    1    1    2  502    0  0.64012210790E+02  0.10753802827E+02  0.75661191912E+02  0.99776228467E+02  0.41800000000E+01 0. -1.
         -5    1    1    2    0  502  0.33348604607E+02  0.18614946581E+02 -0.50430744947E+02  0.63398565452E+02  0.41800000000E+01 0. -1.
        -11    1    3    3    0    0  0.10067022202E+02 -0.27967199038E+02  0.41940910474E+01  0.30018320369E+02  0.00000000000E+00 0. -1.
         11    1    3    3    0    0 -0.10742783760E+03 -0.14015503706E+01  0.30294704379E+02  0.11162649214E+03  0.00000000000E+00 0.  1.
</event>
<event>
 7    1  0.6145388E-006  0.1447582E+03  0.7561462E-02  0.1207066E+00
         -2   -1    0    0    0  501 -0.00000000000E+00  0.00000000000E+00  0.13700734644E+02  0.13700734644E+02  0.00000000000E+00 0.  1.
          2   -1    0    0  501    0  0.00000000000E+00 -0.00000000000E+00 -0.16605931566E+04  0.16605931566E+04  0.00000000000E+00 0. -1.
         23    2    1    2    0    0  0.99681437596E+02  0.29306072251E+02 -0.76690087519E+03  0.77940420024E+03  0.92405195209E+02 0.  0.
          5    1    1    2  502    0  0.45815631412E+01  0.31623857541E+02 -0.87632505526E+02  0.93370163925E+02  0.41800000000E+01 0. -1.
         -5    1    1    2    0  502 -0.10426300074E+03 -0.60929929791E+02 -0.79235904122E+03  0.80151952707E+03  0.41800000000E+01 0. -1.
        -11    1    3    3    0    0 -0.11112337464E+02 -0.13672783148E+02 -0.58188966456E+02  0.60797901774E+02  0.00000000000E+00 0.  1.
         11    1    3    3    0    0  0.11079377506E+03  0.42978855398E+02 -0.70871190874E+03  0.71860629846E+03  0.00000000000E+00 0. -1.
</event>
<event>
 7    1  0.6145388E-006  0.1819184E+03  0.7561462E-02  0.1165959E+00
          2   -1    0    0  501    0  0.00000000000E+00  0.00000000000E+00  0.16936070199E+03  0.16936070199E+03  0.00000000000E+00 0. -1.
         -2   -1    0    0    0  501 -0.00000000000E+00 -0.00000000000E+00 -0.25814928190E+03  0.25814928190E+03  0.00000000000E+00 0.  1.
         23    2    1    2    0    0 -0.13967673221E+03 -0.10598191226E+03 -0.75915495938E+02  0.21174208571E+03  0.91267700142E+02 0.  0.
          5    1    1    2  502    0  0.78871978043E+02  0.35974442769E+02 -0.65804062651E+02  0.10891554762E+03  0.41800000000E+01 0. -1.
         -5    1    1    2    0  502  0.60804754166E+02  0.70007469492E+02  0.52930978679E+02  0.10685235055E+03  0.41800000000E+01 0. -1.
        -11    1    3    3    0    0 -0.67046724586E+01 -0.30698052301E+02 -0.46517103730E+02  0.56135229467E+02  0.00000000000E+00 0.  1.
         11    1    3    3    0    0 -0.13297205975E+03 -0.75283859960E+02 -0.29398392208E+02  0.15560685624E+03  0.00000000000E+00 0. -1.
</event>
<event>
 6    1  0.6145388E-006  0.1638510E+03  0.7561462E-02  0.1184416E+00
         -2   -1    0    0    0  501 -0.00000000000E+00  0.00000000000E+00  0.11923842183E+03  0.11923842183E+03  0.00000000000E+00 0.  1.
          2   -1    0    0  501    0  0.00000000000E+00 -0.00000000000E+00 -0.48755895824E+03  0.48755895824E+03  0.00000000000E+00 0. -1.
          5    1    1    2  502    0 -0.10239448869E+03  0.23552717362E+01 -0.20880090591E+03  0.23260582394E+03  0.41800000000E+01 0. -1.
         -5    1    1    2    0  502  0.15923928260E+02  0.64246561016E+02 -0.89310529320E+02  0.11124313525E+03  0.41800000000E+01 0.  1.
        -11    1    1    2    0    0  0.16924560995E+02 -0.85214690645E+02  0.65850925899E+02  0.10901526824E+03  0.00000000000E+00 0.  1.
         11    1    1    2    0    0  0.69545999438E+02  0.18612857893E+02 -0.13606002707E+03  0.15393315265E+03  0.00000000000E+00 0. -1.
</event>
<event>
 7    1  0.6145388E-006  0.1242174E+03  0.7561462E-02  0.1236297E+00
          2   -1    0    0  501    0  0.00000000000E+00  0.00000000000E+00  0.13734087866E+04  0.13734087866E+04  0.00000000000E+00 0.  1.
         -2   -1    0    0    0  501 -0.00000000000E+00 -0.00000000000E+00 -0.13544690507E+02  0.13544690507E+02  0.00000000000E+00 0. -1.
         23    2    1    2    0    0  0.78325775995E+02 -0.30544804951E+02  0.57078466852E+03  0.58360931264E+03  0.87958965914E+02 0.  0.
          5    1    1    2  502    0 -0.56553623370E+02 -0.30244718468E+02  0.60138385168E+03  0.60480828762E+03  0.41800000000E+01 0. -1.
         -5    1    1    2    0  502 -0.21772152626E+02  0.60789523420E+02  0.18769557590E+03  0.19853587686E+03  0.41800000000E+01 0. -1.
        -11    1    3    3    0    0  0.90080507070E+02 -0.45108767482E+02  0.51522561427E+03  0.52498260186E+03  0.00000000000E+00 0.  1.
         11    1    3    3    0    0 -0.11754731074E+02  0.14563962530E+02  0.55559054253E+02  0.58626710779E+02  0.00000000000E+00 0. -1.
</event>
<event>
 7    1  0.6145388E-006  0.7629641E+02  0.7561462E-02  0.1339903E+00
          1   -1    0    0  501    0  0.00000000000E+00  0.00000000000E+00  0.34648838136E+03  0.34648838136E+03  0.00000000000E+00 0. -1.
         -1   -1    0    0    0  501 -0.00000000000E+00 -0.00000000000E+00 -0.44741513648E+02  0.44741513648E+02  0.00000000000E+00 0.  1.
         23    2    1    2    0    0 -0.35241491828E+02  0.22956253694E+02  0.20031886667E+03  0.22478485570E+03  0.92906569634E+02 0.  0.
          5    1    1    2  502    0  0.32918280728E+01  0.65614175621E+01 -0.28311041387E+02  0.29544471512E+02  0.41800000000E+01 0. -1.
         -5    1    1    2    0  502  0.31949663755E+02 -0.29517671256E+02  0.12973904243E+03  0.13690056779E+03  0.41800000000E+01 0. -1.
        -11    1    3    3    0    0  0.11814213824E+01  0.53133649911E+02  0.86411881755E+02  0.10144749291E+03  0.00000000000E+00 0.  1.
         11    1    3    3    0    0 -0.36422913210E+02 -0.30177396217E+02  0.11390698491E+03  0.12333736279E+03  0.00000000000E+00 0. -1.
</event>
<event>
 7    1  0.6145388E-006  0.4304970E+03  0.7561462E-02  0.1033703E+00
          2   -1    0    0  501    0  0.00000000000E+00  0.00000000000E+00  0.26248232086E+03  0.26248232086E+03  0.00000000000E+00 0. -1.
         -2   -1    0    0    0  501 -0.00000000000E+00 -0.00000000000E+00 -0.74086246123E+03  0.74086246123E+03  0.00000000000E+00 0.  1.
         23    2    1    2    0    0 -0.39320361595E+03 -0.16137352268E+03 -0.18993787442E+03  0.47466941642E+03  0.92650749202E+02 0.  0.
          5    1    1    2  502    0  0.31713694151E+03  0.15257696934E+03 -0.17850980558E+03  0.39463754805E+03  0.41800000000E+01 0.  1.
         -5    1    1    2    0  502  0.76066674445E+02  0.87965533439E+01 -0.10993246036E+03  0.13403781762E+03  0.41800000000E+01 0.  1.
        -11    1    3    3    0    0 -0.20211050841E+03 -0.40178381679E+02 -0.64400004730E+02  0.21589423470E+03  0.00000000000E+00 0.  1.
         11    1    3    3    0    0 -0.19109310754E+03 -0.12119514101E+03 -0.12553786969E+03  0.25877518173E+03  0.00000000000E+00 0. -1.
</event>
<event>
 7    1  0.6145388E-006  0.1730190E+03  0.7561462E-02  0.1174736E+00
         -2   -1    0    0    0  501 -0.00000000000E+00  0.00000000000E+00  0.88628860607E+02  0.88628860607E+02  0.00000000000E+00 0.  1.
          2   -1    0    0  501    0  0.00000000000E+00 -0.00000000000E+00 -0.46920859137E+03  0.46920859137E+03  0.00000000000E+00 0. -1.
         23    2    1    2    0    0  0.62741822447E+02  0.14856345757E+03 -0.26563012068E+03  0.32359880650E+03  0.90272860507E+02 0.  0.
          5    1    1    2  502    0 -0.36755722013E+02 -0.66751989753E+02  0.15643981755E+02  0.77903901070E+02  0.41800000000E+01 0. -1.
         -5    1    1    2    0  502 -0.25986100433E+02 -0.81811467813E+02 -0.13059359183E+03  0.15633474441E+03  0.41800000000E+01 0. -1.
        -11    1    3    3    0    0 -0.18771947049E+02  0.62426422607E+02 -0.78275491082E+02  0.10186509088E+03  0.00000000000E+00 0.  1.
         11    1    3    3    0    0  0.81513769496E+02  0.86137034959E+02 -0.18735462960E+03  0.22173371562E+03  0.00000000000E+00 0. -1.
</event>
<event>
 7    1  0.6145388E-006  0.1062958E+03  0.7561462E-02  0.1267587E+00
         -2   -1    0    0    0  501 -0.00000000000E+00  0.00000000000E+00  0.37825301225E+02  0.37825301225E+02  0.00000000000E+00 0.  1.
          2   -1    0    0  501    0  0.00000000000E+00 -0.00000000000E+00 -0.39846900019E+03  0.39846900019E+03  0.00000000000E+00 0. -1.
         23    2    1    2    0    0  0.19887748250E+02 -0.46296777312E+02 -0.19388068090E+03  0.22182557343E+03  0.95278289667E+02 0.  0.
          5    1    1    2  502    0 -0.53991604762E+02 -0.16613637885E+02 -0.41768628995E+02  0.70378953649E+02  0.41800000000E+01 0.  1.
         -5    1    1    2    0  502  0.34103856512E+02  0.62910415196E+02 -0.12499438907E+03  0.14408977434E+03  0.41800000000E+01 0.  1.
        -11    1    3    3    0    0 -0.23534573052E+02 -0.29429178629E+02 -0.21762724904E+02  0.43515156886E+02  0.00000000000E+00 0.  1.
         11    1    3    3    0    0  0.43422321302E+02 -0.16867598683E+02 -0.17211795600E+03  0.17831041655E+03  0.00000000000E+00 0. -1.
</event>
<event>
 7    1  0.6145388E-006  0.1045036E+03  0.7561462E-02  0.1271101E+00
          2   -1    0    0  501    0  0.00000000000E+00  0.00000000000E+00  0.68802636797E+02  0.68802636797E+02  0.00000000000E+00 0. -1.
         -2   -1    0    0    0  501 -0.00000000000E+00 -0.00000000000E+00 -0.21120993513E+03  0.21120993513E+03  0.00000000000E+00 0.  1.
         23    2    1    2    0    0 -0.53962117677E+02  0.12229263016E+02 -0.61910126441E+02  0.12130477444E+03  0.88433701316E+02 0.  0.
          5    1    1    2  502    0  0.44223959031E+02 -0.66566698318E+02 -0.36333211429E+02  0.87888898787E+02  0.41800000000E+01 0.  1.
         -5    1    1    2    0  502  0.97381586463E+01  0.54337435301E+02 -0.44163960465E+02  0.70818898699E+02  0.41800000000E+01 0.  1.
        -11    1    3    3    0    0 -0.58620018040E+02  0.22145100547E+02 -0.79104445805E+02  0.10091692296E+03  0.00000000000E+00 0.  1.
         11    1    3    3    0    0  0.46579003625E+01 -0.99158375309E+01  0.17194319364E+02  0.20387851484E+02  0.00000000000E+00 0. -1.
</event>
<event>
 7    1  0.6145388E-006  0.1186079E+03  0.7561462E-02  0.1245411E+00
         -2   -1    0    0    0  501 -0.00000000000E+00  0.00000000000E+00  0.27024956785E+02  0.27024956785E+02  0.00000000000E+00 0.  1.
          2   -1    0    0  501    0  0.00000000000E+00 -0.00000000000E+00 -0.56510436094E+03  0.56510436094E+03  0.00000000000E+00 0. -1.
         23    2    1    2    0    0 -0.39222263469E+02 -0.45865679158E+02 -0.25880427360E+03  0.28022691326E+03  0.88912453603E+02 0.  0.
          5    1    1    2  502    0  0.24978211946E+02  0.86061541004E+02 -0.22840065626E+03  0.24538710661E+03  0.41800000000E+01 0. -1.
         -5    1    1    2    0  502  0.14244051523E+02 -0.40195861846E+02 -0.50874474294E+02  0.66515297849E+02  0.41800000000E+01 0. -1.
        -11    1    3    3    0    0  0.18664367760E+02 -0.42794889135E+02 -0.84554219217E+02  0.96587665606E+02  0.00000000000E+00 0. -1.
         11    1    3    3    0    0 -0.57886631230E+02 -0.30707900233E+01 -0.17425005438E+03  0.18363924765E+03  0.00000000000E+00 0.  1.
</event>
<event>
 7    1  0.6145388E-006  0.4083185E+03  0.7561462E-02  0.1040937E+00
         -1   -1    0    0    0  501 -0.00000000000E+00  0.00000000000E+00  0.19906623860E+03  0.19906623860E+03  0.00000000000E+00 0.  1.
          1   -1    0    0  501    0  0.00000000000E+00 -0.00000000000E+00 -0.15522009693E+04  0.15522009693E+04  0.00000000000E+00 0. -1.
         23    2    1    2    0    0 -0.85495451887E+01 -0.40368234493E+03 -0.12490474301E+04  0.13159338872E+04  0.92357903310E+02 0.  0.
          5    1    1    2  502    0 -0.10350997816E+02  0.36260256540E+03 -0.52414329806E+02  0.36654126365E+03  0.41800000000E+01 0.  1.
         -5    1    1    2    0  502  0.18900543005E+02  0.41079779535E+02 -0.51672970755E+02  0.68792057094E+02  0.41800000000E+01 0.  1.
        -11    1    3    3    0    0 -0.34945391375E+02 -0.19512017371E+03 -0.71589118252E+03  0.74282787223E+03  0.00000000000E+00 0. -1.
         11    1    3    3    0    0  0.26395846187E+02 -0.20856217123E+03 -0.53315624763E+03  0.57310601493E+03  0.00000000000E+00 0.  1.
</event>
<event>
 7    1  0.6145388E-006  0.1214684E+03  0.7561462E-02  0.1240694E+00
         -1   -1    0    0    0  501 -0.00000000000E+00  0.00000000000E+00  0.44329831717E+02  0.44329831717E+02  0.00000000000E+00 0.  1.
          1   -1    0    0  501    0  0.00000000000E+00 -0.00000000000E+00 -0.44548353522E+03  0.44548353522E+03  0.00000000000E+00 0. -1.
         23    2    1    2    0    0  0.85973052725E+02 -0.11412493769E+02 -0.21413889105E+03  0.24868541354E+03  0.92018256012E+02 0.  0.
          5    1    1    2  502    0 -0.51823097095E+02  0.61194603072E+02 -0.15013934696E+03  0.17026364481E+03  0.41800000000E+01 0. -1.
         -5    1    1    2    0  502 -0.34149955630E+02 -0.49782109303E+02 -0.36875465494E+02  0.70864308587E+02  0.41800000000E+01 0. -1.
        -11    1    3    3    0    0  0.25508431858E+02  0.21430134695E+02 -0.12422833350E+02  0.35556399668E+02  0.00000000000E+00 0.  1.
         11    1    3    3    0    0  0.60464620867E+02 -0.32842628464E+02 -0.20171605770E+03  0.21312901387E+03  0.00000000000E+00 0. -1.
</event>
<event>
 7    1  0.6145388E-006  0.1786250E+03  0.7561462E-02  0.1169140E+00
          1   -1    0    0  501    0  0.00000000000E+00  0.00000000000E+00  0.10079083496E+03  0.10079083496E+03  0.00000000000E+00 0. -1.
         -1   -1    0    0    0  501 -0.00000000000E+00 -0.00000000000E+00 -0.54594967008E+03  0.54594967008E+03  0.00000000000E+00 0.  1.
         23    2    1    2    0    0 -0.17600591844E+03 -0.24182943926E+02 -0.66104147549E+02  0.20982761146E+03  0.89972051794E+02 0.  0.
          5    1    1    2  502    0  0.12564644102E+02  0.28390638281E+01  0.83294710415E+01  0.15899152577E+02  0.41800000000E+01 0.  1.
         -5    1    1    2    0  502  0.16344127434E+03  0.21343880098E+02 -0.38738415860E+03  0.42101374100E+03  0.41800000000E+01 0.  1.
        -11    1    3    3    0    0 -0.13080905761E+03 -0.88884103915E+01 -0.87405073954E+02  0.15757430103E+03  0.00000000000E+00 0.  1.
         11    1    3    3    0    0 -0.45196860830E+02 -0.15294533535E+02  0.21300926406E+02  0.52253310427E+02  0.00000000000E+00 0. -1.
</event>
<event>
 7    1  0.6145388E-006  0.7163854E+02  0.7561462E-02  0.1354608E+00
          2   -1    0    0  501    0  0.00000000000E+00  0.00000000000E+00  0.10274763129E+03  0.10274763129E+03  0.00000000000E+00 0. -1.
         -2   -1    0    0    0  501 -0.00000000000E+00 -0.00000000000E+00 -0.17271803547E+03  0.17271803547E+03  0.00000000000E+00 0.  1.
         23    2    1    2    0    0 -0.18212650232E+02 -0.65292833963E+01  0.46667094914E+02  0.10334325847E+03  0.90153641936E+02 0.  0.
          5    1    1    2  502    0  0.10222513241E+01 -0.20986838053E+02  0.21388628708E+02  0.30272730422E+02  0.41800000000E+01 0. -1.
         -5    1    1    2    0  502  0.17190398907E+02  0.27516121449E+02 -0.13802612780E+03  0.14184967787E+03  0.41800000000E+01 0. -1.
        -11    1    3    3    0    0 -0.10763765721E+02  0.40305243870E+02  0.87503840753E+01  0.42625585713E+02  0.00000000000E+00 0.  1.
         11    1    3    3    0    0 -0.74488845102E+01 -0.46834527267E+02  0.37916710838E+02  0.60717672761E+02  0.00000000000E+00 0. -1.
</event>
<event>
 7    1  0.6145388E-006  0.1359724E+03  0.7561462E-02  0.1218853E+00
          1   -1    0    0  501    0  0.00000000000E+00  0.00000000000E+00  0.32507093655E+03  0.32507093655E+03  0.00000000000E+00 0. -1.
         -1   -1    0    0    0  501 -0.00000000000E+00 -0.00000000000E+00 -0.63342979128E+02  0.63342979128E+02  0.00000000000E+00 0.  1.
         23    2    1    2    0    0  0.71335241814E+02  0.83444482573E+01  0.17219428889E+03  0.20774367811E+03  0.91368572977E+02 0.  0.
          5    1    1    2  502    0 -0.71384854516E+02 -0.66788594009E+02  0.49060489575E+02  0.10945737883E+03  0.41800000000E+01 0. -1.
         -5    1    1    2    0  502  0.49612702285E-01  0.58444145752E+02  0.40473178960E+02  0.71212858736E+02  0.41800000000E+01 0.  1.
        -11    1    3    3    0    0  0.88694455058E+02  0.24261349072E+02  0.12717126355E+03  0.15693262787E+03  0.00000000000E+00 0.  1.
         11    1    3    3    0    0 -0.17359213245E+02 -0.15916900815E+02  0.45023025345E+02  0.50811050247E+02  0.00000000000E+00 0. -1.
</event>
<event>
 7    1  0.6145388E-006  0.6569423E+02  0.7561462E-02  0.1375379E+00
          1   -1    0    0  501    0  0.00000000000E+00  0.00000000000E+00  0.30051451585E+02  0.30051451585E+02  0.00000000000E+00 0. -1.
         -1   -1    0    0    0  501 -0.00000000000E+00 -0.00000000000E+00 -0.40050837107E+03  0.40050837107E+03  0.00000000000E+00 0.  1.
         23    2    1    2    0    0 -0.34310106299E+01 -0.12060749959E+02 -0.15773765498E+03  0.18346868592E+03  0.92856649693E+02 0.  0.
          5    1    1    2  502    0  0.43826991879E+00 -0.13048168179E+02 -0.22001619374E+03  0.22044283767E+03  0.41800000000E+01 0. -1.
         -5    1    1    2    0  502  0.29927407111E+01  0.25108918138E+02  0.72969292273E+01  0.26648299067E+02  0.41800000000E+01 0. -1.
        -11    1    3    3    0    0 -0.44896373811E+02 -0.21105819766E+02 -0.67712236682E+02  0.83940973343E+02  0.00000000000E+00 0. -1.
         11    1    3    3    0    0  0.41465363181E+02  0.90450698077E+01 -0.90025418298E+02  0.99527712579E+02  0.00000000000E+00 0.  1.
</event>
<event>
 7    1  0.6145388E-006  0.5176544E+02  0.7561462E-02  0.1436045E+00
          1   -1    0    0  501    0  0.00000000000E+00  0.00000000000E+00  0.49738974788E+02  0.49738974788E+02  0.00000000000E+00 0. -1.
         -1   -1    0    0    0  501 -0.00000000000E+00 -0.00000000000E+00 -0.27557766857E+03  0.27557766857E+03  0.00000000000E+00 0.  1.
         23    2    1    2    0    0  0.20446531111E+01 -0.26720258352E+02 -0.46339877234E+02  0.10489299941E+03  0.90205345133E+02 0.  0.
          5    1    1    2  502    0 -0.20219339168E+02  0.51126272106E+01 -0.18911290464E+03  0.19030534342E+03  0.41800000000E+01 0.  1.
         -5    1    1    2    0  502  0.18174686057E+02  0.21607631142E+02  0.96140880913E+01  0.30118300527E+02  0.41800000000E+01 0.  1.
        -11    1    3    3    0    0  0.13518416189E+02  0.89732311557E+01  0.21766650159E+02  0.27148729487E+02  0.00000000000E+00 0. -1.
         11    1    3    3    0    0 -0.11473763078E+02 -0.35693489508E+02 -0.68106527393E+02  0.77744269924E+02  0.00000000000E+00 0.  1.
</event>
<event>
 7    1  0.6145388E-006  0.1918295E+03  0.7561462E-02  0.1156822E+00
         -1   -1    0    0    0  501 -0.00000000000E+00  0.00000000000E+00  0.15495171004E+03  0.15495171004E+03  0.00000000000E+00 0.  1.
          1   -1    0    0  501    0  0.00000000000E+00 -0.00000000000E+00 -0.30405088399E+03  0.30405088399E+03  0.00000000000E+00 0. -1.
         23    2    1    2    0    0  0.24279644192E+02 -0.16924520495E+03 -0.16821838413E+03  0.24629229755E+03  0.55937738177E+02 0.  0.
          5    1    1    2  502    0  0.43920438909E+02  0.48626428512E+02 -0.20056995620E+02  0.68653404701E+02  0.41800000000E+01 0. -1.
         -5    1    1    2    0  502 -0.68200083101E+02  0.12061877644E+03  0.39176205804E+02  0.14405689177E+03  0.41800000000E+01 0. -1.
        -11    1    3    3    0    0 -0.13279510619E+02 -0.97413965841E+02 -0.10149135749E+03  0.14130223561E+03  0.00000000000E+00 0.  1.
         11    1    3    3    0    0  0.37559154811E+02 -0.71831239112E+02 -0.66727026645E+02  0.10499006195E+03  0.00000000000E+00 0. -1.
</event>
<event>
 7    1  0.6145388E-006  0.8808335E+02  0.7561462E-02  0.1307561E+00
          2   -1    0    0  501    0  0.00000000000E+00  0.00000000000E+00  0.42648800663E+03  0.42648800663E+03  0.00000000000E+00 0. -1.
         -2   -1    0    0    0  501 -0.00000000000E+00 -0.00000000000E+00 -0.36572853208E+02  0.36572853208E+02  0.00000000000E+00 0.  1.
         23    2    1    2    0    0 -0.85425225221E+01 -0.24635595130E+01  0.28533775601E+03  0.29976144810E+03  0.91434386013E+02 0.  0.
          5    1    1    2  502    0 -0.10227516900E+02 -0.40372089742E+02  0.10838976194E+03  0.11619088013E+03  0.41800000000E+01 0. -1.
         -5    1    1    2    0  502  0.18770039422E+02  0.42835649255E+02 -0.38123645262E+01  0.47108531608E+02  0.41800000000E+01 0. -1.
        -11    1    3    3    0    0  0.96646342962E+01  0.40001430114E+02  0.88896748248E+02  0.97959948021E+02  0.00000000000E+00 0.  1.
         11    1    3    3    0    0 -0.18207156818E+02 -0.42464989627E+02  0.19644100776E+03  0.20180150008E+03  0.00000000000E+00 0. -1.
</event>
<event>
 7    1  0.6145388E-006  0.1409027E+03  0.7561462E-02  0.1212119E+00
         -1   -1    0    0    0  501 -0.00000000000E+00  0.00000000000E+00  0.60214343941E+02  0.60214343941E+02  0.00000000000E+00 0.  1.
          1   -1    0    0  501    0  0.00000000000E+00 -0.00000000000E+00 -0.36389403583E+03  0.36389403583E+03  0.00000000000E+00 0. -1.
         23    2    1    2    0    0  0.41665654733E+02 -0.86047331575E+02 -0.18300094948E+03  0.22573709866E+03  0.91256343037E+02 0.  0.
          5    1    1    2  502    0  0.67941633174E+01  0.10409424105E+03 -0.68978809401E+02  0.12512921410E+03  0.41800000000E+01 0.  1.
         -5    1    1    2    0  502 -0.48459818051E+02 -0.18046909478E+02 -0.51699933015E+02  0.73242067017E+02  0.41800000000E+01 0.  1.
        -11    1    3    3    0    0  0.36962997427E+02  0.23181586815E+01 -0.25128875307E+02  0.44755976279E+02  0.00000000000E+00 0.  1.
         11    1    3    3    0    0  0.47026573060E+01 -0.88365490256E+02 -0.15787207417E+03  0.18098112238E+03  0.00000000000E+00 0. -1.
</event>
<event>
 7    1  0.6145388E-006  0.1069595E+03  0.7561462E-02  0.1266306E+00
         -3   -1    0    0    0  501 -0.00000000000E+00  0.00000000000E+00  0.26389367397E+03  0.26389367397E+03  0.00000000000E+00 0.  1.
          3   -1    0    0  501    0  0.00000000000E+00 -0.00000000000E+00 -0.57720659698E+02  0.57720659698E+02  0.00000000000E+00 0. -1.
         23    2    1    2    0    0  0.42511591844E+02 -0.28863536720E+02  0.60290661564E+02  0.12269273650E+03  0.93692072909E+02 0.  0.
          5    1    1    2  502    0  0.11400417574E+02 -0.42006891060E+02  0.31434766675E+02  0.53853183502E+02  0.41800000000E+01 0. -1.
         -5    1    1    2    0  502 -0.53912009418E+02  0.70870427781E+02  0.11444758603E+03  0.14506841366E+03  0.41800000000E+01 0. -1.
        -11    1    3    3    0    0 -0.27325707435E+01 -0.35250283224E+02 -0.11858524760E+02  0.37291741977E+02  0.00000000000E+00 0. -1.
         11    1    3    3    0    0  0.45244162587E+02  0.63867465034E+01  0.72149186324E+02  0.85400994528E+02  0.00000000000E+00 0.  1.
</event>
<event>
 7    1  0.6145388E-006  0.1415314E+03  0.7561462E-02  0.1211283E+00
         -3   -1    0    0    0  501 -0.00000000000E+00  0.00000000000E+00  0.24963026453E+02  0.24963026453E+02  0.00000000000E+00 0.  1.
          3   -1    0    0  501    0  0.00000000000E+00 -0.00000000000E+00 -0.96702708986E+03  0.96702708986E+03  0.00000000000E+00 0. -1.
         23    2    1    2    0    0 -0.74202063187E+02  0.73040168618E+02 -0.55720485432E+03  0.57413247411E+03  0.91159397373E+02 0.  0.
          5    1    1    2  502    0 -0.28047977880E+02 -0.48313027405E+02 -0.10817172448E+03  0.12181720756E+03  0.41800000000E+01 0.  1.
         -5    1    1    2    0  502  0.10225004107E+03 -0.24727141214E+02 -0.27668748461E+03  0.29604043465E+03  0.41800000000E+01 0.  1.
        -11    1    3    3    0    0 -0.34605154152E+02 -0.43029862469E+01 -0.60043544874E+02  0.69435291211E+02  0.00000000000E+00 0.  1.
         11    1    3    3    0    0 -0.39596909035E+02  0.77343154865E+02 -0.49716130945E+03  0.50469718289E+03  0.00000000000E+00 0. -1.
</event>
<event>
 7    1  0.6145388E-006  0.7619112E+02  0.7561462E-02  0.1340222E+00
          1   -1    0    0  501    0  0.00000000000E+00  0.00000000000E+00  0.85977975914E+02  0.85977975914E+02  0.00000000000E+00 0. -1.
         -1   -1    0    0    0  501 -0.00000000000E+00 -0.00000000000E+00 -0.14357537691E+03  0.14357537691E+03  0.00000000000E+00 0.  1.
         23    2    1    2    0    0 -0.23980341745E+01  0.23626172094E+02  0.39897697822E+01  0.88115292260E+02  0.84761075332E+02 0.  0.
          5    1    1    2  502    0  0.66045663249E+01 -0.75050908042E+02 -0.39312940410E+02  0.85083716292E+02  0.41800000000E+01 0.  1.
         -5    1    1    2    0  502 -0.42065321504E+01  0.51424735949E+02 -0.22274230370E+02  0.56354344275E+02  0.41800000000E+01 0.  1.
        -11    1    3    3    0    0 -0.52527684978E+01  0.10669342006E+02 -0.40228489445E+02  0.41949467204E+02  0.00000000000E+00 0.  1.
         11    1    3    3    0    0  0.28547343232E+01  0.12956830088E+02  0.44218259227E+02  0.46165825055E+02  0.00000000000E+00 0. -1.
</event>
<event>
 7    1  0.6145388E-006  0.1588919E+03  0.7561462E-02  0.1189954E+00
         -1   -1    0    0    0  501 -0.00000000000E+00  0.00000000000E+00  0.16213080437E+03  0.16213080437E+03  0.00000000000E+00 0.  1.
          1   -1    0    0  501    0  0.00000000000E+00 -0.00000000000E+00 -0.18764221454E+03  0.18764221454E+03  0.00000000000E+00 0. -1.
         23    2    1    2    0    0  0.61542102660E+02 -0.11002477550E+03 -0.62385337766E+02  0.16839080752E+03  0.92577816267E+02 0.  0.
          5    1    1    2  502    0  0.19549652644E+02 -0.86903500133E+01 -0.17156155546E+02  0.27740172584E+02  0.41800000000E+01 0. -1.
         -5    1    1    2    0  502 -0.81091755304E+02  0.11871512552E+03  0.54030083141E+02  0.15364203881E+03  0.41800000000E+01 0. -1.
        -11    1    3    3    0    0  0.80252502600E+02 -0.64576859003E+02 -0.23336843501E+02  0.10561838456E+03  0.00000000000E+00 0. -1.
         11    1    3    3    0    0 -0.18710399940E+02 -0.45447916501E+02 -0.39048494265E+02  0.62772422962E+02  0.00000000000E+00 0.  1.
</event>
<event>
 7    1  0.6145388E-006  0.1022664E+03  0.7561462E-02  0.1275601E+00
         -2   -1    0    0    0  501 -0.00000000000E+00  0.00000000000E+00  0.23627716107E+03  0.23627716107E+03  0.00000000000E+00 0.  1.
          2   -1    0    0  501    0  0.00000000000E+00 -0.00000000000E+00 -0.60258229872E+02  0.60258229872E+02  0.00000000000E+00 0. -1.
         23    2    1    2    0    0 -0.15297891275E+02  0.58689248284E+01  0.25676110269E+02  0.94719645075E+02  0.89688788422E+02 0.  0.
          5    1    1    2  502    0 -0.51590804438E+02 -0.26892209469E+02  0.98653786787E+02  0.11460734741E+03  0.41800000000E+01 0. -1.
         -5    1    1    2    0  502  0.66888695713E+02  0.21023284641E+02  0.51689034146E+02  0.87208398461E+02  0.41800000000E+01 0.  1.
        -11    1    3    3    0    0  0.28003152562E+02 -0.10163952279E+02  0.36678998127E+02  0.47252845237E+02  0.00000000000E+00 0.  1.
         11    1    3    3    0    0 -0.43301043837E+02  0.16032877107E+02 -0.11002887859E+02  0.47466799839E+02  0.00000000000E+00 0. -1.
</event>
<event>
 7    1  0.6145388E-006  0.1632911E+03  0.7561462E-02  0.1185030E+00
          1   -1    0    0  501    0  0.00000000000E+00  0.00000000000E+00  0.12516266783E+04  0.12516266783E+04  0.00000000000E+00 0. -1.
         -1   -1    0    0    0  501 -0.00000000000E+00 -0.00000000000E+00 -0.22681633516E+02  0.22681633516E+02  0.00000000000E+00 0.  1.
         23    2    1    2    0    0 -0.32351862893E+02 -0.12237235544E+03  0.65906614224E+03  0.67728946737E+03  0.91275442248E+02 0.  0.
          5    1    1    2  502    0  0.69450325351E+02  0.11385092151E+03  0.36571142508E+03  0.38929127765E+03  0.41800000000E+01 0. -1.
         -5    1    1    2    0  502 -0.37098462458E+02  0.85214339256E+01  0.20416747752E+03  0.20772756685E+03  0.41800000000E+01 0. -1.
        -11    1    3    3    0    0 -0.45347579140E+02 -0.16594956287E+02  0.16863503506E+03  0.17541257240E+03  0.00000000000E+00 0. -1.
         11    1    3    3    0    0  0.12995716247E+02 -0.10577739915E+03  0.49043110718E+03  0.50187689496E+03  0.00000000000E+00 0.  1.
</event>
<event>
 7    1  0.6145388E-006  0.2178039E+03  0.7561462E-02  0.1135531E+00
         -1   -1    0    0    0  501 -0.00000000000E+00  0.00000000000E+00  0.49499659475E+02  0.49499659475E+02  0.00000000000E+00 0.  1.
          1   -1    0    0  501    0  0.00000000000E+00 -0.00000000000E+00 -0.13279146574E+04  0.13279146574E+04  0.00000000000E+00 0. -1.
         23    2    1    2    0    0 -0.34087843810E+02  0.16419255393E+03 -0.97061125784E+03  0.99170218250E+03  0.11517738084E+03 0.  0.
          5    1    1    2  502    0  0.31007912011E+02  0.26911937172E+02 -0.54716503615E+02  0.68535473570E+02  0.41800000000E+01 0. -1.
         -5    1    1    2    0  502  0.30799317991E+01 -0.19110449110E+03 -0.25308723648E+03  0.31717666082E+03  0.41800000000E+01 0.  1.
        -11    1    3    3    0    0 -0.54864938517E+02  0.21438609508E+02 -0.30537036085E+03  0.31099973110E+03  0.00000000000E+00 0.  1.
         11    1    3    3    0    0  0.20777094707E+02  0.14275394442E+03 -0.66524089699E+03  0.68070245140E+03  0.00000000000E+00 0. -1.
</event>
<event>
 7    1  0.6145388E-006  0.7595948E+02  0.7561462E-02  0.1340925E+00
          2   -1    0    0  501    0  0.00000000000E+00  0.00000000000E+00  0.45777404956E+03  0.45777404956E+03  0.00000000000E+00 0. -1.
         -2   -1    0    0    0  501 -0.00000000000E+00 -0.00000000000E+00 -0.26585153403E+02  0.26585153403E+02  0.00000000000E+00 0.  1.
         23    2    1    2    0    0  0.69009384391E+01  0.42708020054E+02  0.16215391876E+03  0.19007207355E+03  0.89229489782E+02 0.  0.
          5    1    1    2  502    0  0.13562690495E+02 -0.14320447956E+02  0.25587336002E+03  0.25666645782E+03  0.41800000000E+01 0. -1.
         -5    1    1    2    0  502 -0.20463628934E+02 -0.28387572097E+02  0.13161617373E+02  0.37620671586E+02  0.41800000000E+01 0.  1.
        -11    1    3    3    0    0  0.44923682288E+02  0.92491182487E+01  0.55473226555E+02  0.71978901652E+02  0.00000000000E+00 0. -1.
         11    1    3    3    0    0 -0.38022743849E+02  0.33458901805E+02  0.10668069220E+03  0.11809317190E+03  0.00000000000E+00 0.  1.
</event>
<event>
 7    1  0.6145388E-006  0.7362286E+02  0.7561462E-02  0.1348189E+00
         -1   -1    0    0    0  501 -0.00000000000E+00  0.00000000000E+00  0.11061099069E+03  0.11061099069E+03  0.00000000000E+00 0.  1.
          1   -1    0    0  501    0  0.00000000000E+00 -0.00000000000E+00 -0.13057717175E+03  0.13057717175E+03  0.00000000000E+00 0. -1.
         23    2    1    2    0    0 -0.30972562018E+02  0.17619005185E+02 -0.63563106593E+02  0.11513299988E+03  0.89138152326E+02 0.  0.
          5    1    1    2  502    0 -0.85255251623E+01  0.25079612077E+01 -0.34656097447E+02  0.36020715415E+02  0.41800000000E+01 0. -1.
         -5    1    1    2    0  502  0.39498087180E+02 -0.20126966393E+02  0.78253022976E+02  0.90034447141E+02  0.41800000000E+01 0.  1.
        -11    1    3    3    0    0 -0.23163879365E+02  0.52378564793E+02 -0.24582018044E+02  0.62324593605E+02  0.00000000000E+00 0. -1.
         11    1    3    3    0    0 -0.78086826531E+01 -0.34759559607E+02 -0.38981088550E+02  0.52808406276E+02  0.00000000000E+00 0.  1.
</event>
<event>
 7    1  0.6145388E-006  0.1355501E+03  0.7561462E-02  0.1219445E+00
          2   -1    0    0  501    0  0.00000000000E+00  0.00000000000E+00  0.60060215298E+03  0.60060215298E+03  0.00000000000E+00 0. -1.
         -2   -1    0    0    0  501 -0.00000000000E+00 -0.00000000000E+00 -0.38811084001E+02  0.38811084001E+02  0.00000000000E+00 0.  1.
         23    2    1    2    0    0  0.87973050184E+02  0.61357969496E+02  0.24806572088E+03  0.28504651155E+03  0.90613762142E+02 0.  0.
          5    1    1    2  502    0  0.24739866464E+02 -0.41967598559E+02  0.73576245860E+02  0.88341817258E+02  0.41800000000E+01 0. -1.
         -5    1    1    2    0  502 -0.11271291665E+03 -0.19390370937E+02  0.24014910223E+03  0.26602490817E+03  0.41800000000E+01 0. -1.
        -11    1    3    3    0    0  0.64504899810E+02  0.50394167349E+02  0.24576879524E+03  0.25904199450E+03  0.00000000000E+00 0. -1.
         11    1    3    3    0    0  0.23468150374E+02  0.10963802147E+02  0.22969256455E+01  0.26004517048E+02  0.00000000000E+00 0.  1.
</event>
<event>
 7    1  0.6145388E-006  0.1057013E+03  0.7561462E-02  0.1268744E+00
         -2   -1    0    0    0  501 -0.00000000000E+00  0.00000000000E+00  0.12961111049E+03  0.12961111049E+03  0.00000000000E+00 0.  1.
          2   -1    0    0  501    0  0.00000000000E+00 -0.00000000000E+00 -0.16981289674E+03  0.16981289674E+03  0.00000000000E+00 0. -1.
         23    2    1    2    0    0  0.25920521611E+02 -0.41820358205E+02 -0.10744402701E+03  0.14912309459E+03  0.90954178569E+02 0.  0.
          5    1    1    2  502    0  0.11346923125E+02  0.79198370130E+02  0.50777833997E+02  0.94852492435E+02  0.41800000000E+01 0. -1.
         -5    1    1    2    0  502 -0.37267444736E+02 -0.37378011925E+02  0.16464406761E+02  0.55448420199E+02  0.41800000000E+01 0. -1.
        -11    1    3    3    0    0  0.44157765753E+02 -0.16511618244E+02 -0.11910079118E+02  0.48625012061E+02  0.00000000000E+00 0.  1.
         11    1    3    3    0    0 -0.18237244142E+02 -0.25308739961E+02 -0.95533947891E+02  0.10049808253E+03  0.00000000000E+00 0. -1.
</event>
<event>
 7    1  0.6145388E-006  0.8479766E+02  0.7561462E-02  0.1315963E+00
          1   -1    0    0  501    0  0.00000000000E+00  0.00000000000E+00  0.13148300311E+03  0.13148300311E+03  0.00000000000E+00 0. -1.
         -1   -1    0    0    0  501 -0.00000000000E+00 -0.00000000000E+00 -0.11158899038E+03  0.11158899038E+03  0.00000000000E+00 0.  1.
         23    2    1    2    0    0  0.30815158458E+02  0.11340956928E+02  0.50038436973E+02  0.11027256756E+03  0.92617507456E+02 0.  0.
          5    1    1    2  502    0 -0.22197564637E+02  0.54327699229E+02  0.24009848471E+01  0.58885209583E+02  0.41800000000E+01 0. -1.
         -5    1    1    2    0  502 -0.86175938215E+01 -0.65668656157E+02 -0.32545409096E+02  0.73914216345E+02  0.41800000000E+01 0. -1.
        -11    1    3    3    0    0  0.25856951301E+02 -0.58444804935E+01  0.75009754307E+02  0.79556289029E+02  0.00000000000E+00 0. -1.
         11    1    3    3    0    0  0.49582071568E+01  0.17185437421E+02 -0.24971317334E+02  0.30716278534E+02  0.00000000000E+00 0.  1.
</event>
<event>
 7    1  0.6145388E-006  0.1078827E+03  0.7561462E-02  0.1264542E+00
          1   -1    0    0  501    0  0.00000000000E+00  0.00000000000E+00  0.34578981075E+03  0.34578981075E+03  0.00000000000E+00 0. -1.
         -1   -1    0    0    0  501 -0.00000000000E+00 -0.00000000000E+00 -0.58540960705E+02  0.58540960705E+02  0.00000000000E+00 0.  1.
         23    2    1    2    0    0 -0.61830002989E+02  0.71103621936E+02  0.14219025389E+03  0.19086256385E+03  0.85625788485E+02 0.  0.
          5    1    1    2  502    0  0.34113516595E+02 -0.77957493593E+02  0.15977926600E+03  0.18107454008E+03  0.41800000000E+01 0.  1.
         -5    1    1    2    0  502  0.27716486395E+02  0.68538716569E+01 -0.14720669853E+02  0.32393667524E+02  0.41800000000E+01 0.  1.
        -11    1    3    3    0    0 -0.25490777777E+02  0.57523628538E+02  0.25494473396E+02  0.67887522900E+02  0.00000000000E+00 0.  1.
         11    1    3    3    0    0 -0.36339225212E+02  0.13579993399E+02  0.11669578050E+03  0.12297504095E+03  0.00000000000E+00 0. -1.
</event>
<event>
 7    1  0.6145388E-006  0.1351713E+03  0.7561462E-02  0.1219978E+00
         -1   -1    0    0    0  501 -0.00000000000E+00  0.00000000000E+00  0.81873618340E+02  0.81873618340E+02  0.00000000000E+00 0.  1.
          1   -1    0    0  501    0  0.00000000000E+00 -0.00000000000E+00 -0.56834746430E+03  0.56834746430E+03  0.00000000000E+00 0. -1.
         23    2    1    2    0    0  0.50787504724E+02  0.82889843537E+02 -0.43358274511E+03  0.44896114446E+03  0.64202924986E+02 0.  0.
          5    1    1    2  502    0  0.37808909764E+02 -0.10032694241E+02 -0.74698423579E+02  0.84424495832E+02  0.41800000000E+01 0. -1.
         -5    1    1    2    0  502 -0.88596414488E+02 -0.72857149296E+02  0.21807322734E+02  0.11683544235E+03  0.41800000000E+01 0.  1.
        -11    1    3    3    0    0  0.61635668658E+02  0.43696995555E+02 -0.26674056929E+03  0.27723440331E+03  0.00000000000E+00 0. -1.
         11    1    3    3    0    0 -0.10848163934E+02  0.39192847982E+02 -0.16684217582E+03  0.17172674115E+03  0.00000000000E+00 0.  1.
</event>
<event>
 7    1  0.6145388E-006  0.9794414E+02  0.7561462E-02  0.1284680E+00
          2   -1    0    0  501    0  0.00000000000E+00  0.00000000000E+00  0.13530487332E+03  0.13530487332E+03  0.00000000000E+00 0. -1.
         -2   -1    0    0    0  501 -0.00000000000E+00 -0.00000000000E+00 -0.10082606924E+03  0.10082606924E+03  0.00000000000E+00 0.  1.
         23    2    1    2    0    0  0.25480852415E+02  0.36291818201E+02  0.18540995717E+02  0.10246470374E+03  0.90492414503E+02 0.  0.
          5    1    1    2  502    0  0.41709050721E+02 -0.24134509517E+02  0.38298451255E+02  0.61695731053E+02  0.41800000000E+01 0.  1.
         -5    1    1    2    0  502 -0.67189903136E+02 -0.12157308684E+02 -0.22360642895E+02  0.71970507769E+02  0.41800000000E+01 0.  1.
        -11    1    3    3    0    0  0.98754822030E+01  0.54351994000E+02 -0.18622718786E+02  0.58296398306E+02  0.00000000000E+00 0.  1.
         11    1    3    3    0    0  0.15605370212E+02 -0.18060175799E+02  0.37163714503E+02  0.44168305435E+02  0.00000000000E+00 0. -1.
</event>
<event>
 7    1  0.6145388E-006  0.1501975E+03  0.7561462E-02  0.1200230E+00
         -1   -1    0    0    0  501 -0.00000000000E+00  0.00000000000E+00  0.15961936823E+03  0.15961936823E+03  0.00000000000E+00 0.  1.
          1   -1    0    0  501    0  0.00000000000E+00 -0.00000000000E+00 -0.15648748253E+03  0.15648748253E+03  0.00000000000E+00 0. -1.
         23    2    1    2    0    0 -0.11363716341E+03 -0.30082025839E+01  0.39314050539E+01  0.14707644182E+03  0.93239313602E+02 0.  0.
          5    1    1    2  502    0  0.10114494687E+03 -0.51021924702E+02  0.14607651096E+01  0.11337170420E+03  0.41800000000E+01 0.  1.
         -5    1    1    2    0  502  0.12492216542E+02  0.54030127286E+02 -0.22602844658E+01  0.55658704751E+02  0.41800000000E+01 0.  1.
        -11    1    3    3    0    0 -0.10782390253E+03  0.18271013064E+02  0.29536765349E+02  0.11327949674E+03  0.00000000000E+00 0.  1.
         11    1    3    3    0    0 -0.58132608847E+01 -0.21279215648E+02 -0.25605360295E+02  0.33796945077E+02  0.00000000000E+00 0. -1.
</event>
<event>
 7    1  0.6145388E-006  0.1054090E+03  0.7561462E-02  0.1269316E+00
         -1   -1    0    0    0  501 -0.00000000000E+00  0.00000000000E+00  0.47293410585E+03  0.47293410585E+03  0.00000000000E+00 0.  1.
          1   -1    0    0  501    0  0.00000000000E+00 -0.00000000000E+00 -0.36893686260E+02  0.36893686260E+02  0.00000000000E+00 0. -1.
         23    2    1    2    0    0  0.14267996941E+02  0.27972605560E+02  0.46862481352E+02  0.99836054680E+02  0.82371738218E+02 0.  0.
          5    1    1    2  502    0  0.62385716825E+00  0.48035446890E+02  0.10731880269E+03  0.11765454163E+03  0.41800000000E+01 0. -1.
         -5    1    1    2    0  502 -0.14891854110E+02 -0.76008052450E+02  0.28185913554E+03  0.29233719579E+03  0.41800000000E+01 0. -1.
        -11    1    3    3    0    0 -0.30906508983E+02  0.25012636515E+02  0.35161299654E+02  0.53076937330E+02  0.00000000000E+00 0.  1.
         11    1    3    3    0    0  0.45174505924E+02  0.29599690451E+01  0.11701181698E+02  0.46759117350E+02  0.00000000000E+00 0. -1.
</event>
<event>
 7    1  0.6145388E-006  0.8929079E+02  0.7561462E-02  0.1304578E+00
         -2   -1    0    0    0  501 -0.00000000000E+00  0.00000000000E+00  0.22075454072E+03  0.22075454072E+03  0.00000000000E+00 0.  1.
          2   -1    0    0  501    0  0.00000000000E+00 -0.00000000000E+00 -0.84459803791E+02  0.84459803791E+02  0.00000000000E+00 0. -1.
         23    2    1    2    0    0 -0.11323042363E+01  0.17403078250E+02 -0.21902010867E+02  0.10278339091E+03  0.98896805416E+02 0.  0.
          5    1    1    2  502    0  0.44613228357E+02 -0.29749723464E+02  0.14575780832E+03  0.15536472339E+03  0.41800000000E+01 0.  1.
         -5    1    1    2    0  502 -0.43480924120E+02  0.12346645214E+02  0.12438939480E+02  0.47066230206E+02  0.41800000000E+01 0.  1.
        -11    1    3    3    0    0  0.31025546531E+02  0.31569971432E+02  0.19594928707E+02  0.48406702685E+02  0.00000000000E+00 0.  1.
         11    1    3    3    0    0 -0.32157850768E+02 -0.14166893182E+02 -0.41496939574E+02  0.54376688226E+02  0.00000000000E+00 0. -1.
</event>
<event>
 7    1  0.6145388E-006  0.1401490E+03  0.7561462E-02  0.1213129E+00
          2   -1    0    0  501    0  0.00000000000E+00  0.00000000000E+00  0.60414386545E+03  0.60414386545E+03  0.00000000000E+00 0. -1.
         -2   -1    0    0    0  501 -0.00000000000E+00 -0.00000000000E+00 -0.43720351936E+02  0.43720351936E+02  0.00000000000E+00 0.  1.
         23    2    1    2    0    0 -0.10048095244E+03  0.56862415327E+02  0.32315422122E+03  0.35584698494E+03  0.94173615836E+02 0.  0.
          5    1    1    2  502    0  0.10769158378E+03 -0.76159877142E+02  0.13956468256E+03  0.19207700831E+03  0.41800000000E+01 0.  1.
         -5    1    1    2    0  502 -0.72106313444E+01  0.19297461815E+02  0.97704609729E+02  0.99940224131E+02  0.41800000000E+01 0.  1.
        -11    1    3    3    0    0 -0.92653943238E+02  0.27099371569E+02  0.13957772434E+03  0.16970878076E+03  0.00000000000E+00 0.  1.
         11    1    3    3    0    0 -0.78270092001E+01  0.29763043758E+02  0.18357649689E+03  0.18613820418E+03  0.00000000000E+00 0. -1.
</event>
<event>
 7    1  0.6145388E-006  0.9704743E+02  0.7561462E-02  0.1286630E+00
          2   -1    0    0  501    0  0.00000000000E+00  0.00000000000E+00  0.26259286264E+03  0.26259286264E+03  0.00000000000E+00 0. -1.
         -2   -1    0    0    0  501 -0.00000000000E+00 -0.00000000000E+00 -0.50742802081E+02  0.50742802081E+02  0.00000000000E+00 0.  1.
         23    2    1    2    0    0  0.46458798833E+02  0.10868001357E+02  0.69946035995E+02  0.12434611375E+03  0.91065770791E+02 0.  0.
          5    1    1    2  502    0  0.32495263531E+01  0.46168073557E+02  0.36069006380E+02  0.58825981154E+02  0.41800000000E+01 0. -1.
         -5    1    1    2    0  502 -0.49708325186E+02 -0.57036074914E+02  0.10583501818E+03  0.13016356982E+03  0.41800000000E+01 0.  1.
        -11    1    3    3    0    0  0.47853737694E+02  0.27478867608E+02  0.85359308987E+02  0.10164290436E+03  0.00000000000E+00 0. -1.
         11    1    3    3    0    0 -0.13949388604E+01 -0.16610866250E+02 -0.15413272992E+02  0.22703209384E+02  0.00000000000E+00 0.  1.
</event>
<event>
 7    1  0.6145388E-006  0.5989536E+02  0.7561462E-02  0.1398271E+00
          2   -1    0    0  501    0  0.00000000000E+00  0.00000000000E+00  0.53696939261E+02  0.53696939261E+02  0.00000000000E+00 0. -1.
         -2   -1    0    0    0  501 -0.00000000000E+00 -0.00000000000E+00 -0.30762393035E+03  0.30762393035E+03  0.00000000000E+00 0.  1.
         23    2    1    2    0    0  0.52555572661E+02  0.72602409420E+01 -0.60860614179E+02  0.12523192610E+03  0.95729941192E+02 0.  0.
          5    1    1    2  502    0 -0.48152206767E+02  0.90512498361E+01 -0.75402967911E+01  0.49748252390E+02  0.41800000000E+01 0. -1.
         -5    1    1    2    0  502 -0.44033658934E+01 -0.16311490778E+02 -0.18552608011E+03  0.18634069111E+03  0.41800000000E+01 0. -1.
        -11    1    3    3    0    0  0.19521843836E+02  0.46999395969E+01 -0.82992599138E+02  0.85387137970E+02  0.00000000000E+00 0.  1.
         11    1    3    3    0    0  0.33033728825E+02  0.25603013451E+01  0.22131984959E+02  0.39844788132E+02  0.00000000000E+00 0. -1.
</event>
<event>
 7    1  0.6145388E-006  0.1013368E+03  0.7561462E-02  0.1277510E+00
          3   -1    0    0  501    0  0.00000000000E+00  0.00000000000E+00  0.97767722138E+02  0.97767722138E+02  0.00000000000E+00 0. -1.
         -3   -1    0    0    0  501 -0.00000000000E+00 -0.00000000000E+00 -0.18803623345E+03  0.18803623345E+03  0.00000000000E+00 0.  1.
         23    2    1    2    0    0 -0.45614139702E+02  0.55996207222E+02 -0.12307633601E+02  0.12166499955E+03  0.97132225893E+02 0.  0.
          5    1    1    2  502    0  0.18180477663E+02  0.13544554378E+02 -0.85812523882E+02  0.88855198927E+02  0.41800000000E+01 0. -1.
         -5    1    1    2    0  502  0.27433662039E+02 -0.69540761599E+02  0.78516461736E+01  0.75283757108E+02  0.41800000000E+01 0. -1.
        -11    1    3    3    0    0 -0.66931094265E+02  0.38842839439E+02 -0.36113067723E+02  0.85397255317E+02  0.00000000000E+00 0.  1.
         11    1    3    3    0    0  0.21316954563E+02  0.17153367782E+02  0.23805434122E+02  0.36267744235E+02  0.00000000000E+00 0. -1.
</event>
<event>
 7    1  0.6145388E-006  0.1496673E+03  0.7561462E-02  0.1200882E+00
          2   -1    0    0  501    0  0.00000000000E+00  0.00000000000E+00  0.35355033574E+03  0.35355033574E+03  0.00000000000E+00 0. -1.
         -2   -1    0    0    0  501 -0.00000000000E+00 -0.00000000000E+00 -0.82848652843E+02  0.82848652843E+02  0.00000000000E+00 0.  1.
         23    2    1    2    0    0 -0.69317741369E+02 -0.95283518146E+02  0.20224097929E+03  0.25142239427E+03  0.91803641200E+02 0.  0.
          5    1    1    2  502    0  0.98780029343E+02  0.55590825443E+02  0.73430470902E+02  0.13511972664E+03  0.41800000000E+01 0.  1.
         -5    1    1    2    0  502 -0.29462287974E+02  0.39692692703E+02 -0.49697672988E+01  0.49856867668E+02  0.41800000000E+01 0.  1.
        -11    1    3    3    0    0 -0.80220037966E+02 -0.62324657182E+02  0.96443149245E+02  0.14007461733E+03  0.00000000000E+00 0.  1.
         11    1    3    3    0    0  0.10902296597E+02 -0.32958860965E+02  0.10579783005E+03  0.11134777694E+03  0.00000000000E+00 0. -1.
</event>
<event>
 7    1  0.6145388E-006  0.6739233E+02  0.7561462E-02  0.1369192E+00
          1   -1    0    0  501    0  0.00000000000E+00  0.00000000000E+00  0.49945174321E+03  0.49945174321E+03  0.00000000000E+00 0. -1.
         -1   -1    0    0    0  501 -0.00000000000E+00 -0.00000000000E+00 -0.28083243135E+02  0.28083243135E+02  0.00000000000E+00 0.  1.
         23    2    1    2    0    0  0.19366289079E+02 -0.27234977742E+02  0.28586232938E+03  0.30131495724E+03  0.89199971603E+02 0.  0.
          5    1    1    2  502    0  0.10092669098E+01  0.14549264718E+02 -0.16693666437E+02  0.22557717585E+02  0.41800000000E+01 0.  1.
         -5    1    1    2    0  502 -0.20375555989E+02  0.12685713024E+02  0.20219983713E+03  0.20366231152E+03  0.41800000000E+01 0.  1.
        -11    1    3    3    0    0 -0.20134643164E+02 -0.46962638773E+02  0.15480594586E+03  0.16302077834E+03  0.00000000000E+00 0. -1.
         11    1    3    3    0    0  0.39500932243E+02  0.19727661031E+02  0.13105638352E+03  0.13829417891E+03  0.00000000000E+00 0.  1.
</event>
<event>
 7    1  0.6145388E-006  0.2338296E+03  0.7561462E-02  0.1123973E+00
         -2   -1    0    0    0  501 -0.00000000000E+00  0.00000000000E+00  0.17418642149E+03  0.17418642149E+03  0.00000000000E+00 0.  1.
          2   -1    0    0  501    0  0.00000000000E+00 -0.00000000000E+00 -0.53995816528E+03  0.53995816528E+03  0.00000000000E+00 0. -1.
         23    2    1    2    0    0  0.68675998834E+02 -0.15266537009E+03 -0.13121353688E+03  0.23060182442E+03  0.89090409825E+02 0.  0.
          5    1    1    2  502    0  0.79032181640E+02  0.25471196687E+02 -0.27251190291E+03  0.28491240272E+03  0.41800000000E+01 0. -1.
         -5    1    1    2    0  502 -0.14770818047E+03  0.12719417340E+03  0.37953696007E+02  0.19863035963E+03  0.41800000000E+01 0.  1.
        -11    1    3    3    0    0  0.88673897263E+02 -0.10244095070E+03 -0.96859794341E+02  0.16655037735E+03  0.00000000000E+00 0. -1.
         11    1    3    3    0    0 -0.19997898429E+02 -0.50224419388E+02 -0.34353742543E+02  0.64051447065E+02  0.00000000000E+00 0.  1.
</event>
<event>
 7    1  0.6145388E-006  0.1081542E+03  0.7561462E-02  0.1264027E+00
          2   -1    0    0  501    0  0.00000000000E+00  0.00000000000E+00  0.53521318549E+03  0.53521318549E+03  0.00000000000E+00 0. -1.
         -2   -1    0    0    0  501 -0.00000000000E+00 -0.00000000000E+00 -0.24050599873E+02  0.24050599873E+02  0.00000000000E+00 0.  1.
         23    2    1    2    0    0  0.48901913531E+01 -0.98087640108E+01  0.29448479039E+03  0.30882991424E+03  0.92382348608E+02 0.  0.
          5    1    1    2  502    0  0.53505960237E+02 -0.20379379589E+02  0.77411449544E+02  0.96375369332E+02  0.41800000000E+01 0. -1.
         -5    1    1    2    0  502 -0.58396151590E+02  0.30188143600E+02  0.13926634568E+03  0.15405850179E+03  0.41800000000E+01 0. -1.
        -11    1    3    3    0    0  0.10747474744E+02  0.40744667003E+02  0.13298914295E+03  0.13950536995E+03  0.00000000000E+00 0. -1.
         11    1    3    3    0    0 -0.58572833908E+01 -0.50553431014E+02  0.16149564744E+03  0.16932454429E+03  0.00000000000E+00 0.  1.
</event>
<event>
 7    1  0.6145388E-006  0.7968975E+02  0.7561462E-02  0.1329934E+00
          4   -1    0    0  501    0  0.00000000000E+00  0.00000000000E+00  0.92140142549E+02  0.92140142549E+02  0.00000000000E+00 0. -1.
         -4   -1    0    0    0  501 -0.00000000000E+00 -0.00000000000E+00 -0.14986852537E+03  0.14986852537E+03  0.00000000000E+00 0.  1.
         23    2    1    2    0    0  0.25898860072E+02 -0.15626498060E+02  0.18634227357E+02  0.92366115113E+02  0.85260344811E+02 0.  0.
          5    1    1    2  502    0 -0.32536597951E+02  0.42287074641E+02  0.13820314102E+02  0.55274771549E+02  0.41800000000E+01 0.  1.
         -5    1    1    2    0  502  0.66377378788E+01 -0.26660576581E+02 -0.90182924284E+02  0.94367781262E+02  0.41800000000E+01 0.  1.
        -11    1    3    3    0    0 -0.23195454937E+02 -0.17316514213E+02 -0.15223034627E+02  0.32705222480E+02  0.00000000000E+00 0.  1.
         11    1    3    3    0    0  0.49094315009E+02  0.16900161529E+01  0.33857261984E+02  0.59660892633E+02  0.00000000000E+00 0. -1.
</event>
<event>
 7    1  0.6145388E-006  0.1164536E+03  0.7561462E-02  0.1249065E+00
         -1   -1    0    0    0  501 -0.00000000000E+00  0.00000000000E+00  0.28142906193E+02  0.28142906193E+02  0.00000000000E+00 0.  1.
          1   -1    0    0  501    0  0.00000000000E+00 -0.00000000000E+00 -0.59336140139E+03  0.59336140139E+03  0.00000000000E+00 0. -1.
         23    2    1    2    0    0 -0.51383044483E+02  0.30214389793E+02 -0.35620002001E+03  0.37072645844E+03  0.83704994608E+02 0.  0.
          5    1    1    2  502    0  0.55650431888E+00  0.44973315763E+02 -0.93272197602E+02  0.10363437689E+03  0.41800000000E+01 0.  1.
         -5    1    1    2    0  502  0.50826540164E+02 -0.75187705556E+02 -0.11574627759E+03  0.14714347225E+03  0.41800000000E+01 0.  1.
        -11    1    3    3    0    0 -0.33922565544E+02  0.56160832069E+02 -0.17598141697E+03  0.18781437280E+03  0.00000000000E+00 0.  1.
         11    1    3    3    0    0 -0.17460478938E+02 -0.25946442276E+02 -0.18021860304E+03  0.18291208564E+03  0.00000000000E+00 0. -1.
</event>
<event>
 7    1  0.6145388E-006  0.1665300E+03  0.7561462E-02  0.1181516E+00
          1   -1    0    0  501    0  0.00000000000E+00  0.00000000000E+00  0.33550811994E+03  0.33550811994E+03  0.00000000000E+00 0. -1.
         -1   -1    0    0    0  501 -0.00000000000E+00 -0.00000000000E+00 -0.11986522346E+03  0.11986522346E+03  0.00000000000E+00 0.  1.
         23    2    1    2    0    0 -0.14929928885E+03 -0.41317807620E+02  0.17733976432E+03  0.25261149048E+03  0.91464387800E+02 0.  0.
          5    1    1    2  502    0 -0.43280197870E+01 -0.13096176068E+02 -0.24193359539E+02  0.28160835014E+02  0.41800000000E+01 0.  1.
         -5    1    1    2    0  502  0.15362730864E+03  0.54413983688E+02  0.62496491698E+02  0.17460101791E+03  0.41800000000E+01 0.  1.
        -11    1    3    3    0    0 -0.73602806795E+02 -0.12706202124E+02  0.22678279998E+02  0.78058472469E+02  0.00000000000E+00 0.  1.
         11    1    3    3    0    0 -0.75696482059E+02 -0.28611605496E+02  0.15466148432E+03  0.17455301801E+03  0.00000000000E+00 0. -1.
</event>
<event>
 7    1  0.6145388E-006  0.1045810E+03  0.7561462E-02  0.1270947E+00
          1   -1    0    0  501    0  0.00000000000E+00  0.00000000000E+00  0.39288782637E+03  0.39288782637E+03  0.00000000000E+00 0. -1.
         -1   -1    0    0    0  501 -0.00000000000E+00 -0.00000000000E+00 -0.48780680510E+02  0.48780680510E+02  0.00000000000E+00 0.  1.
         23    2    1    2    0    0  0.60667388109E+02  0.25740158860E+02  0.24220674717E+03  0.26738613136E+03  0.92131140822E+02 0.  0.
          5    1    1    2  502    0  0.18656202546E+02 -0.12052357055E+02  0.90012091732E+02  0.92806046473E+02  0.41800000000E+01 0.  1.
         -5    1    1    2    0  502 -0.79323590655E+02 -0.13687801805E+02  0.11888306954E+02  0.81476329047E+02  0.41800000000E+01 0.  1.
        -11    1    3    3    0    0 -0.63838604144E+01  0.37364217424E+02  0.13652574869E+03  0.14169022011E+03  0.00000000000E+00 0. -1.
         11    1    3    3    0    0  0.67051248524E+02 -0.11624058564E+02  0.10568099848E+03  0.12569591125E+03  0.00000000000E+00 0.  1.
</event>
<event>
 7    1  0.6145388E-006  0.8541040E+02  0.7561462E-02  0.1314363E+00
          1   -1    0    0  501    0  0.00000000000E+00  0.00000000000E+00  0.52108890186E+02  0.52108890186E+02  0.00000000000E+00 0. -1.
         -1   -1    0    0    0  501 -0.00000000000E+00 -0.00000000000E+00 -0.27696459213E+03  0.27696459213E+03  0.00000000000E+00 0.  1.
         23    2    1    2    0    0  0.16996618083E+02 -0.44324385399E+02 -0.68765791355E+02  0.12348882466E+03  0.90924251929E+02 0.  0.
          5    1    1    2  502    0  0.28190345528E+02 -0.39035838837E+01 -0.13203134337E+03  0.13512838925E+03  0.41800000000E+01 0. -1.
         -5    1    1    2    0  502 -0.45186963611E+02  0.48227969283E+02 -0.24058567222E+02  0.70456268410E+02  0.41800000000E+01 0. -1.
        -11    1    3    3    0    0 -0.19302338653E+02 -0.10201846476E+01 -0.63916912186E+02  0.66775689571E+02  0.00000000000E+00 0.  1.
         11    1    3    3    0    0  0.36298956736E+02 -0.43304200751E+02 -0.48488791684E+01  0.56713135093E+02  0.00000000000E+00 0. -1.
</event>
<event>
 7    1  0.6145388E-006  0.5117502E+02  0.7561462E-02  0.1439105E+00
          2   -1    0    0  501    0  0.00000000000E+00  0.00000000000E+00  0.16304765246E+02  0.16304765246E+02  0.00000000000E+00 0. -1.
         -2   -1    0    0    0  501 -0.00000000000E+00 -0.00000000000E+00 -0.10781254363E+04  0.10781254363E+04  0.00000000000E+00 0.  1.
         23    2    1    2    0    0 -0.14492211579E+02  0.11088633893E+01 -0.73989248037E+02  0.96604169513E+02  0.60387937270E+02 0.  0.
          5    1    1    2  502    0 -0.17247284687E+02 -0.48795513405E+01 -0.13170321854E+02  0.22632026602E+02  0.41800000000E+01 0. -1.
         -5    1    1    2    0  502  0.31739496265E+02  0.37706879512E+01 -0.97466110113E+03  0.97519400540E+03  0.41800000000E+01 0.  1.
        -11    1    3    3    0    0 -0.32312136096E+02 -0.53571697733E+01 -0.69926172808E+02  0.77216857296E+02  0.00000000000E+00 0. -1.
         11    1    3    3    0    0  0.17819924517E+02  0.64660331627E+01 -0.40630752288E+01  0.19387312217E+02  0.00000000000E+00 0.  1.
</event>
<event>
 7    1  0.6145388E-006  0.1932775E+03  0.7561462E-02  0.1155538E+00
         -2   -1    0    0    0  501 -0.00000000000E+00  0.00000000000E+00  0.39300416396E+02  0.39300416396E+02  0.00000000000E+00 0. -1.
          2   -1    0    0  501    0  0.00000000000E+00 -0.00000000000E+00 -0.12088167354E+04  0.12088167354E+04  0.00000000000E+00 0.  1.
         23    2    1    2    0    0  0.13580746807E+03 -0.11335373167E+03 -0.75116306178E+03  0.77699089343E+03  0.90422155654E+02 0.  0.
          5    1    1    2  502    0 -0.28782595483E+02 -0.64398286008E+01 -0.86239135231E+01  0.31012150516E+02  0.41800000000E+01 0.  1.
         -5    1    1    2    0  502 -0.10702487258E+03  0.11979356027E+03 -0.40972934367E+03  0.44011410782E+03  0.41800000000E+01 0.  1.
        -11    1    3    3    0    0 -0.11777802037E+02 -0.13321080837E+02 -0.39219239737E+02  0.43061776334E+02  0.00000000000E+00 0. -1.
         11    1    3    3    0    0  0.14758527011E+03 -0.10003265083E+03 -0.71194382204E+03  0.73392911710E+03  0.00000000000E+00 0.  1.
</event>
<event>
 7    1  0.6145388E-006  0.1166750E+03  0.7561462E-02  0.1248685E+00
         -1   -1    0    0    0  501 -0.00000000000E+00  0.00000000000E+00  0.12100883295E+03  0.12100883295E+03  0.00000000000E+00 0.  1.
          1   -1    0    0  501    0  0.00000000000E+00 -0.00000000000E+00 -0.13553971931E+03  0.13553971931E+03  0.00000000000E+00 0. -1.
         23    2    1    2    0    0  0.32989724331E+01 -0.66614473230E+02  0.39555815609E+00  0.11400515073E+03  0.92458891757E+02 0.  0.
          5    1    1    2  502    0  0.15220158903E+02  0.91196331271E+02  0.21150733444E+02  0.94938137750E+02  0.41800000000E+01 0.  1.
         -5    1    1    2    0  502 -0.18519131336E+02 -0.24581858041E+02 -0.36077177961E+02  0.47605263782E+02  0.41800000000E+01 0.  1.
        -11    1    3    3    0    0 -0.11198668037E+01 -0.87946390110E+02  0.12887826975E+02  0.88892731532E+02  0.00000000000E+00 0.  1.
         11    1    3    3    0    0  0.44188392367E+01  0.21331916880E+02 -0.12492268819E+02  0.25112419203E+02  0.00000000000E+00 0. -1.
</event>
<event>
 7    1  0.6145388E-006  0.1079244E+03  0.7561462E-02  0.1264463E+00
         -1   -1    0    0    0  501 -0.00000000000E+00  0.00000000000E+00  0.13949734284E+02  0.13949734284E+02  0.00000000000E+00 0.  1.
          1   -1    0    0  501    0  0.00000000000E+00 -0.00000000000E+00 -0.86781152034E+03  0.86781152034E+03  0.00000000000E+00 0. -1.
         23    2    1    2    0    0 -0.76591370109E+01 -0.10806215366E+02 -0.36891703451E+03  0.38077184355E+03  0.93337997730E+02 0.  0.
          5    1    1    2  502    0  0.65474018412E+02 -0.46656895614E+01 -0.25129041571E+03  0.25975557968E+03  0.41800000000E+01 0. -1.
         -5    1    1    2    0  502 -0.57814881402E+02  0.15471904927E+02 -0.23365433584E+03  0.24123383140E+03  0.41800000000E+01 0. -1.
        -11    1    3    3    0    0  0.38554931809E+02  0.93338533508E+01 -0.10859359555E+03  0.11561216450E+03  0.00000000000E+00 0.  1.
         11    1    3    3    0    0 -0.46214068820E+02 -0.20140068716E+02 -0.26032343895E+03  0.26515967905E+03  0.00000000000E+00 0. -1.
</event>
<event>
 7    1  0.6145388E-006  0.1493234E+03  0.7561462E-02  0.1201307E+00
         -2   -1    0    0    0  501 -0.00000000000E+00  0.00000000000E+00  0.19814843332E+03  0.19814843332E+03  0.00000000000E+00 0.  1.
          2   -1    0    0  501    0  0.00000000000E+00 -0.00000000000E+00 -0.25258000102E+03  0.25258000102E+03  0.00000000000E+00 0. -1.
         23    2    1    2    0    0  0.11764118603E+03 -0.64792289434E+02 -0.16785087223E+03  0.23497562747E+03  0.94879611999E+02 0.  0.
          5    1    1    2  502    0 -0.44475287433E+02  0.16605749540E+02 -0.23510511416E+02  0.53141496564E+02  0.41800000000E+01 0.  1.
         -5    1    1    2    0  502 -0.73165898596E+02  0.48186539894E+02  0.13692981596E+03  0.16261131031E+03  0.41800000000E+01 0.  1.
        -11    1    3    3    0    0  0.92901514952E+02  0.10889916181E+01 -0.10912219968E+03  0.14331619534E+03  0.00000000000E+00 0. -1.
         11    1    3    3    0    0  0.24739671077E+02 -0.65881281052E+02 -0.58728672550E+02  0.91659432126E+02  0.00000000000E+00 0.  1.
</event>
<event>
 7    1  0.6145388E-006  0.2153068E+03  0.7561462E-02  0.1137431E+00
         -1   -1    0    0    0  501 -0.00000000000E+00  0.00000000000E+00  0.30173658044E+02  0.30173658044E+02  0.00000000000E+00 0.  1.
          1   -1    0    0  501    0  0.00000000000E+00 -0.00000000000E+00 -0.15840305613E+04  0.15840305613E+04  0.00000000000E+00 0. -1.
         23    2    1    2    0    0  0.10965794667E+03  0.15220791179E+03 -0.83821487282E+03  0.86388161254E+03  0.92169158575E+02 0.  0.
          5    1    1    2  502    0  0.29821487833E+01  0.19097760421E+02 -0.48528360640E+02  0.52403166420E+02  0.41800000000E+01 0.  1.
         -5    1    1    2    0  502 -0.11264009545E+03 -0.17130567221E+03 -0.66711366979E+03  0.69791944038E+03  0.41800000000E+01 0.  1.
        -11    1    3    3    0    0  0.51750417113E+02  0.10656307108E+02 -0.15498886954E+03  0.16374740374E+03  0.00000000000E+00 0.  1.
         11    1    3    3    0    0  0.57907529557E+02  0.14155160468E+03 -0.68322600328E+03  0.70013420880E+03  0.00000000000E+00 0. -1.
</event>
<event>
 7    1  0.6145388E-006  0.9826097E+02  0.7561462E-02  0.1283996E+00
         -1   -1    0    0    0  501 -0.00000000000E+00  0.00000000000E+00  0.11834845093E+03  0.11834845093E+03  0.00000000000E+00 0.  1.
          1   -1    0    0  501    0  0.00000000000E+00 -0.00000000000E+00 -0.16549919043E+03  0.16549919043E+03  0.00000000000E+00 0. -1.
         23    2    1    2    0    0 -0.14385254069E+02 -0.13018275664E+02 -0.11666086265E+03  0.14806516985E+03  0.89090552881E+02 0.  0.
          5    1    1    2  502    0 -0.41665561232E+02  0.25874597695E+02  0.59566540370E+02  0.77273274360E+02  0.41800000000E+01 0. -1.
         -5    1    1    2    0  502  0.56050815301E+02 -0.12856322030E+02  0.99435827806E+01  0.58509197145E+02  0.41800000000E+01 0.  1.
        -11    1    3    3    0    0 -0.49840577410E+02 -0.19641918181E+02 -0.56047690878E+02  0.77532133720E+02  0.00000000000E+00 0. -1.
         11    1    3    3    0    0  0.35455323342E+02  0.66236425165E+01 -0.60613171772E+02  0.70533036130E+02  0.00000000000E+00 0.  1.
</event>
<event>
 7    1  0.6145388E-006  0.1002282E+03  0.7561462E-02  0.1279817E+00
         -2   -1    0    0    0  501 -0.00000000000E+00  0.00000000000E+00  0.15736464553E+02  0.15736464553E+02  0.00000000000E+00 0.  1.
          2   -1    0    0  501    0  0.00000000000E+00 -0.00000000000E+00 -0.89888808614E+03  0.89888808614E+03  0.00000000000E+00 0. -1.
         23    2    1    2    0    0 -0.34100950688E+02 -0.36900595460E+02 -0.37417336013E+03  0.38809730419E+03  0.89940454232E+02 0.  0.
          5    1    1    2  502    0  0.27900696752E+02 -0.23733307191E+02 -0.43345112954E+02  0.56903338799E+02  0.41800000000E+01 0. -1.
         -5    1    1    2    0  502  0.62002539360E+01  0.60633902651E+02 -0.46563314851E+03  0.46962390771E+03  0.41800000000E+01 0. -1.
        -11    1    3    3    0    0  0.21841650777E+02  0.14749998963E+02 -0.79975175765E+02  0.84205990978E+02  0.00000000000E+00 0. -1.
         11    1    3    3    0    0 -0.55942601465E+02 -0.51650594424E+02 -0.29419818436E+03  0.30389131321E+03  0.00000000000E+00 0.  1.
</event>
<event>
 7    1  0.6145388E-006  0.1017899E+03  0.7561462E-02  0.1276576E+00
          1   -1    0    0  501    0  0.00000000000E+00  0.00000000000E+00  0.12135326569E+04  0.12135326569E+04  0.00000000000E+00 0. -1.
         -1   -1    0    0    0  501 -0.00000000000E+00 -0.00000000000E+00 -0.11378620600E+02  0.11378620600E+02  0.00000000000E+00 0.  1.
         23    2    1    2    0    0 -0.43950224066E+02  0.12459090036E+02  0.47788920759E+03  0.48850994508E+03  0.90426879816E+02 0.  0.
          5    1    1    2  502    0  0.36594760201E+02  0.37147809800E+02  0.13178493760E+03  0.14178814628E+03  0.41800000000E+01 0. -1.
         -5    1    1    2    0  502  0.73554638648E+01 -0.49606899836E+02  0.59247989113E+03  0.59461318616E+03  0.41800000000E+01 0. -1.
        -11    1    3    3    0    0 -0.15353311454E+02 -0.39088358596E+02  0.21957756073E+03  0.22355744033E+03  0.00000000000E+00 0.  1.
         11    1    3    3    0    0 -0.28596912612E+02  0.51547448632E+02  0.25831164686E+03  0.26495250475E+03  0.00000000000E+00 0. -1.
</event>
<event>
 7    1  0.6145388E-006  0.1336750E+03  0.7561462E-02  0.1222102E+00
          2   -1    0    0  501    0  0.00000000000E+00  0.00000000000E+00  0.38639589447E+03  0.38639589447E+03  0.00000000000E+00 0. -1.
         -2   -1    0    0    0  501 -0.00000000000E+00 -0.00000000000E+00 -0.87102899790E+02  0.87102899790E+02  0.00000000000E+00 0.  1.
         23    2    1    2    0    0  0.19282681970E+02 -0.17984298552E+02  0.21873137591E+03  0.24024071841E+03  0.95796300320E+02 0.  0.
          5    1    1    2  502    0  0.28640692512E+02 -0.67028076415E+02 -0.35814676387E+02  0.81321680628E+02  0.41800000000E+01 0. -1.
         -5    1    1    2    0  502 -0.47923374482E+02  0.85012374967E+02  0.11637629515E+03  0.15193639522E+03  0.41800000000E+01 0.  1.
        -11    1    3    3    0    0  0.40825911261E+02  0.25497793712E+02  0.13675014493E+03  0.14497411718E+03  0.00000000000E+00 0.  1.
         11    1    3    3    0    0 -0.21543229291E+02 -0.43482092265E+02  0.81981230981E+02  0.95266601226E+02  0.00000000000E+00 0. -1.
</event>
<event>
 7    1  0.6145388E-006  0.1250031E+03  0.7561462E-02  0.1235064E+00
          2   -1    0    0  501    0  0.00000000000E+00  0.00000000000E+00  0.34363059266E+03  0.34363059266E+03  0.00000000000E+00 0. -1.
         -2   -1    0    0    0  501 -0.00000000000E+00 -0.00000000000E+00 -0.10535475841E+03  0.10535475841E+03  0.00000000000E+00 0.  1.
         23    2    1    2    0    0  0.11589792806E+02 -0.81312134235E+02  0.26935349748E+03  0.29613246330E+03  0.91635924957E+02 0.  0.
          5    1    1    2  502    0 -0.32598317715E+02  0.10017464520E+03 -0.51912314669E+02  0.11751583159E+03  0.41800000000E+01 0.  1.
         -5    1    1    2    0  502  0.21008524909E+02 -0.18862510968E+02  0.20834651443E+02  0.35337056182E+02  0.41800000000E+01 0.  1.
        -11    1    3    3    0    0  0.13800247447E+02  0.14605182586E+02  0.17582007374E+02  0.26699909574E+02  0.00000000000E+00 0.  1.
         11    1    3    3    0    0 -0.22104546407E+01 -0.95917316821E+02  0.25177149011E+03  0.26943255373E+03  0.00000000000E+00 0. -1.
</event>
<event>
 7    1  0.6145388E-006  0.1583000E+03  0.7561462E-02  0.1190630E+00
          2   -1    0    0  501    0  0.00000000000E+00  0.00000000000E+00  0.14219169147E+03  0.14219169147E+03  0.00000000000E+00 0. -1.
         -2   -1    0    0    0  501 -0.00000000000E+00 -0.00000000000E+00 -0.24084214953E+03  0.24084214953E+03  0.00000000000E+00 0.  1.
         23    2    1    2    0    0  0.14525561808E+03  0.34905955722E+02 -0.44870115129E+02  0.18090175361E+03  0.91621487105E+02 0.  0.
          5    1    1    2  502    0 -0.16718881023E+02 -0.22017700516E+02 -0.66617531819E+02  0.72247270290E+02  0.41800000000E+01 0. -1.
         -5    1    1    2    0  502 -0.12853673705E+03 -0.12888255206E+02  0.12837188883E+02  0.12988481710E+03  0.41800000000E+01 0. -1.
        -11    1    3    3    0    0  0.13201006417E+03  0.11516703819E+02 -0.47335420596E+01  0.13259599514E+03  0.00000000000E+00 0. -1.
         11    1    3    3    0    0  0.13245553910E+02  0.23389251903E+02 -0.40136573070E+02  0.48305758464E+02  0.00000000000E+00 0.  1.
</event>
<event>
 7    1  0.6145388E-006  0.8839400E+02  0.7561462E-02  0.1306788E+00
          1   -1    0    0  501    0  0.00000000000E+00  0.00000000000E+00  0.27689347578E+02  0.27689347578E+02  0.00000000000E+00 0. -1.
         -1   -1    0    0    0  501 -0.00000000000E+00 -0.00000000000E+00 -0.54455580478E+03  0.54455580478E+03  0.00000000000E+00 0.  1.
         23    2    1    2    0    0  0.87173323551E+01 -0.10349761464E+02 -0.12467117178E+03  0.16036181960E+03  0.99949500577E+02 0.  0.
          5    1    1    2  502    0 -0.35422980958E+02  0.33700912193E+02 -0.58827741627E+02  0.76607536493E+02  0.41800000000E+01 0.  1.
         -5    1    1    2    0  502  0.26705648603E+02 -0.23351150729E+02 -0.33336754380E+03  0.33527579627E+03  0.41800000000E+01 0.  1.
        -11    1    3    3    0    0 -0.22284145985E+02  0.32317394152E+02 -0.87309349864E+02  0.95728364139E+02  0.00000000000E+00 0. -1.
         11    1    3    3    0    0  0.31001478340E+02 -0.42667155615E+02 -0.37361821917E+02  0.64633455459E+02  0.00000000000E+00 0.  1.
</event>
<event>
 7    1  0.6145388E-006  0.1270087E+03  0.7561462E-02  0.1231963E+00
          2   -1    0    0  501    0  0.00000000000E+00  0.00000000000E+00  0.93281374708E+03  0.93281374708E+03  0.00000000000E+00 0. -1.
         -2   -1    0    0    0  501 -0.00000000000E+00 -0.00000000000E+00 -0.19560414520E+02  0.19560414520E+02  0.00000000000E+00 0.  1.
         23    2    1    2    0    0  0.30394410923E+02 -0.75113697550E+02  0.40057700324E+03  0.41847372030E+03  0.89957941760E+02 0.  0.
          5    1    1    2  502    0 -0.70359311916E+02  0.79585214240E+02  0.32600397341E+03  0.34289984278E+03  0.41800000000E+01 0.  1.
         -5    1    1    2    0  502  0.39964900993E+02 -0.44715166899E+01  0.18667235591E+03  0.19100059851E+03  0.41800000000E+01 0.  1.
        -11    1    3    3    0    0  0.53172595036E+02 -0.45980000230E+02  0.34237176633E+03  0.34951382185E+03  0.00000000000E+00 0. -1.
         11    1    3    3    0    0 -0.22778184113E+02 -0.29133697320E+02  0.58205236902E+02  0.68959898447E+02  0.00000000000E+00 0.  1.
</event>
<event>
 7    1  0.6145388E-006  0.1046553E+03  0.7561462E-02  0.1270800E+00
          1   -1    0    0  501    0  0.00000000000E+00  0.00000000000E+00  0.11040368614E+03  0.11040368614E+03  0.00000000000E+00 0. -1.
         -1   -1    0    0    0  501 -0.00000000000E+00 -0.00000000000E+00 -0.12251054600E+03  0.12251054600E+03  0.00000000000E+00 0.  1.
         23    2    1    2    0    0 -0.12142323735E+02 -0.28880691663E+02  0.24923502345E+02  0.98758045400E+02  0.90279788355E+02 0.  0.
          5    1    1    2  502    0  0.54624426099E+02 -0.15701944988E+02 -0.44057026568E+02  0.72033832281E+02  0.41800000000E+01 0.  1.
         -5    1    1    2    0  502 -0.42482102364E+02  0.44582636651E+02  0.70266643659E+01  0.62122354464E+02  0.41800000000E+01 0.  1.
        -11    1    3    3    0    0 -0.29684622515E+02  0.21888846955E+02 -0.50820720964E+01  0.37230711673E+02  0.00000000000E+00 0.  1.
         11    1    3    3    0    0  0.17542298780E+02 -0.50769538618E+02  0.30005574441E+02  0.61527333727E+02  0.00000000000E+00 0. -1.
</event>
<event>
 7    1  0.6145388E-006  0.1042109E+03  0.7561462E-02  0.1271682E+00
          1   -1    0    0  501    0  0.00000000000E+00  0.00000000000E+00  0.60897051592E+03  0.60897051592E+03  0.00000000000E+00 0. -1.
         -1   -1    0    0    0  501 -0.00000000000E+00 -0.00000000000E+00 -0.21350027589E+02  0.21350027589E+02  0.00000000000E+00 0.  1.
         23    2    1    2    0    0 -0.32629646561E+02 -0.14624120254E+01  0.29824011238E+03  0.31337404782E+03  0.90494733150E+02 0.  0.
          5    1    1    2  502    0  0.74675035247E+02 -0.39930600831E+01  0.11354100750E+03  0.13601962433E+03  0.41800000000E+01 0. -1.
         -5    1    1    2    0  502 -0.42045388686E+02  0.54554721085E+01  0.17583936845E+03  0.18092687137E+03  0.41800000000E+01 0. -1.
        -11    1    3    3    0    0  0.28334420226E+02 -0.84230520392E+01  0.15089539814E+03  0.15376348187E+03  0.00000000000E+00 0. -1.
         11    1    3    3    0    0 -0.60964066787E+02  0.69606400138E+01  0.14734471424E+03  0.15961056595E+03  0.00000000000E+00 0.  1.
</event>
<event>
 7    1  0.6145388E-006  0.2244279E+03  0.7561462E-02  0.1130624E+00
          2   -1    0    0  501    0  0.00000000000E+00  0.00000000000E+00  0.65177022164E+03  0.65177022164E+03  0.00000000000E+00 0. -1.
         -2   -1    0    0    0  501 -0.00000000000E+00 -0.00000000000E+00 -0.91147595960E+02  0.91147595960E+02  0.00000000000E+00 0.  1.
         23    2    1    2    0    0  0.18181865140E+03  0.11751006609E+03  0.30646704958E+03  0.38638843218E+03  0.92235190743E+02 0.  0.
          5    1    1    2  502    0 -0.30202728700E+02  0.35045264044E+01  0.11163592699E+03  0.11577797338E+03  0.41800000000E+01 0. -1.
         -5    1    1    2    0  502 -0.15161592270E+03 -0.12101459250E+03  0.14251964911E+03  0.24075141203E+03  0.41800000000E+01 0. -1.
        -11    1    3    3    0    0  0.12331044105E+03  0.45709995585E+02  0.23540347954E+03  0.26964730065E+03  0.00000000000E+00 0.  1.
         11    1    3    3    0    0  0.58508210359E+02  0.71800070508E+02  0.71063570043E+02  0.11674113153E+03  0.00000000000E+00 0. -1.
</event>
<event>
 7    1  0.6145388E-006  0.1189178E+03  0.7561462E-02  0.1244893E+00
          2   -1    0    0  501    0  0.00000000000E+00  0.00000000000E+00  0.89658228883E+03  0.89658228883E+03  0.00000000000E+00 0. -1.
         -2   -1    0    0    0  501 -0.00000000000E+00 -0.00000000000E+00 -0.17642369744E+02  0.17642369744E+02  0.00000000000E+00 0.  1.
         23    2    1    2    0    0 -0.31234491626E+02 -0.35227120990E+02  0.53803033250E+03  0.54805009830E+03  0.93089892261E+02 0.  0.
          5    1    1    2  502    0 -0.24626373920E+02  0.65326045151E+02  0.17054035213E+03  0.18432426474E+03  0.41800000000E+01 0.  1.
         -5    1    1    2    0  502  0.55860865546E+02 -0.30098924161E+02  0.17036923445E+03  0.18185029553E+03  0.41800000000E+01 0.  1.
        -11    1    3    3    0    0  0.95246730629E+01  0.27722227192E+02  0.14742472885E+03  0.15031065150E+03  0.00000000000E+00 0. -1.
         11    1    3    3    0    0 -0.40759164689E+02 -0.62949348182E+02  0.39060560365E+03  0.39773944680E+03  0.00000000000E+00 0.  1.
</event>
<event>
 7    1  0.6145388E-006  0.2095537E+03  0.7561462E-02  0.1141920E+00
         -2   -1    0    0    0  501 -0.00000000000E+00  0.00000000000E+00  0.48912638207E+02  0.48912638207E+02  0.00000000000E+00 0.  1.
          2   -1    0    0  501    0  0.00000000000E+00 -0.00000000000E+00 -0.10271394065E+04  0.10271394065E+04  0.00000000000E+00 0. -1.
         23    2    1    2    0    0  0.16247180084E+03  0.10713802722E+03 -0.47997316043E+03  0.52670994855E+03  0.95778349465E+02 0.  0.
          5    1    1    2  502    0 -0.14738571116E+03 -0.37308685831E+02 -0.39879979961E+03  0.42681757047E+03  0.41800000000E+01 0. -1.
         -5    1    1    2    0  502 -0.15086089674E+02 -0.69829341387E+02 -0.99453808296E+02  0.12252452573E+03  0.41800000000E+01 0. -1.
        -11    1    3    3    0    0  0.61483216066E+02  0.30225664462E+02 -0.29171344299E+03  0.29965064570E+03  0.00000000000E+00 0. -1.
         11    1    3    3    0    0  0.10098858477E+03  0.76912362755E+02 -0.18825971744E+03  0.22705930285E+03  0.00000000000E+00 0.  1.
</event>
<event>
 7    1  0.6145388E-006  0.8015763E+02  0.7561462E-02  0.1328605E+00
         -4   -1    0    0    0  501 -0.00000000000E+00  0.00000000000E+00  0.12780150328E+04  0.12780150328E+04  0.00000000000E+00 0.  1.
          4   -1    0    0  501    0  0.00000000000E+00 -0.00000000000E+00 -0.25609172932E+02  0.25609172932E+02  0.00000000000E+00 0. -1.
         23    2    1    2    0    0 -0.17602208589E+02 -0.26316546934E+01  0.76533774176E+02  0.12098346696E+03  0.91993572251E+02 0.  0.
          5    1    1    2  502    0 -0.21779287281E+02 -0.15925735081E+02  0.10297999853E+04  0.10301618555E+04  0.41800000000E+01 0.  1.
         -5    1    1    2    0  502  0.39381495869E+02  0.18557389775E+02  0.14607210046E+03  0.15247888334E+03  0.41800000000E+01 0.  1.
        -11    1    3    3    0    0 -0.42109951784E+02  0.27608320887E+02  0.24487725495E+02  0.55992107670E+02  0.00000000000E+00 0. -1.
         11    1    3    3    0    0  0.24507743196E+02 -0.30239975580E+02  0.52046048681E+02  0.64991359294E+02  0.00000000000E+00 0.  1.
</event>
<event>
 7    1  0.6145388E-006  0.1327180E+03  0.7561462E-02  0.1223478E+00
          2   -1    0    0  501    0  0.00000000000E+00  0.00000000000E+00  0.32152411792E+02  0.32152411792E+02  0.00000000000E+00 0.  1.
         -2   -1    0    0    0  501 -0.00000000000E+00 -0.00000000000E+00 -0.56518522584E+03  0.56518522584E+03  0.00000000000E+00 0. -1.
         23    2    1    2    0    0 -0.45529203950E+01 -0.79009752419E+02 -0.22654080900E+03  0.25697183884E+03  0.91926697717E+02 0.  0.
          5    1    1    2  502    0  0.27016757098E+02  0.10612728163E+03 -0.25782425150E+03  0.28014946391E+03  0.41800000000E+01 0. -1.
         -5    1    1    2    0  502 -0.22463836703E+02 -0.27117529216E+02 -0.48667753542E+02  0.60216334868E+02  0.41800000000E+01 0. -1.
        -11    1    3    3    0    0  0.28235836988E+02 -0.82700289372E+02 -0.17777202685E+03  0.19808961074E+03  0.00000000000E+00 0.  1.
         11    1    3    3    0    0 -0.32788757383E+02  0.36905369538E+01 -0.48768782153E+02  0.58882228104E+02  0.00000000000E+00 0. -1.
</event>
<event>
 7    1  0.6145388E-006  0.1105597E+03  0.7561462E-02  0.1259537E+00
          1   -1    0    0  501    0  0.00000000000E+00  0.00000000000E+00  0.22310807570E+02  0.22310807570E+02  0.00000000000E+00 0. -1.
         -1   -1    0    0    0  501 -0.00000000000E+00 -0.00000000000E+00 -0.94141223665E+03  0.94141223665E+03  0.00000000000E+00 0.  1.
         23    2    1    2    0    0  0.66871386503E+02 -0.43779109910E+02 -0.24009176154E+03  0.26867633697E+03  0.90302421287E+02 0.  0.
          5    1    1    2  502    0 -0.24570697068E+02 -0.18306302370E+02 -0.35197709836E+02  0.46852865852E+02  0.41800000000E+01 0.  1.
         -5    1    1    2    0  502 -0.42300689435E+02  0.62085412280E+02 -0.64381195771E+03  0.64819384140E+03  0.41800000000E+01 0.  1.
        -11    1    3    3    0    0  0.37623334909E+02 -0.67511538843E+02 -0.11928945568E+03  0.14213830392E+03  0.00000000000E+00 0. -1.
         11    1    3    3    0    0  0.29248051593E+02  0.23732428933E+02 -0.12080230586E+03  0.12653803304E+03  0.00000000000E+00 0.  1.
</event>
<event>
 7    1  0.6145388E-006  0.7609530E+02  0.7561462E-02  0.1340512E+00
         -1   -1    0    0    0  501 -0.00000000000E+00  0.00000000000E+00  0.74616697787E+02  0.74616697787E+02  0.00000000000E+00 0.  1.
          1   -1    0    0  501    0  0.00000000000E+00 -0.00000000000E+00 -0.16461513779E+03  0.16461513779E+03  0.00000000000E+00 0. -1.
         23    2    1    2    0    0 -0.60892758490E+01 -0.14929147116E+02 -0.46205336719E+02  0.10571923526E+03  0.93710537555E+02 0.  0.
          5    1    1    2  502    0 -0.39182637294E+02  0.32107043384E+02  0.18862939728E+02  0.54216456869E+02  0.41800000000E+01 0. -1.
         -5    1    1    2    0  502  0.45271913143E+02 -0.17177896268E+02 -0.62656043017E+02  0.79296143452E+02  0.41800000000E+01 0. -1.
        -11    1    3    3    0    0 -0.45016004847E+01  0.18628519177E+02 -0.64624283593E+02  0.67406113696E+02  0.00000000000E+00 0. -1.
         11    1    3    3    0    0 -0.15876753643E+01 -0.33557666293E+02  0.18418946874E+02  0.38313121565E+02  0.00000000000E+00 0.  1.
</event>
<event>
 7    1  0.6145388E-006  0.1027388E+03  0.7561462E-02  0.1274640E+00
         -1   -1    0    0    0  501 -0.00000000000E+00  0.00000000000E+00  0.30269999545E+02  0.30269999545E+02  0.00000000000E+00 0.  1.
          1   -1    0    0  501    0  0.00000000000E+00 -0.00000000000E+00 -0.52672321285E+03  0.52672321285E+03  0.00000000000E+00 0. -1.
         23    2    1    2    0    0  0.59687311031E+02 -0.49773356881E+01 -0.16464755013E+03  0.19736734326E+03  0.90871906832E+02 0.  0.
          5    1    1    2  502    0 -0.11310682509E+02  0.59434404615E+02 -0.10365123497E+03  0.12008926223E+03  0.41800000000E+01 0. -1.
         -5    1    1    2    0  502 -0.48376628522E+02 -0.54457068927E+02 -0.22815442819E+03  0.23953660691E+03  0.41800000000E+01 0. -1.
        -11    1    3    3    0    0  0.22406654057E+02  0.17418513126E+02 -0.14816437274E+03  0.15085802628E+03  0.00000000000E+00 0. -1.
         11    1    3    3    0    0  0.37280656974E+02 -0.22395848814E+02 -0.16483177398E+02  0.46509316977E+02  0.00000000000E+00 0.  1.
</event>
<event>
 7    1  0.6145388E-006  0.8496743E+02  0.7561462E-02  0.1315518E+00
          1   -1    0    0  501    0  0.00000000000E+00  0.00000000000E+00  0.73045624383E+02  0.73045624383E+02  0.00000000000E+00 0. -1.
         -1   -1    0    0    0  501 -0.00000000000E+00 -0.00000000000E+00 -0.26996390612E+03  0.26996390612E+03  0.00000000000E+00 0.  1.
         23    2    1    2    0    0  0.52545949381E+02  0.23023440495E+02 -0.65294608063E+01  0.10977152734E+03  0.93359513431E+02 0.  0.
          5    1    1    2  502    0 -0.77211858978E+01 -0.20927859937E+02  0.12151998326E+02  0.25743649635E+02  0.41800000000E+01 0. -1.
         -5    1    1    2    0  502 -0.44824763483E+02 -0.20955805579E+01 -0.20254081926E+03  0.20749435353E+03  0.41800000000E+01 0.  1.
        -11    1    3    3    0    0  0.74281041609E+02  0.28821751847E+02 -0.21773006814E+02  0.82598004502E+02  0.00000000000E+00 0. -1.
         11    1    3    3    0    0 -0.21735092228E+02 -0.57983113520E+01  0.15243546007E+02  0.27173522841E+02  0.00000000000E+00 0.  1.
</event>
<event>
 7    1  0.6145388E-006  0.8125237E+02  0.7561462E-02  0.1325535E+00
          2   -1    0    0  501    0  0.00000000000E+00  0.00000000000E+00  0.44736104225E+03  0.44736104225E+03  0.00000000000E+00 0. -1.
         -2   -1    0    0    0  501 -0.00000000000E+00 -0.00000000000E+00 -0.36769462765E+02  0.36769462765E+02  0.00000000000E+00 0.  1.
         23    2    1    2    0    0  0.21269256059E+02  0.12182009213E+01  0.18364027528E+03  0.20583314935E+03  0.90496792217E+02 0.  0.
          5    1    1    2  502    0  0.43836875190E+02  0.32499678720E+01  0.20441550140E+03  0.20913011149E+03  0.41800000000E+01 0. -1.
         -5    1    1    2    0  502 -0.65106131249E+02 -0.44681687933E+01  0.22535802804E+02  0.69167244174E+02  0.41800000000E+01 0.  1.
        -11    1    3    3    0    0  0.25361547707E+02 -0.19403256473E+02  0.18196198004E+03  0.18474267684E+03  0.00000000000E+00 0. -1.
         11    1    3    3    0    0 -0.40922916476E+01  0.20621457394E+02  0.16782952341E+01  0.21090472515E+02  0.00000000000E+00 0.  1.
</event>
<event>
 7    1  0.6145388E-006  0.1095060E+03  0.7561462E-02  0.1261487E+00
         -2   -1    0    0    0  501 -0.00000000000E+00  0.00000000000E+00  0.18642137951E+02  0.18642137951E+02  0.00000000000E+00 0. -1.
          2   -1    0    0  501    0  0.00000000000E+00 -0.00000000000E+00 -0.86116202710E+03  0.86116202710E+03  0.00000000000E+00 0.  1.
         23    2    1    2    0    0  0.39345883389E+02  0.52163377400E+02 -0.38818075386E+03  0.40404974221E+03  0.91119591896E+02 0.  0.
          5    1    1    2  502    0 -0.25209974979E+02  0.34087717061E+02 -0.24793761804E+03  0.25157116316E+03  0.41800000000E+01 0. -1.
         -5    1    1    2    0  502 -0.14135908410E+02 -0.86251094460E+02 -0.20640151725E+03  0.22418325969E+03  0.41800000000E+01 0. -1.
        -11    1    3    3    0    0  0.42741396628E+02  0.63795577781E+02 -0.38341417853E+03  0.39102830464E+03  0.00000000000E+00 0.  1.
         11    1    3    3    0    0 -0.33955132385E+01 -0.11632200382E+02 -0.47665753256E+01  0.13021437563E+02  0.00000000000E+00 0. -1.
</event>
<event>
 7    1  0.6145388E-006  0.1353285E+03  0.7561462E-02  0.1219757E+00
          2   -1    0    0  501    0  0.00000000000E+00  0.00000000000E+00  0.11775232552E+04  0.11775232552E+04  0.00000000000E+00 0.  1.
         -2   -1    0    0    0  501 -0.00000000000E+00 -0.00000000000E+00 -0.16317694909E+02  0.16317694909E+02  0.00000000000E+00 0. -1.
         23    2    1    2    0    0 -0.81483817715E+01  0.84106238472E+02  0.58890576933E+03  0.60196603166E+03  0.91721549573E+02 0.  0.
          5    1    1    2  502    0  0.56215596397E+02 -0.85706159753E+02  0.39916999977E+03  0.41214063159E+03  0.41800000000E+01 0.  1.
         -5    1    1    2    0  502 -0.48067214626E+02  0.15999212810E+01  0.17312979124E+03  0.17973428689E+03  0.41800000000E+01 0.  1.
        -11    1    3    3    0    0 -0.40949806780E+02  0.15555330546E+02  0.14063243483E+03  0.14729676408E+03  0.00000000000E+00 0. -1.
         11    1    3    3    0    0  0.32801425009E+02  0.68550907927E+02  0.44827333450E+03  0.45466926758E+03  0.00000000000E+00 0.  1.
</event>
<event>
 7    1  0.6145388E-006  0.1128267E+03  0.7561462E-02  0.1255423E+00
          1   -1    0    0  501    0  0.00000000000E+00  0.00000000000E+00  0.15357140664E+03  0.15357140664E+03  0.00000000000E+00 0. -1.
         -1   -1    0    0    0  501 -0.00000000000E+00 -0.00000000000E+00 -0.18145892765E+03  0.18145892765E+03  0.00000000000E+00 0.  1.
         23    2    1    2    0    0 -0.92772786190E+02  0.93772756091E+01  0.73109030664E+02  0.14917417234E+03  0.90627149213E+02 0.  0.
          5    1    1    2  502    0  0.15900779599E+02 -0.44201204008E+02 -0.88717535281E+02  0.10047315410E+03  0.41800000000E+01 0.  1.
         -5    1    1    2    0  502  0.76872006591E+02  0.34823928398E+02 -0.12279016386E+02  0.85383007852E+02  0.41800000000E+01 0.  1.
        -11    1    3    3    0    0 -0.31552378640E+02 -0.24434198203E+01 -0.19764719110E+02  0.37311754445E+02  0.00000000000E+00 0.  1.
         11    1    3    3    0    0 -0.61220407550E+02  0.11820695429E+02  0.92873749774E+02  0.11186241790E+03  0.00000000000E+00 0. -1.
</event>
<event>
 7    1  0.6145388E-006  0.1164152E+03  0.7561462E-02  0.1249131E+00
         -2   -1    0    0    0  501 -0.00000000000E+00  0.00000000000E+00  0.21277911629E+02  0.21277911629E+02  0.00000000000E+00 0.  1.
          2   -1    0    0  501    0  0.00000000000E+00 -0.00000000000E+00 -0.64969732286E+03  0.64969732286E+03  0.00000000000E+00 0. -1.
         23    2    1    2    0    0 -0.95712858425E+01 -0.43458419311E+02 -0.26217586875E+03  0.28140786859E+03  0.92054107047E+02 0.  0.
          5    1    1    2  502    0 -0.19426497372E+02  0.81951572481E+02 -0.22652932162E+03  0.24171564903E+03  0.41800000000E+01 0. -1.
         -5    1    1    2    0  502  0.28997783215E+02 -0.38493153170E+02 -0.13971422086E+03  0.14785171688E+03  0.41800000000E+01 0. -1.
        -11    1    3    3    0    0  0.38088382759E+02 -0.40790032196E+01 -0.12927275303E+03  0.13482880940E+03  0.00000000000E+00 0.  1.
         11    1    3    3    0    0 -0.47659668601E+02 -0.39379416091E+02 -0.13290311572E+03  0.14657905919E+03  0.00000000000E+00 0. -1.
</event>
<event>
 7    1  0.6145388E-006  0.1106479E+03  0.7561462E-02  0.1259375E+00
          4   -1    0    0  501    0  0.00000000000E+00  0.00000000000E+00  0.22627266174E+02  0.22627266174E+02  0.00000000000E+00 0. -1.
         -4   -1    0    0    0  501 -0.00000000000E+00 -0.00000000000E+00 -0.78943803057E+03  0.78943803057E+03  0.00000000000E+00 0.  1.
         23    2    1    2    0    0 -0.39508443085E+02 -0.58000979707E+02 -0.25170556321E+03  0.27736255701E+03  0.93001434187E+02 0.  0.
          5    1    1    2  502    0  0.34958493501E+02 -0.16065999293E+02 -0.36659819909E+03  0.36863521885E+03  0.41800000000E+01 0. -1.
         -5    1    1    2    0  502  0.45499495836E+01  0.74066979001E+02 -0.14850700210E+03  0.16606752089E+03  0.41800000000E+01 0. -1.
        -11    1    3    3    0    0 -0.44014191537E+02  0.57263563839E+01 -0.55780653457E+02  0.71284791606E+02  0.00000000000E+00 0. -1.
         11    1    3    3    0    0  0.45057484528E+01 -0.63727336091E+02 -0.19592490975E+03  0.20607776541E+03  0.00000000000E+00 0.  1.
</event>
<event>
 7    1  0.6145388E-006  0.1147086E+03  0.7561462E-02  0.1252091E+00
         -2   -1    0    0    0  501 -0.00000000000E+00  0.00000000000E+00  0.39515188884E+03  0.39515188884E+03  0.00000000000E+00 0.  1.
          2   -1    0    0  501    0  0.00000000000E+00 -0.00000000000E+00 -0.35796810307E+02  0.35796810307E+02  0.00000000000E+00 0. -1.
         23    2    1    2    0    0 -0.15711712902E+01  0.42977536019E+02  0.11627571353E+03  0.15421064881E+03  0.91713387617E+02 0.  0.
          5    1    1    2  502    0 -0.57771693142E+02 -0.36769097092E+02  0.16246644470E+03  0.17635859231E+03  0.41800000000E+01 0.  1.
         -5    1    1    2    0  502  0.59342864432E+02 -0.62084389273E+01  0.80612920305E+02  0.10037945802E+03  0.41800000000E+01 0.  1.
        -11    1    3    3    0    0 -0.34004215481E+02  0.56430662414E+02  0.70102143517E+02  0.96202998169E+02  0.00000000000E+00 0. -1.
         11    1    3    3    0    0  0.32433044191E+02 -0.13453126395E+02  0.46173570011E+02  0.58007650641E+02  0.00000000000E+00 0.  1.
</event>
<event>
 7    1  0.6145388E-006  0.1542894E+03  0.7561462E-02  0.1195299E+00
         -1   -1    0    0    0  501 -0.00000000000E+00  0.00000000000E+00  0.15817191848E+03  0.15817191848E+03  0.00000000000E+00 0.  1.
          1   -1    0    0  501    0  0.00000000000E+00 -0.00000000000E+00 -0.25375144404E+03  0.25375144404E+03  0.00000000000E+00 0. -1.
         23    2    1    2    0    0  0.38468920792E+02 -0.11086322404E+03 -0.16483571746E+03  0.22695178758E+03  0.10279001813E+03 0.  0.
          5    1    1    2  502    0 -0.65280372434E+02  0.31138138909E+02 -0.51010994037E+01  0.72626471310E+02  0.41800000000E+01 0.  1.
         -5    1    1    2    0  502  0.26811451642E+02  0.79725085127E+02  0.74357291299E+02  0.11234510362E+03  0.41800000000E+01 0.  1.
        -11    1    3    3    0    0 -0.24667124371E+02 -0.38623345573E+00 -0.10206393656E+02  0.26698064958E+02  0.00000000000E+00 0.  1.
         11    1    3    3    0    0  0.63136045163E+02 -0.11047699058E+03 -0.15462932380E+03  0.20025372263E+03  0.00000000000E+00 0. -1.
</event>
<event>
 7    1  0.6145388E-006  0.1709245E+03  0.7561462E-02  0.1176887E+00
         -1   -1    0    0    0  501 -0.00000000000E+00  0.00000000000E+00  0.80429344957E+03  0.80429344957E+03  0.00000000000E+00 0.  1.
          1   -1    0    0  501    0  0.00000000000E+00 -0.00000000000E+00 -0.43258362749E+02  0.43258362749E+02  0.00000000000E+00 0. -1.
         23    2    1    2    0    0  0.11686430926E+03 -0.90484729844E+02  0.28141382194E+03  0.33032084689E+03  0.89851931514E+02 0.  0.
          5    1    1    2  502    0 -0.46540758434E+02 -0.21983690230E+02  0.72395905816E+02  0.88926736197E+02  0.41800000000E+01 0.  1.
         -5    1    1    2    0  502 -0.70323550824E+02  0.11246842007E+03  0.40722535906E+03  0.42830422923E+03  0.41800000000E+01 0.  1.
        -11    1    3    3    0    0  0.38087535633E+02 -0.63836997321E+02  0.20235519044E+03  0.21557700642E+03  0.00000000000E+00 0.  1.
         11    1    3    3    0    0  0.78776773625E+02 -0.26647732523E+02  0.79058631500E+02  0.11474384047E+03  0.00000000000E+00 0. -1.
</event>
<event>
 7    1  0.6145388E-006  0.1118510E+03  0.7561462E-02  0.1257180E+00
         -2   -1    0    0    0  501 -0.00000000000E+00  0.00000000000E+00  0.31313076095E+02  0.31313076095E+02  0.00000000000E+00 0.  1.
          2   -1    0    0  501    0  0.00000000000E+00 -0.00000000000E+00 -0.55707542519E+03  0.55707542519E+03  0.00000000000E+00 0. -1.
         23    2    1    2    0    0  0.83166329967E+01  0.71536833819E+02 -0.27400202034E+03  0.29818601937E+03  0.93011343511E+02 0.  0.
          5    1    1    2  502    0 -0.44163177847E+02 -0.56913629553E+02 -0.58033087562E+02  0.92600535411E+02  0.41800000000E+01 0. -1.
         -5    1    1    2    0  502  0.35846544851E+02 -0.14623204266E+02 -0.19372724120E+03  0.19760194651E+03  0.41800000000E+01 0. -1.
        -11    1    3    3    0    0 -0.30863995726E+02  0.66224785057E+02 -0.13302663369E+03  0.15177085905E+03  0.00000000000E+00 0.  1.
         11    1    3    3    0    0  0.39180628723E+02  0.53120487621E+01 -0.14097538665E+03  0.14641516031E+03  0.00000000000E+00 0. -1.
</event>
<event>
 7    1  0.6145388E-006  0.6234843E+02  0.7561462E-02  0.1388233E+00
         -1   -1    0    0    0  501 -0.00000000000E+00  0.00000000000E+00  0.23870029434E+03  0.23870029434E+03  0.00000000000E+00 0.  1.
          1   -1    0    0  501    0  0.00000000000E+00 -0.00000000000E+00 -0.61221266501E+02  0.61221266501E+02  0.00000000000E+00 0. -1.
         23    2    1    2    0    0 -0.90914785940E+01  0.34161027598E+02  0.28092472180E+02  0.10188949113E+03  0.91338111541E+02 0.  0.
          5    1    1    2  502    0 -0.26114716306E+01 -0.16427492234E+02  0.16836610054E+03  0.16923740277E+03  0.41800000000E+01 0.  1.
         -5    1    1    2    0  502  0.11702950225E+02 -0.17733535364E+02 -0.18979544881E+02  0.28794666943E+02  0.41800000000E+01 0.  1.
        -11    1    3    3    0    0  0.33837477491E+02  0.24803522694E+02 -0.10678394437E+02  0.43292236357E+02  0.00000000000E+00 0. -1.
         11    1    3    3    0    0 -0.42928956085E+02  0.93575049043E+01  0.38770866618E+02  0.58597254773E+02  0.00000000000E+00 0.  1.
</event>
<event>
 7    1  0.6145388E-006  0.1530455E+03  0.7561462E-02  0.1196780E+00
         -1   -1    0    0    0  501 -0.00000000000E+00  0.00000000000E+00  0.13684345604E+03  0.13684345604E+03  0.00000000000E+00 0.  1.
          1   -1    0    0  501    0  0.00000000000E+00 -0.00000000000E+00 -0.20563986066E+03  0.20563986066E+03  0.00000000000E+00 0. -1.
         23    2    1    2    0    0  0.20865076283E+02  0.12306456416E+03 -0.63929810988E+02  0.16570259907E+03  0.88261499228E+02 0.  0.
          5    1    1    2  502    0 -0.61116980318E+02 -0.11320903871E+03 -0.24009956139E+02  0.13094091081E+03  0.41800000000E+01 0.  1.
         -5    1    1    2    0  502  0.40251904035E+02 -0.98555254536E+01  0.19143362508E+02  0.45839806812E+02  0.41800000000E+01 0.  1.
        -11    1    3    3    0    0 -0.16476724147E+02  0.18955296168E+02  0.15517474017E+02  0.29522494666E+02  0.00000000000E+00 0.  1.
         11    1    3    3    0    0  0.37341800430E+02  0.10410926800E+03 -0.79447285006E+02  0.13618010441E+03  0.00000000000E+00 0. -1.
</event>
<event>
 7    1  0.6145388E-006  0.1785414E+03  0.7561462E-02  0.1169222E+00
         -1   -1    0    0    0  501 -0.00000000000E+00  0.00000000000E+00  0.35504048744E+03  0.35504048744E+03  0.00000000000E+00 0.  1.
          1   -1    0    0  501    0  0.00000000000E+00 -0.00000000000E+00 -0.11528167180E+03  0.11528167180E+03  0.00000000000E+00 0. -1.
         23    2    1    2    0    0 -0.13498187164E+03 -0.59537573852E+02  0.15413765810E+02  0.17410789004E+03  0.91165480456E+02 0.  0.
          5    1    1    2  502    0 -0.96158813569E+01 -0.23508579987E+02  0.40395710108E+02  0.47899940526E+02  0.41800000000E+01 0. -1.
         -5    1    1    2    0  502  0.14459775299E+03  0.83046153840E+02  0.18394933972E+03  0.24831432867E+03  0.41800000000E+01 0. -1.
        -11    1    3    3    0    0 -0.50864117254E+02 -0.62239332910E+02  0.35045500640E+02  0.87687399894E+02  0.00000000000E+00 0.  1.
         11    1    3    3    0    0 -0.84117754384E+02  0.27017590580E+01 -0.19631734830E+02  0.86420490146E+02  0.00000000000E+00 0. -1.
</event>
<event>
 7    1  0.6145388E-006  0.1737106E+03  0.7561462E-02  0.1174033E+00
          3   -1    0    0  501    0  0.00000000000E+00  0.00000000000E+00  0.45633147242E+02  0.45633147242E+02  0.00000000000E+00 0. -1.
         -3   -1    0    0    0  501 -0.00000000000E+00 -0.00000000000E+00 -0.12368445497E+04  0.12368445497E+04  0.00000000000E+00 0.  1.
         23    2    1    2    0    0 -0.65992198986E+02  0.14060110968E+03 -0.18479003365E+03  0.25648831375E+03  0.86690577245E+02 0.  0.
          5    1    1    2  502    0  0.57309226724E+02 -0.15186436587E+03 -0.99236586143E+03  0.10055618372E+04  0.41800000000E+01 0.  1.
         -5    1    1    2    0  502  0.86829722619E+01  0.11263256188E+02 -0.14055507328E+02  0.20427545949E+02  0.41800000000E+01 0.  1.
        -11    1    3    3    0    0 -0.12043730297E+02 -0.63997265845E+01  0.80329232469E+00  0.13662108856E+02  0.00000000000E+00 0. -1.
         11    1    3    3    0    0 -0.53948468689E+02  0.14700083627E+03 -0.18559332598E+03  0.24282620490E+03  0.00000000000E+00 0.  1.
</event>
<event>
 7    1  0.6145388E-006  0.2028820E+03  0.7561462E-02  0.1147330E+00
         -1   -1    0    0    0  501 -0.00000000000E+00  0.00000000000E+00  0.14711739514E+03  0.14711739514E+03  0.00000000000E+00 0.  1.
          1   -1    0    0  501    0  0.00000000000E+00 -0.00000000000E+00 -0.31167935441E+03  0.31167935441E+03  0.00000000000E+00 0. -1.
         23    2    1    2    0    0  0.16125365520E+03  0.87269618260E+02 -0.75631711429E+02  0.21968130809E+03  0.94451012503E+02 0.  0.
          5    1    1    2  502    0 -0.15484998239E+03 -0.31976954926E+02 -0.36056870111E+02  0.16223012351E+03  0.41800000000E+01 0.  1.
         -5    1    1    2    0  502 -0.64036728101E+01 -0.55292663334E+02 -0.52873377727E+02  0.76885317950E+02  0.41800000000E+01 0.  1.
        -11    1    3    3    0    0  0.85725521326E+02  0.14596891741E+02  0.55046803402E+01  0.87133436525E+02  0.00000000000E+00 0.  1.
         11    1    3    3    0    0  0.75528133872E+02  0.72672726519E+02 -0.81136391770E+02  0.13254787156E+03  0.00000000000E+00 0. -1.
</event>
<event>
 7    1  0.6145388E-006  0.1038043E+03  0.7561462E-02  0.1272493E+00
          1   -1    0    0  501    0  0.00000000000E+00  0.00000000000E+00  0.62353243629E+02  0.62353243629E+02  0.00000000000E+00 0. -1.
         -1   -1    0    0    0  501 -0.00000000000E+00 -0.00000000000E+00 -0.21695516579E+03  0.21695516579E+03  0.00000000000E+00 0.  1.
         23    2    1    2    0    0  0.38620476579E+02 -0.40594087837E+01 -0.45368691429E+02  0.10876017690E+03  0.90897953254E+02 0.  0.
          5    1    1    2  502    0 -0.68211790202E+00 -0.57962043171E+02 -0.46527310084E+02  0.74446804613E+02  0.41800000000E+01 0.  1.
         -5    1    1    2    0  502 -0.37938358677E+02  0.62021451954E+02 -0.62705920644E+02  0.96101427905E+02  0.41800000000E+01 0.  1.
        -11    1    3    3    0    0  0.11395659246E+02  0.30565641220E+02 -0.54744836543E+02  0.63726890721E+02  0.00000000000E+00 0.  1.
         11    1    3    3    0    0  0.27224817333E+02 -0.34625050004E+02  0.93761451135E+01  0.45033286176E+02  0.00000000000E+00 0. -1.
</event>
<event>
 7    1  0.6145388E-006  0.1023099E+03  0.7561462E-02  0.1275512E+00
          1   -1    0    0  501    0  0.00000000000E+00  0.00000000000E+00  0.13391975247E+02  0.13391975247E+02  0.00000000000E+00 0. -1.
         -1   -1    0    0    0  501 -0.00000000000E+00 -0.00000000000E+00 -0.10638866465E+04  0.10638866465E+04  0.00000000000E+00 0.  1.
         23    2    1    2    0    0 -0.37374455660E+02  0.28406852826E+02 -0.39300781745E+03  0.40635285455E+03  0.91998361971E+02 0.  0.
          5    1    1    2  502    0 -0.30797801228E+02 -0.14138261622E+01 -0.44536319625E+03  0.44644860000E+03  0.41800000000E+01 0. -1.
         -5    1    1    2    0  502  0.68172256888E+02 -0.26993026664E+02 -0.21212365753E+03  0.22447716718E+03  0.41800000000E+01 0. -1.
        -11    1    3    3    0    0 -0.58747145990E+02  0.44178383521E+02 -0.23821793099E+03  0.24930050015E+03  0.00000000000E+00 0. -1.
         11    1    3    3    0    0  0.21372690330E+02 -0.15771530695E+02 -0.15478988646E+03  0.15705235440E+03  0.00000000000E+00 0.  1.
</event>
<event>
 7    1  0.6145388E-006  0.1004818E+03  0.7561462E-02  0.1279286E+00
         -2   -1    0    0    0  501 -0.00000000000E+00  0.00000000000E+00  0.29945199255E+03  0.29945199255E+03  0.00000000000E+00 0.  1.
          2   -1    0    0  501    0  0.00000000000E+00 -0.00000000000E+00 -0.43479192140E+02  0.43479192140E+02  0.00000000000E+00 0. -1.
         23    2    1    2    0    0  0.30547582789E+02 -0.17746697079E+02  0.10437814690E+03  0.14324148389E+03  0.91516255854E+02 0.  0.
          5    1    1    2  502    0 -0.75442908152E+02  0.32892521725E+02  0.95050849688E+02  0.12580018602E+03  0.41800000000E+01 0.  1.
         -5    1    1    2    0  502  0.44895325363E+02 -0.15145824646E+02  0.56543803822E+02  0.73889514779E+02  0.41800000000E+01 0.  1.
        -11    1    3    3    0    0  0.49458102263E+02 -0.95098078243E+01  0.16534653075E+02  0.53008820744E+02  0.00000000000E+00 0. -1.
         11    1    3    3    0    0 -0.18910519474E+02 -0.82368892551E+01  0.87843493822E+02  0.90232663145E+02  0.00000000000E+00 0.  1.
</event>
<event>
 7    1  0.6145388E-006  0.1038526E+03  0.7561462E-02  0.1272397E+00
         -1   -1    0    0    0  501 -0.00000000000E+00  0.00000000000E+00  0.24914648462E+03  0.24914648462E+03  0.00000000000E+00 0.  1.
          1   -1    0    0  501    0  0.00000000000E+00 -0.00000000000E+00 -0.48084590328E+02  0.48084590328E+02  0.00000000000E+00 0. -1.
         23    2    1    2    0    0 -0.20474350350E+02  0.59907215420E+01  0.70686973871E+02  0.11529685381E+03  0.88552969779E+02 0.  0.
          5    1    1    2  502    0 -0.32725651678E+02 -0.46650135411E+02  0.78685748987E+02  0.97242598203E+02  0.41800000000E+01 0. -1.
         -5    1    1    2    0  502  0.53200002028E+02  0.40659413869E+02  0.51689171438E+02  0.84691622938E+02  0.41800000000E+01 0. -1.
        -11    1    3    3    0    0 -0.49568413741E+02  0.16954488521E+02  0.20492558361E+02  0.56253242307E+02  0.00000000000E+00 0. -1.
         11    1    3    3    0    0  0.29094063391E+02 -0.10963766979E+02  0.50194415510E+02  0.59043611504E+02  0.00000000000E+00 0.  1.
</event>
<event>
 7    1  0.6145388E-006  0.9036812E+02  0.7561462E-02  0.1301963E+00
          4   -1    0    0  501    0  0.00000000000E+00  0.00000000000E+00  0.38416626828E+03  0.38416626828E+03  0.00000000000E+00 0. -1.
         -4   -1    0    0    0  501 -0.00000000000E+00 -0.00000000000E+00 -0.33382410966E+02  0.33382410966E+02  0.00000000000E+00 0.  1.
         23    2    1    2    0    0  0.19229158908E+02  0.48760497619E+02  0.18237249233E+03  0.20130785481E+03  0.67214431275E+02 0.  0.
          5    1    1    2  502    0  0.28850004545E+02  0.14088324085E+02  0.26162378645E+01  0.32482622098E+02  0.41800000000E+01 0. -1.
         -5    1    1    2    0  502 -0.48079163453E+02 -0.62848821704E+02  0.16579512713E+03  0.18375820234E+03  0.41800000000E+01 0. -1.
        -11    1    3    3    0    0  0.30391161785E+02  0.15663527950E+02  0.31648517750E+02  0.46589671583E+02  0.00000000000E+00 0.  1.
         11    1    3    3    0    0 -0.11162002878E+02  0.33096969669E+02  0.15072397458E+03  0.15471818323E+03  0.00000000000E+00 0. -1.
</event>
<event>
 7    1  0.6145388E-006  0.1123456E+03  0.7561462E-02  0.1256287E+00
         -2   -1    0    0    0  501 -0.00000000000E+00  0.00000000000E+00  0.12523129867E+03  0.12523129867E+03  0.00000000000E+00 0.  1.
          2   -1    0    0  501    0  0.00000000000E+00 -0.00000000000E+00 -0.13337442532E+03  0.13337442532E+03  0.00000000000E+00 0. -1.
         23    2    1    2    0    0  0.39839695269E+02  0.50804813132E+02  0.18759959555E+02  0.11527008346E+03  0.93631862645E+02 0.  0.
          5    1    1    2  502    0 -0.15027491823E+02 -0.89709995686E+02 -0.32464598620E+02  0.96670219819E+02  0.41800000000E+01 0.  1.
         -5    1    1    2    0  502 -0.24812203446E+02  0.38905182554E+02  0.55615124161E+01  0.46665420707E+02  0.41800000000E+01 0.  1.
        -11    1    3    3    0    0  0.13675752887E+02  0.58462602624E+02  0.46827198320E+02  0.76142554627E+02  0.00000000000E+00 0.  1.
         11    1    3    3    0    0  0.26163942382E+02 -0.76577894919E+01 -0.28067238765E+02  0.39127528835E+02  0.00000000000E+00 0. -1.
</event>
<event>
 7    1  0.6145388E-006  0.9904270E+02  0.7561462E-02  0.1282322E+00
         -2   -1    0    0    0  501 -0.00000000000E+00  0.00000000000E+00  0.69820174877E+02  0.69820174877E+02  0.00000000000E+00 0.  1.
          2   -1    0    0  501    0  0.00000000000E+00 -0.00000000000E+00 -0.28154747981E+03  0.28154747981E+03  0.00000000000E+00 0. -1.
         23    2    1    2    0    0  0.47872978618E+02  0.28646999717E+01 -0.18911839697E+03  0.21550436390E+03  0.91522315312E+02 0.  0.
          5    1    1    2  502    0 -0.24774160923E+02 -0.54669455836E+02  0.21496061241E+02  0.63891012668E+02  0.41800000000E+01 0.  1.
         -5    1    1    2    0  502 -0.23098817695E+02  0.51804755864E+02 -0.44104969206E+02  0.71972278120E+02  0.41800000000E+01 0.  1.
        -11    1    3    3    0    0  0.37836815919E+02 -0.28977126415E+02 -0.17100363237E+03  0.17752053621E+03  0.00000000000E+00 0. -1.
         11    1    3    3    0    0  0.10036162699E+02  0.31841826386E+02 -0.18114764605E+02  0.37983827691E+02  0.00000000000E+00 0.  1.
</event>
<event>
 7    1  0.6145388E-006  0.9157205E+02  0.7561462E-02  0.1299089E+00
          1   -1    0    0  501    0  0.00000000000E+00  0.00000000000E+00  0.23706406804E+03  0.23706406804E+03  0.00000000000E+00 0. -1.
         -1   -1    0    0    0  501 -0.00000000000E+00 -0.00000000000E+00 -0.55887182280E+02  0.55887182280E+02  0.00000000000E+00 0.  1.
         23    2    1    2    0    0  0.61554536337E+01  0.88621700938E+01  0.12157975797E+03  0.15396879423E+03  0.93852673792E+02 0.  0.
          5    1    1    2  502    0 -0.27912917451E+02 -0.61676984922E+02  0.26409360871E+02  0.72788104600E+02  0.41800000000E+01 0. -1.
         -5    1    1    2    0  502  0.21757463817E+02  0.52814814828E+02  0.33187766914E+02  0.66194351495E+02  0.41800000000E+01 0. -1.
        -11    1    3    3    0    0 -0.70853748652E+01  0.31243973632E+02  0.25580329543E+01  0.32139258826E+02  0.00000000000E+00 0.  1.
         11    1    3    3    0    0  0.13240828499E+02 -0.22381803538E+02  0.11902172502E+03  0.12182953540E+03  0.00000000000E+00 0. -1.
</event>
<event>
 7    1  0.6145388E-006  0.1153021E+03  0.7561462E-02  0.1251055E+00
          1   -1    0    0  501    0  0.00000000000E+00  0.00000000000E+00  0.91502612076E+02  0.91502612076E+02  0.00000000000E+00 0. -1.
         -1   -1    0    0    0  501 -0.00000000000E+00 -0.00000000000E+00 -0.19221295938E+03  0.19221295938E+03  0.00000000000E+00 0.  1.
         23    2    1    2    0    0 -0.91673893594E+00  0.76748451217E+02 -0.56489548617E+02  0.13043719274E+03  0.89059682083E+02 0.  0.
          5    1    1    2  502    0  0.50752736256E+02 -0.10960671226E+02 -0.47610133729E+02  0.70570346357E+02  0.41800000000E+01 0.  1.
         -5    1    1    2    0  502 -0.49835997320E+02 -0.65787779991E+02  0.33893350405E+01  0.82708032361E+02  0.41800000000E+01 0.  1.
        -11    1    3    3    0    0 -0.29114680591E+02  0.42418516723E+02 -0.67301819221E+02  0.84714402892E+02  0.00000000000E+00 0.  1.
         11    1    3    3    0    0  0.28197941655E+02  0.34329934494E+02  0.10812270604E+02  0.45722789849E+02  0.00000000000E+00 0. -1.
</event>
<event>
 7    1  0.6145388E-006  0.1986971E+03  0.7561462E-02  0.1150843E+00
          2   -1    0    0  501    0  0.00000000000E+00  0.00000000000E+00  0.35507290514E+03  0.35507290514E+03  0.00000000000E+00 0. -1.
         -2   -1    0    0    0  501 -0.00000000000E+00 -0.00000000000E+00 -0.12930711146E+03  0.12930711146E+03  0.00000000000E+00 0.  1.
         23    2    1    2    0    0  0.12212954789E+03 -0.11383573062E+03  0.19529277094E+03  0.27405527194E+03  0.95356308967E+02 0.  0.
          5    1    1    2  502    0  0.10786744421E+02  0.63078202005E+02  0.21750118977E+02  0.67718191787E+02  0.41800000000E+01 0. -1.
         -5    1    1    2    0  502 -0.13291629231E+03  0.50757528618E+02  0.87229037568E+01  0.14260655288E+03  0.41800000000E+01 0.  1.
        -11    1    3    3    0    0  0.34807806184E+02  0.12812178628E+02  0.51620094402E+02  0.63563900436E+02  0.00000000000E+00 0.  1.
         11    1    3    3    0    0  0.87321741709E+02 -0.12664790925E+03  0.14367267654E+03  0.21049137150E+03  0.00000000000E+00 0. -1.
</event>
<event>
 7    1  0.6145388E-006  0.1433335E+03  0.7561462E-02  0.1208913E+00
          1   -1    0    0  501    0  0.00000000000E+00  0.00000000000E+00  0.73420061277E+03  0.73420061277E+03  0.00000000000E+00 0. -1.
         -1   -1    0    0    0  501 -0.00000000000E+00 -0.00000000000E+00 -0.36377822036E+02  0.36377822036E+02  0.00000000000E+00 0.  1.
         23    2    1    2    0    0 -0.68909374307E+02  0.80601845509E+02  0.46646297122E+03  0.48699425811E+03  0.91271816820E+02 0.  0.
          5    1    1    2  502    0  0.32336680632E+02 -0.10289720113E+03  0.20866666511E+03  0.23493136114E+03  0.41800000000E+01 0. -1.
         -5    1    1    2    0  502  0.36572693675E+02  0.22295355625E+02  0.22693154394E+02  0.48652815555E+02  0.41800000000E+01 0. -1.
        -11    1    3    3    0    0  0.40990957173E+01  0.59573761547E+02  0.26590622081E+03  0.27252881300E+03  0.00000000000E+00 0. -1.
         11    1    3    3    0    0 -0.73008470024E+02  0.21028083962E+02  0.20055675041E+03  0.21446544511E+03  0.00000000000E+00 0.  1.
</event>
<event>
 7    1  0.6145388E-006  0.8419081E+02  0.7561462E-02  0.1317562E+00
         -2   -1    0    0    0  501 -0.00000000000E+00  0.00000000000E+00  0.83125792762E+02  0.83125792762E+02  0.00000000000E+00 0.  1.
          2   -1    0    0  501    0  0.00000000000E+00 -0.00000000000E+00 -0.17237124039E+03  0.17237124039E+03  0.00000000000E+00 0. -1.
         23    2    1    2    0    0  0.36162754688E+02  0.36753331133E+02 -0.43165231226E+02  0.11256837801E+03  0.90276521672E+02 0.  0.
          5    1    1    2  502    0 -0.53541974934E+02 -0.34891711355E+02  0.25643850131E+02  0.68987347033E+02  0.41800000000E+01 0.  1.
         -5    1    1    2    0  502  0.17379220246E+02 -0.18616197776E+01 -0.71724066535E+02  0.73941308109E+02  0.41800000000E+01 0.  1.
        -11    1    3    3    0    0  0.18581494916E+02 -0.19793692023E+02 -0.45856067873E+02  0.53290160049E+02  0.00000000000E+00 0. -1.
         11    1    3    3    0    0  0.17581259773E+02  0.56547023156E+02  0.26908366469E+01  0.59278217963E+02  0.00000000000E+00 0.  1.
</event>
<event>
 7    1  0.6145388E-006  0.9054075E+02  0.7561462E-02  0.1301547E+00
          1   -1    0    0  501    0  0.00000000000E+00  0.00000000000E+00  0.15733382468E+03  0.15733382468E+03  0.00000000000E+00 0. -1.
         -1   -1    0    0    0  501 -0.00000000000E+00 -0.00000000000E+00 -0.79018805706E+02  0.79018805706E+02  0.00000000000E+00 0.  1.
         23    2    1    2    0    0  0.38448812880E+02  0.17983056247E+02  0.29410377740E+02  0.95498343971E+02  0.80332196898E+02 0.  0.
          5    1    1    2  502    0 -0.76558754194E+02 -0.29561640879E+02  0.63518991444E+01  0.82419369555E+02  0.41800000000E+01 0.  1.
         -5    1    1    2    0  502  0.38109941313E+02  0.11578584632E+02  0.42552742085E+02  0.58434916856E+02  0.41800000000E+01 0.  1.
        -11    1    3    3    0    0  0.27678084198E+02 -0.95614223184E+01 -0.21700453331E+02  0.36447315627E+02  0.00000000000E+00 0. -1.
         11    1    3    3    0    0  0.10770728682E+02  0.27544478565E+02  0.51110831070E+02  0.59051028344E+02  0.00000000000E+00 0.  1.
</event>
<event>
 7    1  0.6145388E-006  0.1145434E+03  0.7561462E-02  0.1252380E+00
         -2   -1    0    0    0  501 -0.00000000000E+00  0.00000000000E+00  0.12836876483E+03  0.12836876483E+03  0.00000000000E+00 0.  1.
          2   -1    0    0  501    0  0.00000000000E+00 -0.00000000000E+00 -0.23472219425E+03  0.23472219425E+03  0.00000000000E+00 0. -1.
         23    2    1    2    0    0 -0.56321592164E+01 -0.88187870170E+02 -0.15648550841E+03  0.20192845303E+03  0.92079118897E+02 0.  0.
          5    1    1    2  502    0 -0.34814468984E+02  0.19032618874E+02 -0.28342262621E+02  0.48939187594E+02  0.41800000000E+01 0.  1.
         -5    1    1    2    0  502  0.40446628201E+02  0.69155251296E+02  0.78474341617E+02  0.11222331846E+03  0.41800000000E+01 0.  1.
        -11    1    3    3    0    0  0.28061170270E+02 -0.26087777248E+02 -0.11215913969E+03  0.11852288393E+03  0.00000000000E+00 0. -1.
         11    1    3    3    0    0 -0.33693329486E+02 -0.62100092922E+02 -0.44326368721E+02  0.83405569099E+02  0.00000000000E+00 0.  1.
</event>
<event>
 7    1  0.6145388E-006  0.1213650E+03  0.7561462E-02  0.1240862E+00
         -2   -1    0    0    0  501 -0.00000000000E+00  0.00000000000E+00  0.54094793357E+02  0.54094793357E+02  0.00000000000E+00 0. -1.
          2   -1    0    0  501    0  0.00000000000E+00 -0.00000000000E+00 -0.30974405155E+03  0.30974405155E+03  0.00000000000E+00 0.  1.
         23    2    1    2    0    0 -0.49650762289E+02 -0.38872894485E+02 -0.16151926476E+03  0.19506766890E+03  0.89367904984E+02 0.  0.
          5    1    1    2  502    0 -0.10985161439E+02  0.70004174776E+02 -0.57027062249E+02  0.91053920765E+02  0.41800000000E+01 0.  1.
         -5    1    1    2    0  502  0.60635923728E+02 -0.31131280292E+02 -0.37102931180E+02  0.77717255234E+02  0.41800000000E+01 0.  1.
        -11    1    3    3    0    0  0.21222128424E+02  0.25373447660E+01 -0.64682555355E+02  0.68122315144E+02  0.00000000000E+00 0.  1.
         11    1    3    3    0    0 -0.70872890713E+02 -0.41410239251E+02 -0.96836709405E+02  0.12694535376E+03  0.00000000000E+00 0. -1.
</event>
<event>
 7    1  0.6145388E-006  0.1121994E+03  0.7561462E-02  0.1256550E+00
          2   -1    0    0  501    0  0.00000000000E+00  0.00000000000E+00  0.51488589846E+03  0.51488589846E+03  0.00000000000E+00 0. -1.
         -2   -1    0    0    0  501 -0.00000000000E+00 -0.00000000000E+00 -0.34407123974E+02  0.34407123974E+02  0.00000000000E+00 0.  1.
         23    2    1    2    0    0 -0.25562465698E+02 -0.66642785521E+02  0.27765367435E+03  0.30053745937E+03  0.90202555888E+02 0.  0.
          5    1    1    2  502    0 -0.41541090450E+02  0.19054016201E+02  0.23817851871E+02  0.51705707586E+02  0.41800000000E+01 0. -1.
         -5    1    1    2    0  502  0.67103556149E+02  0.47588769320E+02  0.17900724826E+03  0.19704985548E+03  0.41800000000E+01 0. -1.
        -11    1    3    3    0    0 -0.30034656877E+02 -0.70310238387E+00  0.18082271506E+03  0.18330147093E+03  0.00000000000E+00 0. -1.
         11    1    3    3    0    0  0.44721911784E+01 -0.65939683138E+02  0.96830959297E+02  0.11723598844E+03  0.00000000000E+00 0.  1.
</event>
<event>
 7    1  0.6145388E-006  0.9610869E+02  0.7561462E-02  0.1288698E+00
         -2   -1    0    0    0  501 -0.00000000000E+00  0.00000000000E+00  0.79861271231E+02  0.79861271231E+02  0.00000000000E+00 0.  1.
          2   -1    0    0  501    0  0.00000000000E+00 -0.00000000000E+00 -0.17403824999E+03  0.17403824999E+03  0.00000000000E+00 0. -1.
         23    2    1    2    0    0 -0.27590297276E+02  0.32366161043E+02 -0.52891576071E+02  0.11548454152E+03  0.93436436292E+02 0.  0.
          5    1    1    2  502    0 -0.26668808564E+02  0.35832471399E+02 -0.13694497594E+02  0.46906321761E+02  0.41800000000E+01 0.  1.
         -5    1    1    2    0  502  0.54259105840E+02 -0.68198632442E+02 -0.27590905093E+02  0.91508657936E+02  0.41800000000E+01 0.  1.
        -11    1    3    3    0    0  0.11520010435E+02  0.67478542509E+01  0.22856153077E+02  0.26469754643E+02  0.00000000000E+00 0.  1.
         11    1    3    3    0    0 -0.39110307711E+02  0.25618306792E+02 -0.75747729148E+02  0.89014786879E+02  0.00000000000E+00 0. -1.
</event>
<event>
 7    1  0.6145388E-006  0.1154372E+03  0.7561462E-02  0.1250820E+00
          2   -1    0    0  501    0  0.00000000000E+00  0.00000000000E+00  0.72661610757E+03  0.72661610757E+03  0.00000000000E+00 0. -1.
         -2   -1    0    0    0  501 -0.00000000000E+00 -0.00000000000E+00 -0.20559703631E+02  0.20559703631E+02  0.00000000000E+00 0.  1.
         23    2    1    2    0    0 -0.42232502604E+02  0.12624362012E+02  0.39871981249E+03  0.41244267725E+03  0.95856738666E+02 0.  0.
          5    1    1    2  502    0 -0.37923657864E+02 -0.26749119101E+02  0.72750951731E+02  0.86393822558E+02  0.41800000000E+01 0.  1.
         -5    1    1    2    0  502  0.80156160468E+02  0.14124757090E+02  0.23458563971E+03  0.24833931140E+03  0.41800000000E+01 0.  1.
        -11    1    3    3    0    0 -0.30499592317E+02  0.52772685713E+02  0.18876127862E+03  0.19835826626E+03  0.00000000000E+00 0. -1.
         11    1    3    3    0    0 -0.11732910287E+02 -0.40148323701E+02  0.20995853388E+03  0.21408441099E+03  0.00000000000E+00 0.  1.
</event>
<event>
 7    1  0.6145388E-006  0.2575560E+03  0.7561462E-02  0.1108621E+00
         -1   -1    0    0    0  501 -0.00000000000E+00  0.00000000000E+00  0.19740756384E+03  0.19740756384E+03  0.00000000000E+00 0.  1.
          1   -1    0    0  501    0  0.00000000000E+00 -0.00000000000E+00 -0.42213080721E+03  0.42213080721E+03  0.00000000000E+00 0. -1.
         23    2    1    2    0    0  0.46785838901E+02  0.24851997282E+03 -0.17961535447E+02  0.26975384343E+03  0.92159794254E+02 0.  0.
          5    1    1    2  502    0 -0.19472465349E+02 -0.12068036042E+03 -0.23360319875E+02  0.12452350478E+03  0.41800000000E+01 0.  1.
         -5    1    1    2    0  502 -0.27313373552E+02 -0.12783961240E+03 -0.18340138805E+03  0.22526102284E+03  0.41800000000E+01 0.  1.
        -11    1    3    3    0    0  0.63549115331E+02  0.16484820580E+03 -0.40991636515E+02  0.18136630139E+03  0.00000000000E+00 0. -1.
         11    1    3    3    0    0 -0.16763276430E+02  0.83671767013E+02  0.23030101069E+02  0.88387542035E+02  0.00000000000E+00 0.  1.
</event>
<event>
 7    1  0.6145388E-006  0.1056438E+03  0.7561462E-02  0.1268856E+00
         -1   -1    0    0    0  501 -0.00000000000E+00  0.00000000000E+00  0.19259469687E+03  0.19259469687E+03  0.00000000000E+00 0.  1.
          1   -1    0    0  501    0  0.00000000000E+00 -0.00000000000E+00 -0.10539222371E+03  0.10539222371E+03  0.00000000000E+00 0. -1.
         23    2    1    2    0    0  0.81136450300E+02 -0.81295482251E+01  0.44482935839E+01  0.12726849910E+03  0.97612859939E+02 0.  0.
          5    1    1    2  502    0 -0.16661201756E+02  0.92867925413E+01 -0.32886579467E+02  0.38247087062E+02  0.41800000000E+01 0.  1.
         -5    1    1    2    0  502 -0.64475248544E+02 -0.11572443162E+01  0.11564075904E+03  0.13247133441E+03  0.41800000000E+01 0.  1.
        -11    1    3    3    0    0  0.81265779398E+02 -0.43223237501E+02  0.16037262975E+01  0.92059475880E+02  0.00000000000E+00 0. -1.
         11    1    3    3    0    0 -0.12932909754E+00  0.35093689276E+02  0.28445672865E+01  0.35209023219E+02  0.00000000000E+00 0.  1.
</event>
<event>
 7    1  0.6145388E-006  0.8084151E+02  0.7561462E-02  0.1326680E+00
         -2   -1    0    0    0  501 -0.00000000000E+00  0.00000000000E+00  0.12573675345E+03  0.12573675345E+03  0.00000000000E+00 0.  1.
          2   -1    0    0  501    0  0.00000000000E+00 -0.00000000000E+00 -0.12422296601E+03  0.12422296601E+03  0.00000000000E+00 0. -1.
         23    2    1    2    0    0 -0.50712157219E+02 -0.12170978490E+02 -0.50487627238E+02  0.11751025747E+03  0.92411062646E+02 0.  0.
          5    1    1    2  502    0  0.13176736658E+02 -0.37073563996E+02 -0.13889596799E+02  0.41934101106E+02  0.41800000000E+01 0. -1.
         -5    1    1    2    0  502  0.37535420560E+02  0.49244542486E+02  0.65891011483E+02  0.90515360882E+02  0.41800000000E+01 0.  1.
        -11    1    3    3    0    0 -0.26982348364E+02  0.88070427486E+01  0.23614951751E+02  0.36922582133E+02  0.00000000000E+00 0.  1.
         11    1    3    3    0    0 -0.23729808855E+02 -0.20978021239E+02 -0.74102578989E+02  0.80587675337E+02  0.00000000000E+00 0. -1.
</event>
<event>
 7    1  0.6145388E-006  0.1148796E+03  0.7561462E-02  0.1251791E+00
          4   -1    0    0  501    0  0.00000000000E+00  0.00000000000E+00  0.12899359824E+03  0.12899359824E+03  0.00000000000E+00 0. -1.
         -4   -1    0    0    0  501 -0.00000000000E+00 -0.00000000000E+00 -0.14829717082E+03  0.14829717082E+03  0.00000000000E+00 0.  1.
         23    2    1    2    0    0 -0.70528462002E+02  0.16213247070E+02  0.30917377185E+02  0.12335544173E+03  0.94992354745E+02 0.  0.
          5    1    1    2  502    0  0.86163367023E+02 -0.29090061516E+02  0.87363478714E+01  0.91455747057E+02  0.41800000000E+01 0. -1.
         -5    1    1    2    0  502 -0.15634905021E+02  0.12876814446E+02 -0.58957297639E+02  0.62479580266E+02  0.41800000000E+01 0.  1.
        -11    1    3    3    0    0 -0.92905035089E+02  0.20783475115E+02  0.17285256178E+02  0.96757834121E+02  0.00000000000E+00 0. -1.
         11    1    3    3    0    0  0.22376573086E+02 -0.45702280456E+01  0.13632121006E+02  0.26597607611E+02  0.00000000000E+00 0.  1.
</event>
<event>
 7    1  0.6145388E-006  0.1987200E+03  0.7561462E-02  0.1150823E+00
          1   -1    0    0  501    0  0.00000000000E+00  0.00000000000E+00  0.33308900600E+03  0.33308900600E+03  0.00000000000E+00 0. -1.
         -1   -1    0    0    0  501 -0.00000000000E+00 -0.00000000000E+00 -0.17148983195E+03  0.17148983195E+03  0.00000000000E+00 0.  1.
         23    2    1    2    0    0 -0.12540858387E+03 -0.10831364446E+03  0.19261820163E+03  0.27003663431E+03  0.91426767334E+02 0.  0.
          5    1    1    2  502    0  0.10708286463E+03 -0.44033992065E+01  0.20492842487E+02  0.10919504940E+03  0.41800000000E+01 0. -1.
         -5    1    1    2    0  502  0.18325719243E+02  0.11271704367E+03 -0.51511870066E+02  0.12534715425E+03  0.41800000000E+01 0.  1.
        -11    1    3    3    0    0 -0.53548067203E+02 -0.10547880714E+02  0.18132122115E+02  0.57510235099E+02  0.00000000000E+00 0.  1.
         11    1    3    3    0    0 -0.71860516665E+02 -0.97765763751E+02  0.17448607951E+03  0.21252639921E+03  0.00000000000E+00 0. -1.
</event>
<event>
 7    1  0.6145388E-006  0.1109526E+03  0.7561462E-02  0.1258816E+00
          2   -1    0    0  501    0  0.00000000000E+00  0.00000000000E+00  0.41132038540E+03  0.41132038540E+03  0.00000000000E+00 0.  1.
         -2   -1    0    0    0  501 -0.00000000000E+00 -0.00000000000E+00 -0.36047966434E+02  0.36047966434E+02  0.00000000000E+00 0. -1.
         23    2    1    2    0    0 -0.12242597708E+02  0.40689267823E+02  0.24692938113E+03  0.26318543339E+03  0.80541637469E+02 0.  0.
          5    1    1    2  502    0  0.19935346639E+02 -0.84143759973E+02  0.72762358494E+02  0.11309033381E+03  0.41800000000E+01 0. -1.
         -5    1    1    2    0  502 -0.76927489307E+01  0.43454492150E+02  0.55580679339E+02  0.71092584634E+02  0.41800000000E+01 0. -1.
        -11    1    3    3    0    0  0.34385290029E+02  0.21681369201E+02  0.10558973604E+03  0.11314425438E+03  0.00000000000E+00 0.  1.
         11    1    3    3    0    0 -0.46627887738E+02  0.19007898622E+02  0.14133964509E+03  0.15004117901E+03  0.00000000000E+00 0. -1.
</event>
<event>
 7    1  0.6145388E-006  0.2043362E+03  0.7561462E-02  0.1146131E+00
          1   -1    0    0  501    0  0.00000000000E+00  0.00000000000E+00  0.26169006685E+03  0.26169006685E+03  0.00000000000E+00 0. -1.
         -1   -1    0    0    0  501 -0.00000000000E+00 -0.00000000000E+00 -0.16911010556E+03  0.16911010556E+03  0.00000000000E+00 0.  1.
         23    2    1    2    0    0  0.16369299388E+03  0.74538316569E+02  0.42913176635E+02  0.20615543701E+03  0.91143659103E+02 0.  0.
          5    1    1    2  502    0 -0.10443202383E+03  0.97407268169E+01  0.60181922870E+02  0.12099696525E+03  0.41800000000E+01 0. -1.
         -5    1    1    2    0  502 -0.59260970054E+02 -0.84279043386E+02 -0.10515138207E+02  0.10364777015E+03  0.41800000000E+01 0. -1.
        -11    1    3    3    0    0  0.56696341726E+02  0.74467330556E+02  0.95614672096E+01  0.94081242235E+02  0.00000000000E+00 0. -1.
         11    1    3    3    0    0  0.10699665216E+03  0.70986012564E-01  0.33351709425E+02  0.11207419477E+03  0.00000000000E+00 0.  1.
</event>
<event>
 7    1  0.6145388E-006  0.6083722E+02  0.7561462E-02  0.1394352E+00
          1   -1    0    0  501    0  0.00000000000E+00  0.00000000000E+00  0.50544596198E+02  0.50544596198E+02  0.00000000000E+00 0. -1.
         -1   -1    0    0    0  501 -0.00000000000E+00 -0.00000000000E+00 -0.25229844060E+03  0.25229844060E+03  0.00000000000E+00 0.  1.
         23    2    1    2    0    0  0.28506536033E+02  0.20929124529E+02 -0.68391119416E+02  0.11660930601E+03  0.87577018583E+02 0.  0.
          5    1    1    2  502    0 -0.10774950065E+01 -0.39332426966E+02  0.85381250912E+01  0.40479288366E+02  0.41800000000E+01 0.  1.
         -5    1    1    2    0  502 -0.27429041026E+02  0.18403302437E+02 -0.14190085007E+03  0.14575444241E+03  0.41800000000E+01 0.  1.
        -11    1    3    3    0    0  0.24080258206E+02 -0.31891610101E+01  0.15762035989E+02  0.28956369968E+02  0.00000000000E+00 0. -1.
         11    1    3    3    0    0  0.44262778266E+01  0.24118285540E+02 -0.84153155405E+02  0.87652936045E+02  0.00000000000E+00 0.  1.
</event>
<event>
 7    1  0.6145388E-006  0.1030977E+03  0.7561462E-02  0.1273914E+00
         -2   -1    0    0    0  501 -0.00000000000E+00  0.00000000000E+00  0.18845047565E+03  0.18845047565E+03  0.00000000000E+00 0. -1.
          2   -1    0    0  501    0  0.00000000000E+00 -0.00000000000E+00 -0.95103166446E+02  0.95103166446E+02  0.00000000000E+00 0.  1.
         23    2    1    2    0    0 -0.51826260201E+02  0.39836202161E+02  0.45366395640E+02  0.13448494744E+03  0.10842143232E+03 0.  0.
          5    1    1    2  502    0 -0.26213280919E+01 -0.45308139161E+02 -0.29374766107E+02  0.54222210570E+02  0.41800000000E+01 0.  1.
         -5    1    1    2    0  502  0.54447588293E+02  0.54719370006E+01  0.77355679666E+02  0.94846484079E+02  0.41800000000E+01 0.  1.
        -11    1    3    3    0    0  0.56424751550E+01 -0.21180237746E+02  0.45678410552E+02  0.50665147660E+02  0.00000000000E+00 0. -1.
         11    1    3    3    0    0 -0.57468735356E+02  0.61016439907E+02 -0.31201491156E+00  0.83819799783E+02  0.00000000000E+00 0.  1.
</event>
<event>
 7    1  0.6145388E-006  0.9051175E+02  0.7561462E-02  0.1301617E+00
         -3   -1    0    0    0  501 -0.00000000000E+00  0.00000000000E+00  0.87309973612E+02  0.87309973612E+02  0.00000000000E+00 0.  1.
          3   -1    0    0  501    0  0.00000000000E+00 -0.00000000000E+00 -0.18037863671E+03  0.18037863671E+03  0.00000000000E+00 0. -1.
         23    2    1    2    0    0 -0.41488383900E+02  0.44088898716E+02 -0.37110565538E+02  0.11787710889E+03  0.94088797091E+02 0.  0.
          5    1    1    2  502    0  0.47901294837E+02  0.22415150146E+02 -0.63157632322E+02  0.82482312792E+02  0.41800000000E+01 0. -1.
         -5    1    1    2    0  502 -0.64129109372E+01 -0.66504048862E+02  0.71995347612E+01  0.67329188637E+02  0.41800000000E+01 0. -1.
        -11    1    3    3    0    0 -0.28416706190E+02  0.24733196343E+02  0.29141632365E+02  0.47628509623E+02  0.00000000000E+00 0.  1.
         11    1    3    3    0    0 -0.13071677710E+02  0.19355702373E+02 -0.66252197903E+02  0.70248599271E+02  0.00000000000E+00 0. -1.
</event>
<event>
 7    1  0.6145388E-006  0.1332907E+03  0.7561462E-02  0.1222653E+00
          1   -1    0    0  501    0  0.00000000000E+00  0.00000000000E+00  0.54491142893E+03  0.54491142893E+03  0.00000000000E+00 0. -1.
         -1   -1    0    0    0  501 -0.00000000000E+00 -0.00000000000E+00 -0.36676170332E+02  0.36676170332E+02  0.00000000000E+00 0.  1.
         23    2    1    2    0    0 -0.88500364484E+02 -0.26537471958E+02  0.23610974118E+03  0.26816359514E+03  0.87334712149E+02 0.  0.
          5    1    1    2  502    0  0.14480349824E+02 -0.38315734967E+02  0.26969790537E+02  0.49220098321E+02  0.41800000000E+01 0.  1.
         -5    1    1    2    0  502  0.74020014660E+02  0.64853206925E+02  0.24515572688E+03  0.26420390580E+03  0.41800000000E+01 0.  1.
        -11    1    3    3    0    0 -0.26374068702E+02 -0.53139993720E+02  0.10235573833E+03  0.11830531518E+03  0.00000000000E+00 0. -1.
         11    1    3    3    0    0 -0.62126295782E+02  0.26602521762E+02  0.13375400286E+03  0.14985827996E+03  0.00000000000E+00 0.  1.
</event>
<event>
 7    1  0.6145388E-006  0.1049770E+03  0.7561462E-02  0.1270165E+00
          3   -1    0    0  501    0  0.00000000000E+00  0.00000000000E+00  0.22612019998E+02  0.22612019998E+02  0.00000000000E+00 0. -1.
         -3   -1    0    0    0  501 -0.00000000000E+00 -0.00000000000E+00 -0.67654727924E+03  0.67654727924E+03  0.00000000000E+00 0.  1.
         23    2    1    2    0    0 -0.36975072450E+02  0.38807779364E+02 -0.21096649579E+03  0.23575765792E+03  0.90562747313E+02 0.  0.
          5    1    1    2  502    0  0.82022104821E+02 -0.14513939451E+02 -0.30460411000E+03  0.31581547832E+03  0.41800000000E+01 0. -1.
         -5    1    1    2    0  502 -0.45047032371E+02 -0.24293839913E+02 -0.13836465345E+03  0.14758616300E+03  0.41800000000E+01 0. -1.
        -11    1    3    3    0    0  0.43782351486E+01  0.33180022271E+02 -0.18176749563E+03  0.18482290250E+03  0.00000000000E+00 0.  1.
         11    1    3    3    0    0 -0.41353307599E+02  0.56277570929E+01 -0.29199000154E+02  0.50934755415E+02  0.00000000000E+00 0. -1.
</event>
<event>
 7    1  0.6145388E-006  0.8159749E+02  0.7561462E-02  0.1324578E+00
          1   -1    0    0  501    0  0.00000000000E+00  0.00000000000E+00  0.25034463884E+03  0.25034463884E+03  0.00000000000E+00 0. -1.
         -1   -1    0    0    0  501 -0.00000000000E+00 -0.00000000000E+00 -0.59227861273E+02  0.59227861273E+02  0.00000000000E+00 0.  1.
         23    2    1    2    0    0 -0.38216733026E+02 -0.20880057921E+02  0.12430220566E+03  0.16121937265E+03  0.92973933350E+02 0.  0.
          5    1    1    2  502    0  0.61533300210E+02 -0.22795157721E+01  0.89128284748E+02  0.10841063956E+03  0.41800000000E+01 0.  1.
         -5    1    1    2    0  502 -0.23316567184E+02  0.23159573693E+02 -0.22313712848E+02  0.39942487904E+02  0.41800000000E+01 0.  1.
        -11    1    3    3    0    0 -0.25110519206E+02  0.15616666561E+02 -0.14675940900E+01  0.29606963398E+02  0.00000000000E+00 0.  1.
         11    1    3    3    0    0 -0.13106213820E+02 -0.36496724482E+02  0.12576979975E+03  0.13161240925E+03  0.00000000000E+00 0. -1.
</event>
<event>
 7    1  0.6145388E-006  0.1052504E+03  0.7561462E-02  0.1269627E+00
         -2   -1    0    0    0  501 -0.00000000000E+00  0.00000000000E+00  0.32022680417E+02  0.32022680417E+02  0.00000000000E+00 0. -1.
          2   -1    0    0  501    0  0.00000000000E+00 -0.00000000000E+00 -0.41609897238E+03  0.41609897238E+03  0.00000000000E+00 0.  1.
         23    2    1    2    0    0 -0.22305014571E+02 -0.18785559416E+02 -0.21679371852E+03  0.23720810550E+03  0.91748340628E+02 0.  0.
          5    1    1    2  502    0  0.71424451048E+02  0.27585525091E+02 -0.11746294913E+03  0.14027626392E+03  0.41800000000E+01 0.  1.
         -5    1    1    2    0  502 -0.49119436477E+02 -0.87999656754E+01 -0.49819624320E+02  0.70637283378E+02  0.41800000000E+01 0.  1.
        -11    1    3    3    0    0  0.17356028272E+02 -0.36416374861E+02 -0.46923139270E+02  0.61880247853E+02  0.00000000000E+00 0. -1.
         11    1    3    3    0    0 -0.39661042844E+02  0.17630815445E+02 -0.16987057925E+03  0.17532785764E+03  0.00000000000E+00 0.  1.
</event>
<event>
 7    1  0.6145388E-006  0.1271685E+03  0.7561462E-02  0.1231719E+00
         -1   -1    0    0    0  501 -0.00000000000E+00  0.00000000000E+00  0.48384393596E+03  0.48384393596E+03  0.00000000000E+00 0.  1.
          1   -1    0    0  501    0  0.00000000000E+00 -0.00000000000E+00 -0.62469251288E+02  0.62469251288E+02  0.00000000000E+00 0. -1.
         23    2    1    2    0    0 -0.83660831876E+02 -0.30797906673E+02  0.37392264255E+02  0.13274624262E+03  0.90971081436E+02 0.  0.
          5    1    1    2  502    0  0.11831082670E+02 -0.43323701714E+02  0.72334056419E+02  0.85244388469E+02  0.41800000000E+01 0.  1.
         -5    1    1    2    0  502  0.71829749206E+02  0.74121608387E+02  0.31164836400E+03  0.32832255616E+03  0.41800000000E+01 0.  1.
        -11    1    3    3    0    0 -0.45931082104E+02  0.13375456603E+02 -0.19289912070E+02  0.51581661957E+02  0.00000000000E+00 0. -1.
         11    1    3    3    0    0 -0.37729749773E+02 -0.44173363276E+02  0.56682176325E+02  0.81164580662E+02  0.00000000000E+00 0.  1.
</event>
<event>
 7    1  0.6145388E-006  0.1024157E+03  0.7561462E-02  0.1275297E+00
          3   -1    0    0  501    0  0.00000000000E+00  0.00000000000E+00  0.17325468930E+03  0.17325468930E+03  0.00000000000E+00 0. -1.
         -3   -1    0    0    0  501 -0.00000000000E+00 -0.00000000000E+00 -0.80151695100E+02  0.80151695100E+02  0.00000000000E+00 0.  1.
         23    2    1    2    0    0  0.47018558700E+02 -0.19012771742E+01  0.60916350403E+02  0.11591839912E+03  0.86671297391E+02 0.  0.
          5    1    1    2  502    0  0.29360451121E+02 -0.36491522738E+01 -0.27264334308E+02  0.40449582540E+02  0.41800000000E+01 0.  1.
         -5    1    1    2    0  502 -0.76379009821E+02  0.55504294480E+01  0.59450978108E+02  0.97038402740E+02  0.41800000000E+01 0.  1.
        -11    1    3    3    0    0  0.72341481065E+02 -0.60594221878E+01  0.40517436152E+02  0.83136448758E+02  0.00000000000E+00 0.  1.
         11    1    3    3    0    0 -0.25322922364E+02  0.41581450135E+01  0.20398914252E+02  0.32781950364E+02  0.00000000000E+00 0. -1.
</event>
<event>
 7    1  0.6145388E-006  0.1006707E+03  0.7561462E-02  0.1278892E+00
          2   -1    0    0  501    0  0.00000000000E+00  0.00000000000E+00  0.12302492620E+03  0.12302492620E+03  0.00000000000E+00 0. -1.
         -2   -1    0    0    0  501 -0.00000000000E+00 -0.00000000000E+00 -0.17850294128E+03  0.17850294128E+03  0.00000000000E+00 0.  1.
         23    2    1    2    0    0  0.73440020675E+02 -0.24285008606E+01  0.44432347516E+02  0.12537022378E+03  0.91346183562E+02 0.  0.
          5    1    1    2  502    0 -0.67878980918E+02  0.46501768260E+02 -0.10244995289E+03  0.13146648146E+03  0.41800000000E+01 0. -1.
         -5    1    1    2    0  502 -0.55610397568E+01 -0.44073267400E+02  0.25395902920E+01  0.44691162228E+02  0.41800000000E+01 0. -1.
        -11    1    3    3    0    0  0.63994882749E+02 -0.59165855950E+01 -0.14251408456E+02  0.65828972696E+02  0.00000000000E+00 0.  1.
         11    1    3    3    0    0  0.94451379260E+01  0.34880847344E+01  0.58683755972E+02  0.59541251083E+02  0.00000000000E+00 0. -1.
</event>
<event>
 7    1  0.6145388E-006  0.1112078E+03  0.7561462E-02  0.1258349E+00
         -1   -1    0    0    0  501 -0.00000000000E+00  0.00000000000E+00  0.12736682771E+04  0.12736682771E+04  0.00000000000E+00 0.  1.
          1   -1    0    0  501    0  0.00000000000E+00 -0.00000000000E+00 -0.13316267505E+02  0.13316267505E+02  0.00000000000E+00 0. -1.
         23    2    1    2    0    0  0.42860899594E+02 -0.45356074397E+02  0.39876070196E+03  0.41412298946E+03  0.92701255501E+02 0.  0.
          5    1    1    2  502    0 -0.28342605257E+02  0.77905425889E+02  0.77047746014E+03  0.77493583453E+03  0.41800000000E+01 0.  1.
         -5    1    1    2    0  502 -0.14518294337E+02 -0.32549351492E+02  0.91113847517E+02  0.97925720638E+02  0.41800000000E+01 0.  1.
        -11    1    3    3    0    0  0.44304742024E+02  0.12197365622E+02  0.10263507100E+03  0.11245285098E+03  0.00000000000E+00 0. -1.
         11    1    3    3    0    0 -0.14438424302E+01 -0.57553440019E+02  0.29612563097E+03  0.30167013849E+03  0.00000000000E+00 0.  1.
</event>
<event>
 7    1  0.6145388E-006  0.1079967E+03  0.7561462E-02  0.1264325E+00
         -2   -1    0    0    0  501 -0.00000000000E+00  0.00000000000E+00  0.35136097045E+02  0.35136097045E+02  0.00000000000E+00 0. -1.
          2   -1    0    0  501    0  0.00000000000E+00 -0.00000000000E+00 -0.50430935847E+03  0.50430935847E+03  0.00000000000E+00 0.  1.
         23    2    1    2    0    0 -0.51843503124E+02  0.33136653888E+02 -0.30440124719E+03  0.32361334535E+03  0.90992809358E+02 0.  0.
          5    1    1    2  502    0  0.35351784241E+02 -0.80831265632E+02 -0.11286978408E+03  0.14331958244E+03  0.41800000000E+01 0. -1.
         -5    1    1    2    0  502  0.16491718883E+02  0.47694611744E+02 -0.51902230153E+02  0.72512527718E+02  0.41800000000E+01 0. -1.
        -11    1    3    3    0    0 -0.47984421770E+02  0.45647084784E+01 -0.28456230557E+03  0.28861574289E+03  0.00000000000E+00 0.  1.
         11    1    3    3    0    0 -0.38590813538E+01  0.28571945409E+02 -0.19838941620E+02  0.34997602460E+02  0.00000000000E+00 0. -1.
</event>
<event>
 7    1  0.6145388E-006  0.2140116E+03  0.7561462E-02  0.1138428E+00
          1   -1    0    0  501    0  0.00000000000E+00  0.00000000000E+00  0.12277116689E+04  0.12277116689E+04  0.00000000000E+00 0. -1.
         -1   -1    0    0    0  501 -0.00000000000E+00 -0.00000000000E+00 -0.45616937782E+02  0.45616937782E+02  0.00000000000E+00 0.  1.
         23    2    1    2    0    0 -0.97106523271E+02 -0.15571901684E+00  0.29395300738E+03  0.32347170374E+03  0.93786307436E+02 0.  0.
          5    1    1    2  502    0  0.12535855654E+03 -0.12323661162E+03  0.29573246810E+03  0.34405987158E+03  0.41800000000E+01 0. -1.
         -5    1    1    2    0  502 -0.28252033265E+02  0.12339233064E+03  0.59240925564E+03  0.60579703136E+03  0.41800000000E+01 0.  1.
        -11    1    3    3    0    0 -0.79745862055E+02 -0.34622411498E+02  0.25148556743E+03  0.26608852759E+03  0.00000000000E+00 0. -1.
         11    1    3    3    0    0 -0.17360661216E+02  0.34466692481E+02  0.42467439950E+02  0.57383176144E+02  0.00000000000E+00 0.  1.
</event>
<event>
 7    1  0.6145388E-006  0.1169124E+03  0.7561462E-02  0.1248279E+00
         -2   -1    0    0    0  501 -0.00000000000E+00  0.00000000000E+00  0.32585710844E+02  0.32585710844E+02  0.00000000000E+00 0.  1.
          2   -1    0    0  501    0  0.00000000000E+00 -0.00000000000E+00 -0.73092150839E+03  0.73092150839E+03  0.00000000000E+00 0. -1.
         23    2    1    2    0    0  0.87829910347E+02 -0.38866292437E+02 -0.45025083436E+03  0.46953693052E+03  0.92273687725E+02 0.  0.
          5    1    1    2  502    0 -0.25078466115E+02  0.37886348953E+02 -0.22070381760E+03  0.22537069996E+03  0.41800000000E+01 0.  1.
         -5    1    1    2    0  502 -0.62751444231E+02  0.97994348436E+00 -0.27381145589E+02  0.68599588746E+02  0.41800000000E+01 0.  1.
        -11    1    3    3    0    0  0.22353988073E+02 -0.53698262257E+02 -0.13144885341E+03  0.14374284405E+03  0.00000000000E+00 0.  1.
         11    1    3    3    0    0  0.65475922274E+02  0.14831969820E+02 -0.31880198095E+03  0.32579408647E+03  0.00000000000E+00 0. -1.
</event>
<event>
 7    1  0.6145388E-006  0.1163227E+03  0.7561462E-02  0.1249290E+00
          1   -1    0    0  501    0  0.00000000000E+00  0.00000000000E+00  0.18920558172E+03  0.18920558172E+03  0.00000000000E+00 0. -1.
         -1   -1    0    0    0  501 -0.00000000000E+00 -0.00000000000E+00 -0.14985131857E+03  0.14985131857E+03  0.00000000000E+00 0.  1.
         23    2    1    2    0    0  0.16013379150E+02 -0.10363696677E+03  0.89987831908E+02  0.16813410666E+03  0.95782142067E+02 0.  0.
          5    1    1    2  502    0  0.28099929309E+02  0.32525609287E+02 -0.72447718773E+02  0.84342549416E+02  0.41800000000E+01 0. -1.
         -5    1    1    2    0  502 -0.44113308459E+02  0.71111357480E+02  0.21814150014E+02  0.86580244205E+02  0.41800000000E+01 0. -1.
        -11    1    3    3    0    0 -0.22844291740E+01 -0.14269815658E+02 -0.20357219005E+02  0.24965228242E+02  0.00000000000E+00 0.  1.
         11    1    3    3    0    0  0.18297808324E+02 -0.89367151109E+02  0.11034505091E+03  0.14316887842E+03  0.00000000000E+00 0. -1.
</event>
<event>
 7    1  0.6145388E-006  0.1045926E+03  0.7561462E-02  0.1270924E+00
         -4   -1    0    0    0  501 -0.00000000000E+00  0.00000000000E+00  0.82285591673E+02  0.82285591673E+02  0.00000000000E+00 0.  1.
          4   -1    0    0  501    0  0.00000000000E+00 -0.00000000000E+00 -0.17670180269E+03  0.17670180269E+03  0.00000000000E+00 0. -1.
         23    2    1    2    0    0 -0.57373783939E+01  0.45029357258E+02 -0.66765524385E+02  0.12306885885E+03  0.92885672982E+02 0.  0.
          5    1    1    2  502    0 -0.24359753000E+02 -0.81659161129E+02 -0.14484486875E+02  0.86538366766E+02  0.41800000000E+01 0.  1.
         -5    1    1    2    0  502  0.30097131394E+02  0.36629803871E+02 -0.13166199758E+02  0.49380168751E+02  0.41800000000E+01 0.  1.
        -11    1    3    3    0    0  0.21887411651E+02  0.43394482872E+02 -0.79046766779E+02  0.92792948389E+02  0.00000000000E+00 0. -1.
         11    1    3    3    0    0 -0.27624790045E+02  0.16348743859E+01  0.12281242394E+02  0.30275910457E+02  0.00000000000E+00 0.  1.
</event>
<event>
 7    1  0.6145388E-006  0.1252899E+03  0.7561462E-02  0.1234617E+00
          1   -1    0    0  501    0  0.00000000000E+00  0.00000000000E+00  0.37901639102E+03  0.37901639102E+03  0.00000000000E+00 0. -1.
         -1   -1    0    0    0  501 -0.00000000000E+00 -0.00000000000E+00 -0.49581244300E+02  0.49581244300E+02  0.00000000000E+00 0.  1.
         23    2    1    2    0    0  0.45009634635E+02  0.69836375419E+02  0.15249734511E+03  0.19652663316E+03  0.92001580074E+02 0.  0.
          5    1    1    2  502    0 -0.12051900777E+02  0.30066900124E+02  0.90308495391E+01  0.33886508212E+02  0.41800000000E+01 0. -1.
         -5    1    1    2    0  502 -0.32957733858E+02 -0.99903275543E+02  0.16790695207E+03  0.19818449394E+03  0.41800000000E+01 0. -1.
        -11    1    3    3    0    0 -0.21486837999E+02  0.12662925671E+02  0.57855458498E+01  0.25602859890E+02  0.00000000000E+00 0.  1.
         11    1    3    3    0    0  0.66496472634E+02  0.57173449748E+02  0.14671179926E+03  0.17092377327E+03  0.00000000000E+00 0. -1.
</event>
<event>
 7    1  0.6145388E-006  0.9392753E+02  0.7561462E-02  0.1293610E+00
          4   -1    0    0  501    0  0.00000000000E+00  0.00000000000E+00  0.19527593382E+03  0.19527593382E+03  0.00000000000E+00 0. -1.
         -4   -1    0    0    0  501 -0.00000000000E+00 -0.00000000000E+00 -0.67133477845E+02  0.67133477845E+02  0.00000000000E+00 0.  1.
         23    2    1    2    0    0 -0.41982318860E+01  0.63718755200E+01  0.95640437463E+02  0.13294513540E+03  0.92027657794E+02 0.  0.
          5    1    1    2  502    0 -0.53613525134E+02 -0.15008701106E+02 -0.10457270152E+02  0.56802271832E+02  0.41800000000E+01 0. -1.
         -5    1    1    2    0  502  0.57811757020E+02  0.86368255859E+01  0.42959288658E+02  0.72662004431E+02  0.41800000000E+01 0. -1.
        -11    1    3    3    0    0 -0.61816258657E+01 -0.33214594424E+02  0.85645388308E+02  0.92068204716E+02  0.00000000000E+00 0. -1.
         11    1    3    3    0    0  0.19833939797E+01  0.39586469945E+02  0.99950491552E+01  0.40876930682E+02  0.00000000000E+00 0.  1.
</event>
<event>
 7    1  0.6145388E-006  0.1205676E+03  0.7561462E-02  0.1242164E+00
          1   -1    0    0  501    0  0.00000000000E+00  0.00000000000E+00  0.61055845617E+03  0.61055845617E+03  0.00000000000E+00 0. -1.
         -1   -1    0    0    0  501 -0.00000000000E+00 -0.00000000000E+00 -0.57856655210E+02  0.57856655210E+02  0.00000000000E+00 0.  1.
         23    2    1    2    0    0 -0.12807285231E+02 -0.31332192095E+02  0.41540509416E+03  0.42661426801E+03  0.91063761197E+02 0.  0.
          5    1    1    2  502    0  0.26407592842E+02 -0.55492732112E+02  0.14086655788E+03  0.15374545133E+03  0.41800000000E+01 0. -1.
         -5    1    1    2    0  502 -0.13600307611E+02  0.86824924207E+02 -0.35698510711E+01  0.88055392040E+02  0.41800000000E+01 0.  1.
        -11    1    3    3    0    0 -0.48800832682E+02 -0.25598431645E+02  0.31532210066E+03  0.32010127794E+03  0.00000000000E+00 0. -1.
         11    1    3    3    0    0  0.35993547452E+02 -0.57337604499E+01  0.10008299350E+03  0.10651299007E+03  0.00000000000E+00 0.  1.
</event>
<event>
 7    1  0.6145388E-006  0.1078967E+03  0.7561462E-02  0.1264515E+00
          2   -1    0    0  501    0  0.00000000000E+00  0.00000000000E+00  0.90859506075E+02  0.90859506075E+02  0.00000000000E+00 0.  1.
         -2   -1    0    0    0  501 -0.00000000000E+00 -0.00000000000E+00 -0.19697424928E+03  0.19697424928E+03  0.00000000000E+00 0. -1.
         23    2    1    2    0    0  0.48110858213E+02 -0.40891542801E+02  0.30903435370E+01  0.11018403904E+03  0.90245217526E+02 0.  0.
          5    1    1    2  502    0 -0.66837909953E+02  0.70515096258E+01 -0.62948871168E+01  0.67632299966E+02  0.41800000000E+01 0.  1.
         -5    1    1    2    0  502  0.18727051740E+02  0.33840033176E+02 -0.10291019963E+03  0.11001741635E+03  0.41800000000E+01 0.  1.
        -11    1    3    3    0    0  0.15090752856E+01 -0.59393728755E+02 -0.39875781638E+01  0.59546562481E+02  0.00000000000E+00 0.  1.
         11    1    3    3    0    0  0.46601782928E+02  0.18502185954E+02  0.70779217008E+01  0.50637476563E+02  0.00000000000E+00 0. -1.
</event>
<event>
 7    1  0.6145388E-006  0.8560442E+02  0.7561462E-02  0.1313859E+00
          3   -1    0    0  501    0  0.00000000000E+00  0.00000000000E+00  0.34515940257E+03  0.34515940257E+03  0.00000000000E+00 0. -1.
         -3   -1    0    0    0  501 -0.00000000000E+00 -0.00000000000E+00 -0.94979036147E+02  0.94979036147E+02  0.00000000000E+00 0.  1.
         23    2    1    2    0    0  0.34836993896E+02  0.56910342708E+02  0.27411593226E+03  0.29635774745E+03  0.90752228086E+02 0.  0.
          5    1    1    2  502    0 -0.15028554477E+02 -0.26031055150E+02  0.51509642788E+02  0.59784521257E+02  0.41800000000E+01 0. -1.
         -5    1    1    2    0  502 -0.19808439419E+02 -0.30879287559E+02 -0.75445208625E+02  0.83996170013E+02  0.41800000000E+01 0. -1.
        -11    1    3    3    0    0 -0.26058591827E+02  0.16072165852E+02  0.36258063192E+02  0.47455367132E+02  0.00000000000E+00 0.  1.
         11    1    3    3    0    0  0.60895585722E+02  0.40838176856E+02  0.23785786907E+03  0.24890238031E+03  0.00000000000E+00 0. -1.
</event>
<event>
 7    1  0.6145388E-006  0.9302173E+02  0.7561462E-02  0.1295695E+00
         -2   -1    0    0    0  501 -0.00000000000E+00  0.00000000000E+00  0.66220382576E+02  0.66220382576E+02  0.00000000000E+00 0.  1.
          2   -1    0    0  501    0  0.00000000000E+00 -0.00000000000E+00 -0.35633268218E+03  0.35633268218E+03  0.00000000000E+00 0. -1.
         23    2    1    2    0    0 -0.17332364347E+02  0.28250244704E+02 -0.19344636338E+03  0.21637064943E+03  0.91083891269E+02 0.  0.
          5    1    1    2  502    0  0.44571532985E+02  0.92922479460E+01 -0.13709043161E+03  0.14451375805E+03  0.41800000000E+01 0. -1.
         -5    1    1    2    0  502 -0.27239168638E+02 -0.37542492650E+02  0.40424495396E+02  0.61668657278E+02  0.41800000000E+01 0.  1.
        -11    1    3    3    0    0  0.72502148076E+01  0.56121323308E+02 -0.88563026452E+02  0.10509794574E+03  0.00000000000E+00 0.  1.
         11    1    3    3    0    0 -0.24582579155E+02 -0.27871078604E+02 -0.10488333693E+03  0.11127270369E+03  0.00000000000E+00 0. -1.
</event>
<event>
 7    1  0.6145388E-006  0.9354084E+02  0.7561462E-02  0.1294497E+00
          1   -1    0    0  501    0  0.00000000000E+00  0.00000000000E+00  0.33087071939E+03  0.33087071939E+03  0.00000000000E+00 0. -1.
         -1   -1    0    0    0  501 -0.00000000000E+00 -0.00000000000E+00 -0.46415255945E+02  0.46415255945E+02  0.00000000000E+00 0.  1.
         23    2    1    2    0    0 -0.31225033490E+02 -0.17632413892E+01  0.17760218506E+03  0.20982565700E+03  0.10726676307E+03 0.  0.
          5    1    1    2  502    0  0.27659353750E+02 -0.48132498249E+02  0.10304116742E+03  0.11711845209E+03  0.41800000000E+01 0. -1.
         -5    1    1    2    0  502  0.35656797396E+01  0.49895739638E+02  0.38121109562E+01  0.50341866234E+02  0.41800000000E+01 0. -1.
        -11    1    3    3    0    0 -0.56207993214E+02 -0.87971555161E+00  0.37649697616E+02  0.67658052966E+02  0.00000000000E+00 0.  1.
         11    1    3    3    0    0  0.24982959724E+02 -0.88352583759E+00  0.13995248745E+03  0.14216760404E+03  0.00000000000E+00 0. -1.
</event>
<event>
 7    1  0.6145388E-006  0.9351359E+02  0.7561462E-02  0.1294559E+00
         -2   -1    0    0    0  501 -0.00000000000E+00  0.00000000000E+00  0.73193132812E+02  0.73193132812E+02  0.00000000000E+00 0.  1.
          2   -1    0    0  501    0  0.00000000000E+00 -0.00000000000E+00 -0.39571877980E+03  0.39571877980E+03  0.00000000000E+00 0. -1.
         23    2    1    2    0    0 -0.50826478993E+02 -0.20227237758E+02 -0.31531780589E+03  0.33220138570E+03  0.89106508373E+02 0.  0.
          5    1    1    2  502    0  0.38701984737E+02  0.44543227506E+02  0.47248303351E+02  0.75708766393E+02  0.41800000000E+01 0. -1.
         -5    1    1    2    0  502  0.12124494257E+02 -0.24315989747E+02 -0.54456144449E+02  0.61001760521E+02  0.41800000000E+01 0. -1.
        -11    1    3    3    0    0 -0.41431039070E+02  0.28802286089E+02 -0.20491944237E+03  0.21104047134E+03  0.00000000000E+00 0.  1.
         11    1    3    3    0    0 -0.93954399233E+01 -0.49029523848E+02 -0.11039836352E+03  0.12116091436E+03  0.00000000000E+00 0. -1.
</event>
<event>
 7    1  0.6145388E-006  0.9146726E+02  0.7561462E-02  0.1299337E+00
          1   -1    0    0  501    0  0.00000000000E+00  0.00000000000E+00  0.33146920549E+02  0.33146920549E+02  0.00000000000E+00 0. -1.
         -1   -1    0    0    0  501 -0.00000000000E+00 -0.00000000000E+00 -0.47416294569E+03  0.47416294569E+03  0.00000000000E+00 0.  1.
         23    2    1    2    0    0 -0.27714176868E+02 -0.79757717764E+01 -0.80676909795E+02  0.12478660742E+03  0.90726209464E+02 0.  0.
          5    1    1    2  502    0 -0.39900817328E+02 -0.21937684976E+01 -0.24579868269E+03  0.24906094165E+03  0.41800000000E+01 0. -1.
         -5    1    1    2    0  502  0.67614994197E+02  0.10169540274E+02 -0.11454043265E+03  0.13346231716E+03  0.41800000000E+01 0. -1.
        -11    1    3    3    0    0 -0.47701043281E+02  0.83733841374E+01 -0.98803379934E+01  0.49427969520E+02  0.00000000000E+00 0. -1.
         11    1    3    3    0    0  0.19986866412E+02 -0.16349155914E+02 -0.70796571802E+02  0.75358637905E+02  0.00000000000E+00 0.  1.
</event>
<event>
 7    1  0.6145388E-006  0.1522731E+03  0.7561462E-02  0.1197707E+00
          4   -1    0    0  501    0  0.00000000000E+00  0.00000000000E+00  0.15403734654E+03  0.15403734654E+03  0.00000000000E+00 0. -1.
         -4   -1    0    0    0  501 -0.00000000000E+00 -0.00000000000E+00 -0.23898233080E+03  0.23898233080E+03  0.00000000000E+00 0.  1.
         23    2    1    2    0    0  0.51205078161E+02 -0.99234083987E+02  0.74641875967E+02  0.16153644492E+03  0.89739901579E+02 0.  0.
          5    1    1    2  502    0 -0.87155294284E+02  0.47637446593E+02 -0.68536408488E+02  0.12074801583E+03  0.41800000000E+01 0.  1.
         -5    1    1    2    0  502  0.35950216123E+02  0.51596637395E+02 -0.91050451736E+02  0.11073521658E+03  0.41800000000E+01 0.  1.
        -11    1    3    3    0    0  0.60163527416E+02 -0.11163256401E+03  0.59734078484E+02  0.14017717186E+03  0.00000000000E+00 0.  1.
         11    1    3    3    0    0 -0.89584492558E+01  0.12398480021E+02  0.14907797482E+02  0.21359273061E+02  0.00000000000E+00 0. -1.
</event>
<event>
 7    1  0.6145388E-006  0.1325491E+03  0.7561462E-02  0.1223722E+00
          1   -1    0    0  501    0  0.00000000000E+00  0.00000000000E+00  0.25616468446E+03  0.25616468446E+03  0.00000000000E+00 0. -1.
         -1   -1    0    0    0  501 -0.00000000000E+00 -0.00000000000E+00 -0.11111019047E+03  0.11111019047E+03  0.00000000000E+00 0.  1.
         23    2    1    2    0    0  0.55141587762E+02  0.75995163094E+01  0.13554852470E+03  0.17227817712E+03  0.90598125889E+02 0.  0.
          5    1    1    2  502    0 -0.61086917975E+02 -0.82070971089E+02  0.45398952509E+02  0.11200800477E+03  0.41800000000E+01 0. -1.
         -5    1    1    2    0  502  0.59453302129E+01  0.74471454780E+02 -0.35892983215E+02  0.82988693040E+02  0.41800000000E+01 0.  1.
        -11    1    3    3    0    0  0.59894851646E+01 -0.27072748948E+02  0.96881753607E+02  0.10077143370E+03  0.00000000000E+00 0. -1.
         11    1    3    3    0    0  0.49152102597E+02  0.34672265257E+02  0.38666771094E+02  0.71506743421E+02  0.00000000000E+00 0.  1.
</event>
<event>
 7    1  0.6145388E-006  0.1180999E+03  0.7561462E-02  0.1246265E+00
          2   -1    0    0  501    0  0.00000000000E+00  0.00000000000E+00  0.62896001412E+02  0.62896001412E+02  0.00000000000E+00 0. -1.
         -2   -1    0    0    0  501 -0.00000000000E+00 -0.00000000000E+00 -0.27872194055E+03  0.27872194055E+03  0.00000000000E+00 0.  1.
         23    2    1    2    0    0  0.74310235296E+02 -0.53691293224E+01 -0.11376391369E+03  0.16381193525E+03  0.91330627144E+02 0.  0.
          5    1    1    2  502    0  0.31188146205E+02 -0.33928338750E+01 -0.14227686509E+01  0.31681358178E+02  0.41800000000E+01 0.  1.
         -5    1    1    2    0  502 -0.10549838150E+03  0.87619631974E+01 -0.10063925679E+03  0.14612464853E+03  0.41800000000E+01 0.  1.
        -11    1    3    3    0    0  0.86052938795E+02 -0.94587112920E+00 -0.12163438774E+03  0.14899975580E+03  0.00000000000E+00 0.  1.
         11    1    3    3    0    0 -0.11742703499E+02 -0.44232581932E+01  0.78704740491E+01  0.14812179457E+02  0.00000000000E+00 0. -1.
</event>
<event>
 7    1  0.6145388E-006  0.1553207E+03  0.7561462E-02  0.1194083E+00
         -4   -1    0    0    0  501 -0.00000000000E+00  0.00000000000E+00  0.99521370944E+03  0.99521370944E+03  0.00000000000E+00 0.  1.
          4   -1    0    0  501    0  0.00000000000E+00 -0.00000000000E+00 -0.33897207920E+02  0.33897207920E+02  0.00000000000E+00 0. -1.
         23    2    1    2    0    0  0.12650950111E+03  0.72440500337E+01  0.24141335711E+03  0.28751325863E+03  0.91248752142E+02 0.  0.
          5    1    1    2  502    0 -0.14560424805E+03 -0.79308510116E+01  0.50055466867E+03  0.52137888736E+03  0.41800000000E+01 0. -1.
         -5    1    1    2    0  502  0.19094746943E+02  0.68680097787E+00  0.21934847574E+03  0.22021877137E+03  0.41800000000E+01 0. -1.
        -11    1    3    3    0    0  0.10029473676E+03  0.35749323161E+02  0.21705152018E+03  0.24176106126E+03  0.00000000000E+00 0.  1.
         11    1    3    3    0    0  0.26214764346E+02 -0.28505273127E+02  0.24361836922E+02  0.45752197368E+02  0.00000000000E+00 0. -1.
</event>
<event>
 7    1  0.6145388E-006  0.1713753E+03  0.7561462E-02  0.1176421E+00
         -1   -1    0    0    0  501 -0.00000000000E+00  0.00000000000E+00  0.74487806219E+03  0.74487806219E+03  0.00000000000E+00 0.  1.
          1   -1    0    0  501    0  0.00000000000E+00 -0.00000000000E+00 -0.62383363991E+02  0.62383363991E+02  0.00000000000E+00 0. -1.
         23    2    1    2    0    0  0.88914783744E+02 -0.26853297188E+02  0.43320537682E+02  0.13035634691E+03  0.80555383777E+02 0.  0.
          5    1    1    2  502    0 -0.71013681212E+02 -0.84145743923E+02  0.30419771992E+03  0.32353852065E+03  0.41800000000E+01 0. -1.
         -5    1    1    2    0  502 -0.17901102532E+02  0.11099904111E+03  0.33497644059E+03  0.35336655862E+03  0.41800000000E+01 0.  1.
        -11    1    3    3    0    0  0.36223654717E+02 -0.50623916180E+02  0.83760792870E+01  0.62809973369E+02  0.00000000000E+00 0. -1.
         11    1    3    3    0    0  0.52691129027E+02  0.23770618992E+02  0.34944458395E+02  0.67546373537E+02  0.00000000000E+00 0.  1.
</event>
<event>
 7    1  0.6145388E-006  0.1074733E+03  0.7561462E-02  0.1265322E+00
         -1   -1    0    0    0  501 -0.00000000000E+00  0.00000000000E+00  0.45490080036E+02  0.45490080036E+02  0.00000000000E+00 0.  1.
          1   -1    0    0  501    0  0.00000000000E+00 -0.00000000000E+00 -0.40293071793E+03  0.40293071793E+03  0.00000000000E+00 0. -1.
         23    2    1    2    0    0 -0.67665416170E+02  0.16165514939E+02 -0.23076797229E+03  0.25728344272E+03  0.90005446754E+02 0.  0.
          5    1    1    2  502    0  0.55316232788E+02 -0.58978151834E+02 -0.12160955351E+03  0.14609813109E+03  0.41800000000E+01 0.  1.
         -5    1    1    2    0  502  0.12349183382E+02  0.42812636895E+02 -0.50631120937E+01  0.45039224152E+02  0.41800000000E+01 0.  1.
        -11    1    3    3    0    0 -0.69686542273E+02 -0.31946325027E+01 -0.22697327185E+03  0.23745164979E+03  0.00000000000E+00 0. -1.
         11    1    3    3    0    0  0.20211261030E+01  0.19360147442E+02 -0.37947004392E+01  0.19831792937E+02  0.00000000000E+00 0.  1.
</event>
<event>
 7    1  0.6145388E-006  0.1221267E+03  0.7561462E-02  0.1239629E+00
         -2   -1    0    0    0  501 -0.00000000000E+00  0.00000000000E+00  0.51733869553E+02  0.51733869553E+02  0.00000000000E+00 0.  1.
          2   -1    0    0  501    0  0.00000000000E+00 -0.00000000000E+00 -0.39538730398E+03  0.39538730398E+03  0.00000000000E+00 0. -1.
         23    2    1    2    0    0  0.29735279828E+02  0.82777173367E+02 -0.20373108617E+03  0.23984941149E+03  0.91022730258E+02 0.  0.
          5    1    1    2  502    0  0.46729980572E+02 -0.37063264154E+02 -0.33921033759E+02  0.68742167301E+02  0.41800000000E+01 0. -1.
         -5    1    1    2    0  502 -0.76465260400E+02 -0.45713909213E+02 -0.10600131450E+03  0.13852959474E+03  0.41800000000E+01 0. -1.
        -11    1    3    3    0    0 -0.87188717457E+01  0.15791997590E+02  0.37792408592E+01  0.18430642253E+02  0.00000000000E+00 0.  1.
         11    1    3    3    0    0  0.38454151574E+02  0.66985175778E+02 -0.20751032703E+03  0.22141876924E+03  0.00000000000E+00 0. -1.
</event>
<event>
 7    1  0.6145388E-006  0.1507064E+03  0.7561462E-02  0.1199608E+00
          2   -1    0    0  501    0  0.00000000000E+00  0.00000000000E+00  0.18048148040E+03  0.18048148040E+03  0.00000000000E+00 0. -1.
         -2   -1    0    0    0  501 -0.00000000000E+00 -0.00000000000E+00 -0.18082646023E+03  0.18082646023E+03  0.00000000000E+00 0.  1.
         23    2    1    2    0    0 -0.14347931273E+03 -0.12575118517E+01 -0.55184145888E+00  0.17095138226E+03  0.92931028458E+02 0.  0.
          5    1    1    2  502    0  0.10249221769E+03 -0.24881055709E+02 -0.53045649675E+02  0.11813143091E+03  0.41800000000E+01 0. -1.
         -5    1    1    2    0  502  0.40987095048E+02  0.26138567561E+02  0.53252511304E+02  0.72225127447E+02  0.41800000000E+01 0. -1.
        -11    1    3    3    0    0 -0.84205173237E+01 -0.83045346521E+01 -0.30255920973E+02  0.32485245293E+02  0.00000000000E+00 0.  1.
         11    1    3    3    0    0 -0.13505879541E+03  0.70470228005E+01  0.29704079514E+02  0.13846613697E+03  0.00000000000E+00 0. -1.
</event>
<event>
 7    1  0.6145388E-006  0.1261701E+03  0.7561462E-02  0.1233252E+00
          2   -1    0    0  501    0  0.00000000000E+00  0.00000000000E+00  0.10403847198E+04  0.10403847198E+04  0.00000000000E+00 0. -1.
         -2   -1    0    0    0  501 -0.00000000000E+00 -0.00000000000E+00 -0.17550199559E+02  0.17550199559E+02  0.00000000000E+00 0.  1.
         23    2    1    2    0    0  0.77445660013E+02 -0.16392169381E+02  0.50072487694E+03  0.51524627964E+03  0.92123790722E+02 0.  0.
          5    1    1    2  502    0  0.24348888974E+02 -0.88176989627E+01  0.24448263356E+03  0.24588584897E+03  0.41800000000E+01 0.  1.
         -5    1    1    2    0  502 -0.10179454899E+03  0.25209868344E+02  0.27762700975E+03  0.29680279077E+03  0.41800000000E+01 0.  1.
        -11    1    3    3    0    0 -0.13937728568E+02  0.18651092766E+02  0.82547258304E+02  0.85768137397E+02  0.00000000000E+00 0.  1.
         11    1    3    3    0    0  0.91383388581E+02 -0.35043262147E+02  0.41817761864E+03  0.42947814224E+03  0.00000000000E+00 0. -1.
</event>
<event>
 7    1  0.6145388E-006  0.1155892E+03  0.7561462E-02  0.1250556E+00
         -1   -1    0    0    0  501 -0.00000000000E+00  0.00000000000E+00  0.68935387035E+02  0.68935387035E+02  0.00000000000E+00 0.  1.
          1   -1    0    0  501    0  0.00000000000E+00 -0.00000000000E+00 -0.20722008385E+03  0.20722008385E+03  0.00000000000E+00 0. -1.
         23    2    1    2    0    0  0.37545606506E+02  0.19976832423E+02 -0.83683482280E+02  0.13319601188E+03  0.94496063264E+02 0.  0.
          5    1    1    2  502    0 -0.38433473356E+01 -0.68674526635E+02 -0.12144821634E+02  0.69970929819E+02  0.41800000000E+01 0.  1.
         -5    1    1    2    0  502 -0.33702259170E+02  0.48697694212E+02 -0.42456392900E+02  0.72988529186E+02  0.41800000000E+01 0.  1.
        -11    1    3    3    0    0  0.68880450500E+02  0.19396842578E+02 -0.65219692621E+02  0.96821290369E+02  0.00000000000E+00 0. -1.
         11    1    3    3    0    0 -0.31334843994E+02  0.57998984462E+00 -0.18463789659E+02  0.36374721510E+02  0.00000000000E+00 0.  1.
</event>
<event>
 7    1  0.6145388E-006  0.1173438E+03  0.7561462E-02  0.1247544E+00
          1   -1    0    0  501    0  0.00000000000E+00  0.00000000000E+00  0.12190650146E+03  0.12190650146E+03  0.00000000000E+00 0. -1.
         -1   -1    0    0    0  501 -0.00000000000E+00 -0.00000000000E+00 -0.13177085260E+03  0.13177085260E+03  0.00000000000E+00 0.  1.
         23    2    1    2    0    0 -0.48167441192E+02 -0.98410710445E+01  0.38626921654E+02  0.11079272188E+03  0.91466054221E+02 0.  0.
          5    1    1    2  502    0 -0.26215209168E+02  0.43329137113E+02 -0.30436124965E+02  0.59232435520E+02  0.41800000000E+01 0.  1.
         -5    1    1    2    0  502  0.74382650359E+02 -0.33488066069E+02 -0.18055147821E+02  0.83652196662E+02  0.41800000000E+01 0.  1.
        -11    1    3    3    0    0 -0.35367560351E+02  0.38445058511E+02  0.29561131609E+02  0.60022890226E+02  0.00000000000E+00 0. -1.
         11    1    3    3    0    0 -0.12799880840E+02 -0.48286129555E+02  0.90657900444E+01  0.50769831653E+02  0.00000000000E+00 0.  1.
</event>
<event>
 7    1  0.6145388E-006  0.1457608E+03  0.7561462E-02  0.1205781E+00
         -1   -1    0    0    0  501 -0.00000000000E+00  0.00000000000E+00  0.80943671306E+02  0.80943671306E+02  0.00000000000E+00 0.  1.
          1   -1    0    0  501    0  0.00000000000E+00 -0.00000000000E+00 -0.46155699462E+03  0.46155699462E+03  0.00000000000E+00 0. -1.
         23    2    1    2    0    0  0.93298965221E+02  0.31606205301E+02 -0.35723346561E+03  0.38157297510E+03  0.90986467408E+02 0.  0.
          5    1    1    2  502    0  0.11387070570E+02  0.33413447426E+02 -0.70012266696E+00  0.35553992980E+02  0.41800000000E+01 0. -1.
         -5    1    1    2    0  502 -0.10468603579E+03 -0.65019652728E+02 -0.22679735041E+02  0.12537369785E+03  0.41800000000E+01 0. -1.
        -11    1    3    3    0    0  0.69789939947E+02 -0.22784705554E+02 -0.22489635978E+03  0.23657588881E+03  0.00000000000E+00 0. -1.
         11    1    3    3    0    0  0.23509025274E+02  0.54390910855E+02 -0.13233710583E+03  0.14499708629E+03  0.00000000000E+00 0.  1.
</event>
<event>
 7    1  0.6145388E-006  0.5416667E+02  0.7561462E-02  0.1424081E+00
         -2   -1    0    0    0  501 -0.00000000000E+00  0.00000000000E+00  0.27866271180E+02  0.27866271180E+02  0.00000000000E+00 0.  1.
          2   -1    0    0  501    0  0.00000000000E+00 -0.00000000000E+00 -0.49850352041E+03  0.49850352041E+03  0.00000000000E+00 0. -1.
         23    2    1    2    0    0  0.72382559102E+01 -0.12682305910E+02 -0.30183198673E+03  0.31576047508E+03  0.91590917568E+02 0.  0.
          5    1    1    2  502    0 -0.95439644121E+01  0.11672385148E+02  0.17937691636E+02  0.23802626178E+02  0.41800000000E+01 0.  1.
         -5    1    1    2    0  502  0.23057085018E+01  0.10099207625E+01 -0.18674295414E+03  0.18680669033E+03  0.41800000000E+01 0.  1.
        -11    1    3    3    0    0  0.40992877651E+02 -0.29100666377E+02 -0.12017925762E+03  0.13027017603E+03  0.00000000000E+00 0.  1.
         11    1    3    3    0    0 -0.33754621740E+02  0.16418360467E+02 -0.18165272911E+03  0.18549029905E+03  0.00000000000E+00 0. -1.
</event>
<event>
 7    1  0.6145388E-006  0.1367124E+03  0.7561462E-02  0.1217822E+00
         -2   -1    0    0    0  501 -0.00000000000E+00  0.00000000000E+00  0.92285013739E+02  0.92285013739E+02  0.00000000000E+00 0.  1.
          2   -1    0    0  501    0  0.00000000000E+00 -0.00000000000E+00 -0.26913866911E+03  0.26913866911E+03  0.00000000000E+00 0. -1.
         23    2    1    2    0    0 -0.10560409994E+03 -0.56927106423E+01 -0.13478398834E+03  0.19230127363E+03  0.87340846381E+02 0.  0.
          5    1    1    2  502    0  0.11203979437E+03  0.46869745238E+02 -0.36397937914E+02  0.12685413208E+03  0.41800000000E+01 0. -1.
         -5    1    1    2    0  502 -0.64356944299E+01 -0.41177034596E+02 -0.56717291107E+01  0.42268277136E+02  0.41800000000E+01 0. -1.
        -11    1    3    3    0    0 -0.50881204612E+02 -0.17922816555E+02 -0.12396509186E+03  0.13519418751E+03  0.00000000000E+00 0.  1.
         11    1    3    3    0    0 -0.54722895330E+02  0.12230105913E+02 -0.10818896481E+02  0.57107086119E+02  0.00000000000E+00 0. -1.
</event>
<event>
 7    1  0.6145388E-006  0.1034295E+03  0.7561462E-02  0.1273245E+00
         -1   -1    0    0    0  501 -0.00000000000E+00  0.00000000000E+00  0.49015533281E+02  0.49015533281E+02  0.00000000000E+00 0.  1.
          1   -1    0    0  501    0  0.00000000000E+00 -0.00000000000E+00 -0.38795368327E+03  0.38795368327E+03  0.00000000000E+00 0. -1.
         23    2    1    2    0    0  0.28814444385E+02 -0.79484480224E+01 -0.28059605897E+03  0.29574277248E+03  0.88522252177E+02 0.  0.
          5    1    1    2  502    0  0.11493782978E+02 -0.47031613489E+02 -0.54206382862E+02  0.72800302592E+02  0.41800000000E+01 0.  1.
         -5    1    1    2    0  502 -0.40308227363E+02  0.54980061512E+02 -0.41357081613E+01  0.68426141489E+02  0.41800000000E+01 0.  1.
        -11    1    3    3    0    0 -0.28546303317E+02 -0.14866835252E+02 -0.14169891165E+03  0.14530827845E+03  0.00000000000E+00 0.  1.
         11    1    3    3    0    0  0.57360747702E+02  0.69183872293E+01 -0.13889714732E+03  0.15043449402E+03  0.00000000000E+00 0. -1.
</event>
<event>
 7    1  0.6145388E-006  0.8061453E+02  0.7561462E-02  0.1327316E+00
          1   -1    0    0  501    0  0.00000000000E+00  0.00000000000E+00  0.72232535741E+02  0.72232535741E+02  0.00000000000E+00 0. -1.
         -1   -1    0    0    0  501 -0.00000000000E+00 -0.00000000000E+00 -0.24926291794E+03  0.24926291794E+03  0.00000000000E+00 0.  1.
         23    2    1    2    0    0  0.13148120285E+02 -0.42486307883E+02 -0.15781590510E+01  0.10148121129E+03  0.91202994658E+02 0.  0.
          5    1    1    2  502    0  0.33232105793E+02  0.48729705138E+02 -0.15996306493E+03  0.17054211081E+03  0.41800000000E+01 0. -1.
         -5    1    1    2    0  502 -0.46380226078E+02 -0.62433972553E+01 -0.15489158214E+02  0.49472131575E+02  0.41800000000E+01 0. -1.
        -11    1    3    3    0    0  0.20139041046E+02 -0.11175862859E+02  0.41682770085E+02  0.47622832831E+02  0.00000000000E+00 0. -1.
         11    1    3    3    0    0 -0.69909207613E+01 -0.31310445023E+02 -0.43260929136E+02  0.53858378460E+02  0.00000000000E+00 0.  1.
</event>
<event>
 6    1  0.6145388E-006  0.1373308E+03  0.7561462E-02  0.1216966E+00
          3   -1    0    0  501    0  0.00000000000E+00  0.00000000000E+00  0.29542124497E+03  0.29542124497E+03  0.00000000000E+00 0.  1.
         -3   -1    0    0    0  501 -0.00000000000E+00 -0.00000000000E+00 -0.65743166805E+02  0.65743166805E+02  0.00000000000E+00 0. -1.
          5    1    1    2  502    0  0.21842079862E+02  0.65735746590E+02  0.36794945829E+02  0.78546834888E+02  0.41800000000E+01 0.  1.
         -5    1    1    2    0  502  0.78320520921E+02 -0.46391916644E+02  0.71486438571E+02  0.11581924377E+03  0.41800000000E+01 0.  1.
        -11    1    1    2    0    0 -0.32865667253E+02 -0.31764990650E+02  0.54028895991E+02  0.70769261103E+02  0.00000000000E+00 0.  1.
         11    1    1    2    0    0 -0.67296933530E+02  0.12421160704E+02  0.67367797775E+02  0.96029072019E+02  0.00000000000E+00 0. -1.
</event>
<event>
 7    1  0.6145388E-006  0.1688550E+03  0.7561462E-02  0.1179047E+00
          1   -1    0    0  501    0  0.00000000000E+00  0.00000000000E+00  0.48630114554E+02  0.48630114554E+02  0.00000000000E+00 0. -1.
         -1   -1    0    0    0  501 -0.00000000000E+00 -0.00000000000E+00 -0.92021584621E+03  0.92021584621E+03  0.00000000000E+00 0.  1.
         23    2    1    2    0    0  0.32568957174E+02 -0.15661794698E+03 -0.22316142631E+03  0.28936797301E+03  0.91339385406E+02 0.  0.
          5    1    1    2  502    0  0.20850675953E+01  0.11464556940E+03 -0.22518317161E+03  0.25273085935E+03  0.41800000000E+01 0. -1.
         -5    1    1    2    0  502 -0.34654024769E+02  0.41972377579E+02 -0.42324113373E+03  0.42674712840E+03  0.41800000000E+01 0. -1.
        -11    1    3    3    0    0  0.24881172663E+01 -0.12393703182E+03 -0.10269780819E+03  0.16097645291E+03  0.00000000000E+00 0. -1.
         11    1    3    3    0    0  0.30080839908E+02 -0.32680915164E+02 -0.12046361812E+03  0.12839152011E+03  0.00000000000E+00 0.  1.
</event>
<event>
 7    1  0.6145388E-006  0.1149563E+03  0.7561462E-02  0.1251657E+00
          1   -1    0    0  501    0  0.00000000000E+00  0.00000000000E+00  0.41361323140E+03  0.41361323140E+03  0.00000000000E+00 0. -1.
         -1   -1    0    0    0  501 -0.00000000000E+00 -0.00000000000E+00 -0.46864399044E+02  0.46864399044E+02  0.00000000000E+00 0.  1.
         23    2    1    2    0    0  0.71481837987E+02 -0.49983633132E+02  0.13867294064E+03  0.18611636829E+03  0.88323843522E+02 0.  0.
          5    1    1    2  502    0 -0.92742859705E+02  0.19162533886E+02  0.88129910715E+02  0.12943258590E+03  0.41800000000E+01 0. -1.
         -5    1    1    2    0  502  0.21261021718E+02  0.30821099246E+02  0.13994598100E+03  0.14492867626E+03  0.41800000000E+01 0. -1.
        -11    1    3    3    0    0  0.12882703397E+02  0.78703024144E+01  0.88307419160E+02  0.89588537133E+02  0.00000000000E+00 0. -1.
         11    1    3    3    0    0  0.58599134590E+02 -0.57853935546E+02  0.50365521482E+02  0.96527831153E+02  0.00000000000E+00 0.  1.
</event>
<event>
 7    1  0.6145388E-006  0.1071418E+03  0.7561462E-02  0.1265956E+00
          1   -1    0    0  501    0  0.00000000000E+00  0.00000000000E+00  0.48641050461E+02  0.48641050461E+02  0.00000000000E+00 0. -1.
         -1   -1    0    0    0  501 -0.00000000000E+00 -0.00000000000E+00 -0.46283513392E+03  0.46283513392E+03  0.00000000000E+00 0.  1.
         23    2    1    2    0    0  0.74958158436E+02  0.26661746390E+02 -0.78800033699E+02  0.14478235549E+03  0.91776418068E+02 0.  0.
          5    1    1    2  502    0 -0.79861593943E+02 -0.17154277236E+02 -0.92283124571E+02  0.12331176300E+03  0.41800000000E+01 0.  1.
         -5    1    1    2    0  502  0.49034355077E+01 -0.95074691536E+01 -0.24311092519E+03  0.24338206589E+03  0.41800000000E+01 0.  1.
        -11    1    3    3    0    0 -0.16029192193E+02  0.25372902963E+02 -0.25083022267E+02  0.39113644847E+02  0.00000000000E+00 0. -1.
         11    1    3    3    0    0  0.90987350628E+02  0.12888434268E+01 -0.53717011432E+02  0.10566871064E+03  0.00000000000E+00 0.  1.
</event>
<event>
 7    1  0.6145388E-006  0.1286060E+03  0.7561462E-02  0.1229539E+00
          1   -1    0    0  501    0  0.00000000000E+00  0.00000000000E+00  0.41387492761E+02  0.41387492761E+02  0.00000000000E+00 0. -1.
         -1   -1    0    0    0  501 -0.00000000000E+00 -0.00000000000E+00 -0.53510663620E+03  0.53510663620E+03  0.00000000000E+00 0.  1.
         23    2    1    2    0    0 -0.37132673662E+02  0.52843782138E+02 -0.12594261157E+03  0.18269455096E+03  0.11551820973E+03 0.  0.
          5    1    1    2  502    0  0.54604829469E+02 -0.78678228220E+02 -0.33465334599E+03  0.34811246083E+03  0.41800000000E+01 0. -1.
         -5    1    1    2    0  502 -0.17472155807E+02  0.25834446082E+02 -0.33123185873E+02  0.45687117170E+02  0.41800000000E+01 0. -1.
        -11    1    3    3    0    0 -0.77767892562E+02  0.30716253127E+02 -0.97239705015E+02  0.12824544261E+03  0.00000000000E+00 0.  1.
         11    1    3    3    0    0  0.40635218900E+02  0.22127529010E+02 -0.28702906552E+02  0.54449108347E+02  0.00000000000E+00 0. -1.
</event>
<event>
 7    1  0.6145388E-006  0.9660577E+02  0.7561462E-02  0.1287600E+00
         -1   -1    0    0    0  501 -0.00000000000E+00  0.00000000000E+00  0.76128832714E+03  0.76128832714E+03  0.00000000000E+00 0.  1.
          1   -1    0    0  501    0  0.00000000000E+00 -0.00000000000E+00 -0.27936516254E+02  0.27936516254E+02  0.00000000000E+00 0. -1.
         23    2    1    2    0    0  0.31339850917E+02 -0.27132918894E+02  0.95164560353E+02  0.13757362591E+03  0.90287471195E+02 0.  0.
          5    1    1    2  502    0  0.46315222370E+01 -0.33754831228E+02  0.59881868172E+02  0.69022823509E+02  0.41800000000E+01 0. -1.
         -5    1    1    2    0  502 -0.35971373154E+02  0.60887750122E+02  0.57830538237E+03  0.58262839398E+03  0.41800000000E+01 0. -1.
        -11    1    3    3    0    0  0.79678044387E+01 -0.52759681292E+02  0.86810518727E+02  0.10189767436E+03  0.00000000000E+00 0.  1.
         11    1    3    3    0    0  0.23372046478E+02  0.25626762398E+02  0.83540416260E+01  0.35675951551E+02  0.00000000000E+00 0. -1.
</event>
<event>
 7    1  0.6145388E-006  0.1557547E+03  0.7561462E-02  0.1193575E+00
         -2   -1    0    0    0  501 -0.00000000000E+00  0.00000000000E+00  0.50454688631E+02  0.50454688631E+02  0.00000000000E+00 0. -1.
          2   -1    0    0  501    0  0.00000000000E+00 -0.00000000000E+00 -0.56923150922E+03  0.56923150922E+03  0.00000000000E+00 0.  1.
         23    2    1    2    0    0 -0.15500035253E+02 -0.12802745032E+03 -0.21846949249E+03  0.26973861104E+03  0.91644530713E+02 0.  0.
          5    1    1    2  502    0  0.61280523549E+01 -0.12614875885E+02  0.34658796398E+01  0.15039043884E+02  0.41800000000E+01 0.  1.
         -5    1    1    2    0  502  0.93719828984E+01  0.14064232621E+03 -0.30377320774E+03  0.33490854293E+03  0.41800000000E+01 0.  1.
        -11    1    3    3    0    0  0.36646452605E+02 -0.49326665038E+02 -0.64165664812E+02  0.88844329662E+02  0.00000000000E+00 0.  1.
         11    1    3    3    0    0 -0.52146487858E+02 -0.78700785283E+02 -0.15430382768E+03  0.18089428138E+03  0.00000000000E+00 0. -1.
</event>
<event>
 7    1  0.6145388E-006  0.1707446E+03  0.7561462E-02  0.1177074E+00
         -2   -1    0    0    0  501 -0.00000000000E+00  0.00000000000E+00  0.12601478351E+03  0.12601478351E+03  0.00000000000E+00 0.  1.
          2   -1    0    0  501    0  0.00000000000E+00 -0.00000000000E+00 -0.27720643967E+03  0.27720643967E+03  0.00000000000E+00 0. -1.
         23    2    1    2    0    0  0.11118148467E+03 -0.84758642022E+02 -0.13681933272E+03  0.21507638885E+03  0.89403430057E+02 0.  0.
          5    1    1    2  502    0 -0.10144133425E+03  0.49772228591E+00 -0.18139658384E+02  0.10313637394E+03  0.41800000000E+01 0.  1.
         -5    1    1    2    0  502 -0.97401504133E+01  0.84260919736E+02  0.37673349459E+01  0.85008460387E+02  0.41800000000E+01 0.  1.
        -11    1    3    3    0    0  0.54922348832E+02 -0.19919325782E+01 -0.87938822883E+02  0.10369989762E+03  0.00000000000E+00 0.  1.
         11    1    3    3    0    0  0.56259135837E+02 -0.82766709444E+02 -0.48880509835E+02  0.11137649123E+03  0.00000000000E+00 0. -1.
</event>
<event>
 7    1  0.6145388E-006  0.1342791E+03  0.7561462E-02  0.1221241E+00
         -1   -1    0    0    0  501 -0.00000000000E+00  0.00000000000E+00  0.33925951124E+03  0.33925951124E+03  0.00000000000E+00 0.  1.
          1   -1    0    0  501    0  0.00000000000E+00 -0.00000000000E+00 -0.77050377958E+02  0.77050377958E+02  0.00000000000E+00 0. -1.
         23    2    1    2    0    0 -0.83652057333E+02 -0.59248704333E+02  0.43181297490E+02  0.14404598333E+03  0.91523468018E+02 0.  0.
          5    1    1    2  502    0  0.65247625743E+02  0.86773334966E+02  0.96643733361E+02  0.14541096219E+03  0.41800000000E+01 0.  1.
         -5    1    1    2    0  502  0.18404431590E+02 -0.27524630633E+02  0.12238410243E+03  0.12685294368E+03  0.41800000000E+01 0.  1.
        -11    1    3    3    0    0 -0.83595487765E+02 -0.18283476795E+02  0.54615064034E+02  0.10151500538E+03  0.00000000000E+00 0.  1.
         11    1    3    3    0    0 -0.56569568139E-01 -0.40965227538E+02 -0.11433766544E+02  0.42530977942E+02  0.00000000000E+00 0. -1.
</event>
<event>
 7    1  0.6145388E-006  0.1568869E+03  0.7561462E-02  0.1192257E+00
          2   -1    0    0  501    0  0.00000000000E+00  0.00000000000E+00  0.59909188424E+02  0.59909188424E+02  0.00000000000E+00 0. -1.
         -2   -1    0    0    0  501 -0.00000000000E+00 -0.00000000000E+00 -0.44494048599E+03  0.44494048599E+03  0.00000000000E+00 0.  1.
         23    2    1    2    0    0  0.71196751909E+02 -0.91503267647E+02 -0.12261642151E+03  0.19187831708E+03  0.91327302980E+02 0.  0.
          5    1    1    2  502    0 -0.96404300961E+02  0.25550753095E+02 -0.15220430011E+03  0.18201717392E+03  0.41800000000E+01 0.  1.
         -5    1    1    2    0  502  0.25207549052E+02  0.65952514552E+02 -0.11021057595E+03  0.13095418342E+03  0.41800000000E+01 0.  1.
        -11    1    3    3    0    0 -0.80568631655E+01 -0.55663447030E+02 -0.71569548356E+02  0.91024901160E+02  0.00000000000E+00 0. -1.
         11    1    3    3    0    0  0.79253615074E+02 -0.35839820617E+02 -0.51046873156E+02  0.10085341592E+03  0.00000000000E+00 0.  1.
</event>
<event>
 7    1  0.6145388E-006  0.1252669E+03  0.7561462E-02  0.1234653E+00
         -2   -1    0    0    0  501 -0.00000000000E+00  0.00000000000E+00  0.21183359261E+03  0.21183359261E+03  0.00000000000E+00 0.  1.
          2   -1    0    0  501    0  0.00000000000E+00 -0.00000000000E+00 -0.12766765784E+03  0.12766765784E+03  0.00000000000E+00 0. -1.
         23    2    1    2    0    0 -0.75250454695E+02  0.49276896571E+02 -0.47465086111E+02  0.13685733966E+03  0.91575944179E+02 0.  0.
          5    1    1    2  502    0  0.53928773272E+02  0.15000641522E+02  0.18100046635E+01  0.56161199681E+02  0.41800000000E+01 0. -1.
         -5    1    1    2    0  502  0.21321681423E+02 -0.64277538093E+02  0.12982101622E+03  0.14648271111E+03  0.41800000000E+01 0. -1.
        -11    1    3    3    0    0 -0.56617756132E+02 -0.15863798512E+02 -0.33527568792E+02  0.67685510131E+02  0.00000000000E+00 0.  1.
         11    1    3    3    0    0 -0.18632698564E+02  0.65140695082E+02 -0.13937517318E+02  0.69171829530E+02  0.00000000000E+00 0. -1.
</event>
<event>
 7    1  0.6145388E-006  0.1676644E+03  0.7561462E-02  0.1180306E+00
          2   -1    0    0  501    0  0.00000000000E+00  0.00000000000E+00  0.95735295485E+02  0.95735295485E+02  0.00000000000E+00 0. -1.
         -2   -1    0    0    0  501 -0.00000000000E+00 -0.00000000000E+00 -0.42641122096E+03  0.42641122096E+03  0.00000000000E+00 0.  1.
         23    2    1    2    0    0 -0.12699949721E+03  0.72766124355E+02 -0.45806515843E+02  0.17831218994E+03  0.90957237431E+02 0.  0.
          5    1    1    2  502    0  0.73705085992E+01 -0.68625892886E+02 -0.73678876073E+02  0.10104398424E+03  0.41800000000E+01 0.  1.
         -5    1    1    2    0  502  0.11962898861E+03 -0.41402314690E+01 -0.21119053356E+03  0.24279034227E+03  0.41800000000E+01 0.  1.
        -11    1    3    3    0    0 -0.92435610264E+01  0.63396776398E+01 -0.41561018644E+02  0.43045942941E+02  0.00000000000E+00 0.  1.
         11    1    3    3    0    0 -0.11775593619E+03  0.66426446716E+02 -0.42454971998E+01  0.13526624700E+03  0.00000000000E+00 0. -1.
</event>
<event>
 7    1  0.6145388E-006  0.1167037E+03  0.7561462E-02  0.1248636E+00
         -2   -1    0    0    0  501 -0.00000000000E+00  0.00000000000E+00  0.23962307638E+03  0.23962307638E+03  0.00000000000E+00 0. -1.
          2   -1    0    0  501    0  0.00000000000E+00 -0.00000000000E+00 -0.13134117220E+03  0.13134117220E+03  0.00000000000E+00 0.  1.
         23    2    1    2    0    0 -0.59872173561E+02 -0.54920639131E+02 -0.58234324826E+02  0.14742243514E+03  0.10835674426E+03 0.  0.
          5    1    1    2  502    0 -0.11559036696E+02  0.41458347907E+02  0.16036819586E+01  0.43271816882E+02  0.41800000000E+01 0.  1.
         -5    1    1    2    0  502  0.71431210257E+02  0.13462291224E+02  0.16491254705E+03  0.18026999656E+03  0.41800000000E+01 0.  1.
        -11    1    3    3    0    0 -0.64144605009E+02 -0.19091388900E+01  0.55057513347E+01  0.64408760746E+02  0.00000000000E+00 0. -1.
         11    1    3    3    0    0  0.42724314475E+01 -0.53011500241E+02 -0.63740076160E+02  0.83013674399E+02  0.00000000000E+00 0.  1.
</event>
<event>
 7    1  0.6145388E-006  0.1398965E+03  0.7561462E-02  0.1213468E+00
         -2   -1    0    0    0  501 -0.00000000000E+00  0.00000000000E+00  0.44788950032E+02  0.44788950032E+02  0.00000000000E+00 0.  1.
          2   -1    0    0  501    0  0.00000000000E+00 -0.00000000000E+00 -0.48517945671E+03  0.48517945671E+03  0.00000000000E+00 0. -1.
         23    2    1    2    0    0  0.92270431191E+02 -0.75496684985E+01 -0.21815772099E+03  0.25866535328E+03  0.10365396179E+03 0.  0.
          5    1    1    2  502    0 -0.63879601819E+02  0.55889603708E+02 -0.73698151470E+02  0.11248618253E+03  0.41800000000E+01 0.  1.
         -5    1    1    2    0  502 -0.28390829372E+02 -0.48339935209E+02 -0.14853463422E+03  0.15881687093E+03  0.41800000000E+01 0.  1.
        -11    1    3    3    0    0  0.46249936734E+02  0.47868022591E+02 -0.95216080441E+02  0.11617446453E+03  0.00000000000E+00 0.  1.
         11    1    3    3    0    0  0.46020494457E+02 -0.55417691089E+02 -0.12294164055E+03  0.14249088875E+03  0.00000000000E+00 0. -1.
</event>
<event>
 6    1  0.6145388E-006  0.8635900E+02  0.7561462E-02  0.1311916E+00
          2   -1    0    0  501    0  0.00000000000E+00  0.00000000000E+00  0.73660407933E+02  0.73660407933E+02  0.00000000000E+00 0. -1.
         -2   -1    0    0    0  501 -0.00000000000E+00 -0.00000000000E+00 -0.10630024377E+03  0.10630024377E+03  0.00000000000E+00 0.  1.
          5    1    1    2  502    0 -0.56321449207E+02  0.12182080292E+01 -0.19979750673E+02  0.59918715845E+02  0.41800000000E+01 0. -1.
         -5    1    1    2    0  502  0.59079281704E+02 -0.36233712315E+02 -0.20239088564E+02  0.72321065678E+02  0.41800000000E+01 0.  1.
        -11    1    1    2    0    0  0.92335298532E+01  0.33453606531E+02  0.31678102669E+01  0.34848771647E+02  0.00000000000E+00 0.  1.
         11    1    1    2    0    0 -0.11991362350E+02  0.15618977554E+01  0.44111931386E+01  0.12872098528E+02  0.00000000000E+00 0. -1.
</event>
<event>
 7    1  0.6145388E-006  0.1030877E+03  0.7561462E-02  0.1273934E+00
          4   -1    0    0  501    0  0.00000000000E+00  0.00000000000E+00  0.36386908407E+03  0.36386908407E+03  0.00000000000E+00 0. -1.
         -4   -1    0    0    0  501 -0.00000000000E+00 -0.00000000000E+00 -0.33505602895E+02  0.33505602895E+02  0.00000000000E+00 0.  1.
         23    2    1    2    0    0 -0.11504904829E+02  0.38164010914E+00  0.16922704719E+03  0.19306009651E+03  0.92205742118E+02 0.  0.
          5    1    1    2  502    0 -0.21081774561E+02  0.49251533490E+02  0.12136224107E+03  0.13272686513E+03  0.41800000000E+01 0. -1.
         -5    1    1    2    0  502  0.32586679390E+02 -0.49633173599E+02  0.39774192918E+02  0.71587725326E+02  0.41800000000E+01 0. -1.
        -11    1    3    3    0    0 -0.48634254683E+02  0.17950178442E+02  0.95344277981E+02  0.10852663718E+03  0.00000000000E+00 0. -1.
         11    1    3    3    0    0  0.37129349854E+02 -0.17568538333E+02  0.73882769207E+02  0.84533459325E+02  0.00000000000E+00 0.  1.
</event>
<event>
 7    1  0.6145388E-006  0.1091431E+03  0.7561462E-02  0.1262165E+00
          1   -1    0    0  501    0  0.00000000000E+00  0.00000000000E+00  0.34558125565E+03  0.34558125565E+03  0.00000000000E+00 0. -1.
         -1   -1    0    0    0  501 -0.00000000000E+00 -0.00000000000E+00 -0.35239877434E+02  0.35239877434E+02  0.00000000000E+00 0.  1.
         23    2    1    2    0    0  0.58271101640E-01  0.11272316224E+02  0.13937199261E+03  0.16867824234E+03  0.94343672849E+02 0.  0.
          5    1    1    2  502    0  0.47777263764E+02  0.33764839308E+02  0.66604620549E+02  0.88748967233E+02  0.41800000000E+01 0.  1.
         -5    1    1    2    0  502 -0.47835534866E+02 -0.45037155532E+02  0.10436476506E+03  0.12339392351E+03  0.41800000000E+01 0.  1.
        -11    1    3    3    0    0  0.45235749083E+02  0.16864277825E+02  0.58239626784E+02  0.75647412313E+02  0.00000000000E+00 0.  1.
         11    1    3    3    0    0 -0.45177477981E+02 -0.55919616009E+01  0.81132365830E+02  0.93030830032E+02  0.00000000000E+00 0. -1.
</event>
<event>
 7    1  0.6145388E-006  0.1320434E+03  0.7561462E-02  0.1224455E+00
          2   -1    0    0  501    0  0.00000000000E+00  0.00000000000E+00  0.46968344127E+02  0.46968344127E+02  0.00000000000E+00 0. -1.
         -2   -1    0    0    0  501 -0.00000000000E+00 -0.00000000000E+00 -0.41626794965E+03  0.41626794965E+03  0.00000000000E+00 0.  1.
         23    2    1    2    0    0  0.87415954694E+02 -0.10335604738E+02 -0.15665176655E+03  0.20129257378E+03  0.90722381105E+02 0.  0.
          5    1    1    2  502    0 -0.60120105923E+02  0.66878319704E+02 -0.12615118973E+03  0.15497977885E+03  0.41800000000E+01 0.  1.
         -5    1    1    2    0  502 -0.27295848771E+02 -0.56542714966E+02 -0.86496649237E+02  0.10696394114E+03  0.41800000000E+01 0.  1.
        -11    1    3    3    0    0  0.98777622459E+02 -0.59486865653E+01 -0.16047027303E+03  0.18852881503E+03  0.00000000000E+00 0.  1.
         11    1    3    3    0    0 -0.11361667765E+02 -0.43869181731E+01  0.38185064832E+01  0.12763758742E+02  0.00000000000E+00 0. -1.
</event>
<event>
 7    1  0.6145388E-006  0.2234873E+03  0.7561462E-02  0.1131310E+00
         -1   -1    0    0    0  501 -0.00000000000E+00  0.00000000000E+00  0.66124318181E+03  0.66124318181E+03  0.00000000000E+00 0.  1.
          1   -1    0    0  501    0  0.00000000000E+00 -0.00000000000E+00 -0.84640150951E+02  0.84640150951E+02  0.00000000000E+00 0. -1.
         23    2    1    2    0    0  0.19984660703E+03 -0.67262703543E+02  0.27400473337E+03  0.35642842673E+03  0.86600761177E+02 0.  0.
          5    1    1    2  502    0 -0.17431344663E+03  0.32538589717E+02  0.15473543189E+03  0.23538152812E+03  0.41800000000E+01 0.  1.
         -5    1    1    2    0  502 -0.25533160405E+02  0.34724113825E+02  0.14786286559E+03  0.15407337791E+03  0.41800000000E+01 0.  1.
        -11    1    3    3    0    0  0.13528663043E+03 -0.31669108107E+01  0.18449289437E+03  0.22880150736E+03  0.00000000000E+00 0.  1.
         11    1    3    3    0    0  0.64559976607E+02 -0.64095792732E+02  0.89511839000E+02  0.12762691936E+03  0.00000000000E+00 0. -1.
</event>
<event>
 7    1  0.6145388E-006  0.3374753E+03  0.7561462E-02  0.1067876E+00
          2   -1    0    0  501    0  0.00000000000E+00  0.00000000000E+00  0.25348964771E+03  0.25348964771E+03  0.00000000000E+00 0. -1.
         -2   -1    0    0    0  501 -0.00000000000E+00 -0.00000000000E+00 -0.52379580473E+03  0.52379580473E+03  0.00000000000E+00 0.  1.
         23    2    1    2    0    0  0.25100099157E+03  0.22383932882E+03 -0.39732512144E+02  0.35076851980E+03  0.91402073656E+02 0.  0.
          5    1    1    2  502    0 -0.86372498200E+02 -0.98925533024E+02 -0.22641463784E+02  0.13332883338E+03  0.41800000000E+01 0.  1.
         -5    1    1    2    0  502 -0.16462849337E+03 -0.12491379579E+03 -0.20793218109E+03  0.29318809925E+03  0.41800000000E+01 0.  1.
        -11    1    3    3    0    0  0.55923298652E+02  0.60962998006E+02  0.28729690047E+02  0.87574525681E+02  0.00000000000E+00 0. -1.
         11    1    3    3    0    0  0.19507769292E+03  0.16287633081E+03 -0.68462202192E+02  0.26319399412E+03  0.00000000000E+00 0.  1.
</event>
<event>
 7    1  0.6145388E-006  0.1021749E+03  0.7561462E-02  0.1275788E+00
         -1   -1    0    0    0  501 -0.00000000000E+00  0.00000000000E+00  0.13145071988E+03  0.13145071988E+03  0.00000000000E+00 0.  1.
          1   -1    0    0  501    0  0.00000000000E+00 -0.00000000000E+00 -0.13577121746E+03  0.13577121746E+03  0.00000000000E+00 0. -1.
         23    2    1    2    0    0  0.48794872978E+01  0.71722095497E+01 -0.79252266061E+02  0.12106512536E+03  0.91107589788E+02 0.  0.
          5    1    1    2  502    0  0.49401427021E+02  0.23734351507E+02  0.60830350830E+02  0.81985513448E+02  0.41800000000E+01 0.  1.
         -5    1    1    2    0  502 -0.54280914319E+02 -0.30906561057E+02  0.14101417644E+02  0.64171298532E+02  0.41800000000E+01 0.  1.
        -11    1    3    3    0    0  0.33623868019E+02 -0.26279785311E+02 -0.19815340039E+02  0.47051453935E+02  0.00000000000E+00 0.  1.
         11    1    3    3    0    0 -0.28744380721E+02  0.33451994861E+02 -0.59436926022E+02  0.74013671427E+02  0.00000000000E+00 0. -1.
</event>
<event>
 7    1  0.6145388E-006  0.1513741E+03  0.7561462E-02  0.1198795E+00
         -1   -1    0    0    0  501 -0.00000000000E+00  0.00000000000E+00  0.35493957737E+02  0.35493957737E+02  0.00000000000E+00 0.  1.
          1   -1    0    0  501    0  0.00000000000E+00 -0.00000000000E+00 -0.96293279862E+03  0.96293279862E+03  0.00000000000E+00 0. -1.
         23    2    1    2    0    0  0.15011579970E+03  0.14009194621E+01 -0.45951857697E+03  0.49133535718E+03  0.87843011888E+02 0.  0.
          5    1    1    2  502    0 -0.12316797956E+03  0.86126656269E+01 -0.46094801983E+03  0.47721596640E+03  0.41800000000E+01 0.  1.
         -5    1    1    2    0  502 -0.26947820133E+02 -0.10013585089E+02 -0.69722440772E+01  0.29875432779E+02  0.41800000000E+01 0.  1.
        -11    1    3    3    0    0  0.32563801174E+02  0.16576414630E+01 -0.24695227473E+02  0.40902361571E+02  0.00000000000E+00 0.  1.
         11    1    3    3    0    0  0.11755199852E+03 -0.25672200093E+00 -0.43482334950E+03  0.45043299561E+03  0.00000000000E+00 0. -1.
</event>
<event>
 7    1  0.6145388E-006  0.7898803E+02  0.7561462E-02  0.1331948E+00
         -2   -1    0    0    0  501 -0.00000000000E+00  0.00000000000E+00  0.65181434574E+02  0.65181434574E+02  0.00000000000E+00 0. -1.
          2   -1    0    0  501    0  0.00000000000E+00 -0.00000000000E+00 -0.27695019742E+03  0.27695019742E+03  0.00000000000E+00 0.  1.
         23    2    1    2    0    0  0.30581099235E+02  0.45665328151E+02 -0.16566429807E+03  0.19793816736E+03  0.93350589820E+02 0.  0.
          5    1    1    2  502    0 -0.59832136690E+02 -0.18376276396E+02  0.20834945285E+02  0.66099466413E+02  0.41800000000E+01 0. -1.
         -5    1    1    2    0  502  0.29251037455E+02 -0.27289051755E+02 -0.66939410061E+02  0.78093998215E+02  0.41800000000E+01 0. -1.
        -11    1    3    3    0    0  0.15271994369E+02  0.25202942422E+02 -0.16954748807E+03  0.17208943265E+03  0.00000000000E+00 0.  1.
         11    1    3    3    0    0  0.15309104866E+02  0.20462385729E+02  0.38831900065E+01  0.25848734711E+02  0.00000000000E+00 0. -1.
</event>
<event>
 7    1  0.6145388E-006  0.1031173E+03  0.7561462E-02  0.1273874E+00
          2   -1    0    0  501    0  0.00000000000E+00  0.00000000000E+00  0.54493936223E+03  0.54493936223E+03  0.00000000000E+00 0. -1.
         -2   -1    0    0    0  501 -0.00000000000E+00 -0.00000000000E+00 -0.24774263095E+02  0.24774263095E+02  0.00000000000E+00 0.  1.
         23    2    1    2    0    0  0.87152348995E+01  0.30505545078E+02  0.19492558097E+03  0.21980583864E+03  0.96499124262E+02 0.  0.
          5    1    1    2  502    0 -0.60783292081E+02 -0.13338872071E+01  0.22559573605E+03  0.23368204119E+03  0.41800000000E+01 0.  1.
         -5    1    1    2    0  502  0.52068057182E+02 -0.29171657871E+02  0.99643782105E+02  0.11622574549E+03  0.41800000000E+01 0.  1.
        -11    1    3    3    0    0 -0.33916889527E+02  0.25715751062E+02  0.15659371627E+03  0.16227522061E+03  0.00000000000E+00 0. -1.
         11    1    3    3    0    0  0.42632124427E+02  0.47897940162E+01  0.38331864705E+02  0.57530618036E+02  0.00000000000E+00 0.  1.
</event>
<event>
 7    1  0.6145388E-006  0.1613379E+03  0.7561462E-02  0.1187194E+00
          2   -1    0    0  501    0  0.00000000000E+00  0.00000000000E+00  0.18862306547E+03  0.18862306547E+03  0.00000000000E+00 0. -1.
         -2   -1    0    0    0  501 -0.00000000000E+00 -0.00000000000E+00 -0.18819378604E+03  0.18819378604E+03  0.00000000000E+00 0.  1.
         23    2    1    2    0    0  0.58261788399E+02  0.13815427598E+03  0.37043548055E+02  0.17815060470E+03  0.88793994976E+02 0.  0.
          5    1    1    2  502    0 -0.27024252109E+02 -0.13240054430E+03  0.16948948034E+02  0.13625326995E+03  0.41800000000E+01 0. -1.
         -5    1    1    2    0  502 -0.31237536291E+02 -0.57537316822E+01 -0.53563216663E+02  0.62412976865E+02  0.41800000000E+01 0. -1.
        -11    1    3    3    0    0  0.39137826536E+02  0.42009567796E+02 -0.24478411608E+02  0.62416070745E+02  0.00000000000E+00 0.  1.
         11    1    3    3    0    0  0.19123961863E+02  0.96144708185E+02  0.61521959664E+02  0.11573453396E+03  0.00000000000E+00 0. -1.
</event>
<event>
 7    1  0.6145388E-006  0.1057606E+03  0.7561462E-02  0.1268628E+00
          2   -1    0    0  501    0  0.00000000000E+00  0.00000000000E+00  0.49623570837E+03  0.49623570837E+03  0.00000000000E+00 0. -1.
         -2   -1    0    0    0  501 -0.00000000000E+00 -0.00000000000E+00 -0.32345466348E+02  0.32345466348E+02  0.00000000000E+00 0.  1.
         23    2    1    2    0    0  0.51897866638E+02 -0.23239963818E+02  0.27705823300E+03  0.29666077727E+03  0.89514623499E+02 0.  0.
          5    1    1    2  502    0 -0.32751227133E+02  0.73788745912E+02  0.90237840642E+02  0.12115181462E+03  0.41800000000E+01 0.  1.
         -5    1    1    2    0  502 -0.19146639504E+02 -0.50548782094E+02  0.96594168382E+02  0.11076858282E+03  0.41800000000E+01 0.  1.
        -11    1    3    3    0    0  0.62359006171E+02 -0.20671665450E+02  0.27817858579E+03  0.28583087482E+03  0.00000000000E+00 0. -1.
         11    1    3    3    0    0 -0.10461139533E+02 -0.25682983674E+01 -0.11203527975E+01  0.10829902456E+02  0.00000000000E+00 0.  1.
</event>
<event>
 7    1  0.6145388E-006  0.1470375E+03  0.7561462E-02  0.1204161E+00
          3   -1    0    0  501    0  0.00000000000E+00  0.00000000000E+00  0.22574755961E+02  0.22574755961E+02  0.00000000000E+00 0. -1.
         -3   -1    0    0    0  501 -0.00000000000E+00 -0.00000000000E+00 -0.11701686838E+04  0.11701686838E+04  0.00000000000E+00 0.  1.
         23    2    1    2    0    0  0.11868432746E+02  0.11198738001E+03 -0.37197033019E+03  0.39906756298E+03  0.90614349327E+02 0.  0.
          5    1    1    2  502    0 -0.50768823205E+02 -0.24939497411E+02 -0.47228392462E+03  0.47567744302E+03  0.41800000000E+01 0.  1.
         -5    1    1    2    0  502  0.38900390459E+02 -0.87047882598E+02 -0.30333967302E+03  0.31799843375E+03  0.41800000000E+01 0.  1.
        -11    1    3    3    0    0 -0.35915041929E+02  0.29006898247E+02 -0.15888140487E+03  0.16545268567E+03  0.00000000000E+00 0.  1.
         11    1    3    3    0    0  0.47783474675E+02  0.82980481762E+02 -0.21308892532E+03  0.23361487731E+03  0.00000000000E+00 0. -1.
</event>
<event>
 7    1  0.6145388E-006  0.1430532E+03  0.7561462E-02  0.1209279E+00
         -1   -1    0    0    0  501 -0.00000000000E+00  0.00000000000E+00  0.30859096587E+03  0.30859096587E+03  0.00000000000E+00 0.  1.
          1   -1    0    0  501    0  0.00000000000E+00 -0.00000000000E+00 -0.96221485553E+02  0.96221485553E+02  0.00000000000E+00 0. -1.
         23    2    1    2    0    0  0.72719108300E+02 -0.84348118157E+02  0.13069564995E+02  0.14448417869E+03  0.91116357556E+02 0.  0.
          5    1    1    2  502    0 -0.45829933024E+02  0.10286889932E+03  0.84368810915E+02  0.14077628303E+03  0.41800000000E+01 0. -1.
         -5    1    1    2    0  502 -0.26889175277E+02 -0.18520781162E+02  0.11493110441E+03  0.11955198971E+03  0.41800000000E+01 0. -1.
        -11    1    3    3    0    0  0.88994841945E+02 -0.86466484136E+02  0.21659857711E+02  0.12595905766E+03  0.00000000000E+00 0.  1.
         11    1    3    3    0    0 -0.16275733645E+02  0.21183659789E+01 -0.85902927166E+01  0.18525121027E+02  0.00000000000E+00 0. -1.
</event>
<event>
 7    1  0.6145388E-006  0.1404756E+03  0.7561462E-02  0.1212690E+00
          1   -1    0    0  501    0  0.00000000000E+00  0.00000000000E+00  0.40398153095E+03  0.40398153095E+03  0.00000000000E+00 0. -1.
         -1   -1    0    0    0  501 -0.00000000000E+00 -0.00000000000E+00 -0.11053347685E+03  0.11053347685E+03  0.00000000000E+00 0.  1.
         23    2    1    2    0    0  0.68378192551E+02 -0.97427819172E+02  0.30629128877E+03  0.34136819243E+03  0.92466924152E+02 0.  0.
          5    1    1    2  502    0  0.93344883173E+01  0.40082700010E+02 -0.54047291097E+02  0.68061278177E+02  0.41800000000E+01 0.  1.
         -5    1    1    2    0  502 -0.77712680868E+02  0.57345119162E+02  0.41204056424E+02  0.10508553718E+03  0.41800000000E+01 0.  1.
        -11    1    3    3    0    0  0.43133707341E+02 -0.90382613170E+00  0.48330403403E+02  0.64785503809E+02  0.00000000000E+00 0.  1.
         11    1    3    3    0    0  0.25244485209E+02 -0.96523993040E+02  0.25796088537E+03  0.27658268863E+03  0.00000000000E+00 0. -1.
</event>
<event>
 7    1  0.6145388E-006  0.1555648E+03  0.7561462E-02  0.1193797E+00
         -1   -1    0    0    0  501 -0.00000000000E+00  0.00000000000E+00  0.16296482024E+03  0.16296482024E+03  0.00000000000E+00 0.  1.
          1   -1    0    0  501    0  0.00000000000E+00 -0.00000000000E+00 -0.19149441143E+03  0.19149441143E+03  0.00000000000E+00 0. -1.
         23    2    1    2    0    0  0.31284420995E+02  0.12302648763E+03 -0.70895541226E+02  0.17126800400E+03  0.90511434477E+02 0.  0.
          5    1    1    2  502    0  0.49262381955E+01 -0.12820674862E+03  0.60773542026E+02  0.14202863804E+03  0.41800000000E+01 0. -1.
         -5    1    1    2    0  502 -0.36210659190E+02  0.51802609836E+01 -0.18407591992E+02  0.41162589639E+02  0.41800000000E+01 0. -1.
        -11    1    3    3    0    0  0.47832403549E+02  0.11991759703E+03 -0.38442475448E+02  0.13470706301E+03  0.00000000000E+00 0.  1.
         11    1    3    3    0    0 -0.16547982554E+02  0.31088906039E+01 -0.32453065778E+02  0.36560940986E+02  0.00000000000E+00 0. -1.
</event>
<event>
 7    1  0.6145388E-006  0.1266351E+03  0.7561462E-02  0.1232536E+00
         -3   -1    0    0    0  501 -0.00000000000E+00  0.00000000000E+00  0.19498070989E+03  0.19498070989E+03  0.00000000000E+00 0.  1.
          3   -1    0    0  501    0  0.00000000000E+00 -0.00000000000E+00 -0.84061751536E+02  0.84061751536E+02  0.00000000000E+00 0. -1.
         23    2    1    2    0    0  0.52398243848E+02  0.39422651731E+02  0.37248140674E+02  0.11974648183E+03  0.93016528099E+02 0.  0.
          5    1    1    2  502    0  0.24567677602E+02  0.28778090285E+02  0.15761004248E+02  0.41202316902E+02  0.41800000000E+01 0.  1.
         -5    1    1    2    0  502 -0.76965921450E+02 -0.68200742015E+02  0.57909813431E+02  0.11809366269E+03  0.41800000000E+01 0.  1.
        -11    1    3    3    0    0  0.29122404102E+01  0.58993985448E+02  0.29322957909E+02  0.65943971095E+02  0.00000000000E+00 0. -1.
         11    1    3    3    0    0  0.49486003438E+02 -0.19571333717E+02  0.79251827646E+01  0.53802510737E+02  0.00000000000E+00 0.  1.
</event>
<event>
 7    1  0.6145388E-006  0.1099599E+03  0.7561462E-02  0.1260644E+00
         -2   -1    0    0    0  501 -0.00000000000E+00  0.00000000000E+00  0.10145056402E+04  0.10145056402E+04  0.00000000000E+00 0.  1.
          2   -1    0    0  501    0  0.00000000000E+00 -0.00000000000E+00 -0.17862316105E+02  0.17862316105E+02  0.00000000000E+00 0. -1.
         23    2    1    2    0    0  0.43231073159E+02  0.59892323866E+02  0.41245951785E+03  0.42931820216E+03  0.93462552334E+02 0.  0.
          5    1    1    2  502    0 -0.46478225955E+02 -0.64640312897E+01  0.60785238494E+02  0.76904660504E+02  0.41800000000E+01 0. -1.
         -5    1    1    2    0  502  0.32471527963E+01 -0.53428292577E+02  0.52339856770E+03  0.52614509360E+03  0.41800000000E+01 0.  1.
        -11    1    3    3    0    0 -0.22581333983E+02 -0.85706734087E+01  0.85703528185E+02  0.89041944220E+02  0.00000000000E+00 0. -1.
         11    1    3    3    0    0  0.65812407142E+02  0.68462997275E+02  0.32675598967E+03  0.34027625794E+03  0.00000000000E+00 0.  1.
</event>
<event>
 7    1  0.6145388E-006  0.1792751E+03  0.7561462E-02  0.1168506E+00
          3   -1    0    0  501    0  0.00000000000E+00  0.00000000000E+00  0.23167023711E+03  0.23167023711E+03  0.00000000000E+00 0. -1.
         -3   -1    0    0    0  501 -0.00000000000E+00 -0.00000000000E+00 -0.15869162820E+03  0.15869162820E+03  0.00000000000E+00 0.  1.
         23    2    1    2    0    0  0.18937545846E+02  0.15503271726E+03  0.14997065313E+02  0.18207901392E+03  0.92380091359E+02 0.  0.
          5    1    1    2  502    0 -0.21444758711E+01 -0.17416976839E+03  0.51363250627E+02  0.18164625763E+03  0.41800000000E+01 0.  1.
         -5    1    1    2    0  502 -0.16793069975E+02  0.19137051131E+02  0.66182929646E+01  0.26636593756E+02  0.41800000000E+01 0.  1.
        -11    1    3    3    0    0  0.25519286353E+02  0.10523563896E+03 -0.32387848078E+02  0.11302542363E+03  0.00000000000E+00 0.  1.
         11    1    3    3    0    0 -0.65817405068E+01  0.49797078293E+02  0.47384913391E+02  0.69053590288E+02  0.00000000000E+00 0. -1.
</event>
<event>
 7    1  0.6145388E-006  0.9838007E+02  0.7561462E-02  0.1283740E+00
          2   -1    0    0  501    0  0.00000000000E+00  0.00000000000E+00  0.10432583581E+03  0.10432583581E+03  0.00000000000E+00 0.  1.
         -2   -1    0    0    0  501 -0.00000000000E+00 -0.00000000000E+00 -0.15000331465E+03  0.15000331465E+03  0.00000000000E+00 0. -1.
         23    2    1    2    0    0  0.34955583196E+02 -0.36710424175E+02  0.18263696516E+02  0.10498360116E+03  0.90102418737E+02 0.  0.
          5    1    1    2  502    0  0.32566489769E+02  0.27894830355E+02  0.14433662649E+02  0.45436778428E+02  0.41800000000E+01 0.  1.
         -5    1    1    2    0  502 -0.67522072964E+02  0.88155938191E+01 -0.78374838006E+02  0.10390877087E+03  0.41800000000E+01 0.  1.
        -11    1    3    3    0    0 -0.14560310013E+02 -0.32676411755E+02 -0.21158799418E+02  0.41562546910E+02  0.00000000000E+00 0. -1.
         11    1    3    3    0    0  0.49515893209E+02 -0.40340124200E+01  0.39422495933E+02  0.63421054249E+02  0.00000000000E+00 0.  1.
</event>
<event>
 7    1  0.6145388E-006  0.1246506E+03  0.7561462E-02  0.1235616E+00
         -1   -1    0    0    0  501 -0.00000000000E+00  0.00000000000E+00  0.37718647679E+03  0.37718647679E+03  0.00000000000E+00 0.  1.
          1   -1    0    0  501    0  0.00000000000E+00 -0.00000000000E+00 -0.44500990528E+02  0.44500990528E+02  0.00000000000E+00 0. -1.
         23    2    1    2    0    0 -0.32590273643E+01  0.69550395072E+02  0.13154675677E+03  0.17480497066E+03  0.91675241122E+02 0.  0.
          5    1    1    2  502    0 -0.57381584120E+02 -0.57174443560E+02  0.11219949801E+03  0.13844769029E+03  0.41800000000E+01 0.  1.
         -5    1    1    2    0  502  0.60640611484E+02 -0.12375951512E+02  0.88939231482E+02  0.10843480638E+03  0.41800000000E+01 0.  1.
        -11    1    3    3    0    0  0.75979970882E+01  0.86062207229E+02  0.12844967492E+03  0.15480229992E+03  0.00000000000E+00 0.  1.
         11    1    3    3    0    0 -0.10857024452E+02 -0.16511812158E+02  0.30970818542E+01  0.20002670739E+02  0.00000000000E+00 0. -1.
</event>
<event>
 7    1  0.6145388E-006  0.1033245E+03  0.7561462E-02  0.1273456E+00
          1   -1    0    0  501    0  0.00000000000E+00  0.00000000000E+00  0.11253760122E+03  0.11253760122E+03  0.00000000000E+00 0. -1.
         -1   -1    0    0    0  501 -0.00000000000E+00 -0.00000000000E+00 -0.19179665808E+03  0.19179665808E+03  0.00000000000E+00 0.  1.
         23    2    1    2    0    0  0.61246750325E+02  0.22587203914E+02  0.40831640794E+02  0.11905463195E+03  0.90804384770E+02 0.  0.
          5    1    1    2  502    0 -0.66753581733E+02  0.37504662900E+02 -0.88290771019E+02  0.11694175072E+03  0.41800000000E+01 0.  1.
         -5    1    1    2    0  502  0.55068314085E+01 -0.60091866814E+02 -0.31799926631E+02  0.68337876636E+02  0.41800000000E+01 0.  1.
        -11    1    3    3    0    0  0.40170156715E+02  0.23173003380E+01 -0.24756609804E+02  0.47243000543E+02  0.00000000000E+00 0.  1.
         11    1    3    3    0    0  0.21076593610E+02  0.20269903576E+02  0.65588250598E+02  0.71811631410E+02  0.00000000000E+00 0. -1.
</event>
<event>
 7    1  0.6145388E-006  0.1727313E+03  0.7561462E-02  0.1175029E+00
         -1   -1    0    0    0  501 -0.00000000000E+00  0.00000000000E+00  0.27778917995E+03  0.27778917995E+03  0.00000000000E+00 0.  1.
          1   -1    0    0  501    0  0.00000000000E+00 -0.00000000000E+00 -0.12409058637E+03  0.12409058637E+03  0.00000000000E+00 0. -1.
         23    2    1    2    0    0  0.62310848518E+02 -0.13364915256E+03  0.41106332606E+02  0.17811611837E+03  0.91054287208E+02 0.  0.
          5    1    1    2  502    0 -0.89547536416E+01 -0.12973934521E+02  0.55040566684E+02  0.57405983753E+02  0.41800000000E+01 0. -1.
         -5    1    1    2    0  502 -0.53356094876E+02  0.14662308708E+03  0.57551694290E+02  0.16635766421E+03  0.41800000000E+01 0. -1.
        -11    1    3    3    0    0  0.17470741927E+02 -0.12645304960E+03  0.34415198528E+02  0.13221197550E+03  0.00000000000E+00 0.  1.
         11    1    3    3    0    0  0.44840106591E+02 -0.71961029590E+01  0.66911340777E+01  0.45904142864E+02  0.00000000000E+00 0. -1.
</event>
<event>
 7    1  0.6145388E-006  0.1282280E+03  0.7561462E-02  0.1230109E+00
         -1   -1    0    0    0  501 -0.00000000000E+00  0.00000000000E+00  0.11425157244E+03  0.11425157244E+03  0.00000000000E+00 0.  1.
          1   -1    0    0  501    0  0.00000000000E+00 -0.00000000000E+00 -0.15987688407E+03  0.15987688407E+03  0.00000000000E+00 0. -1.
         23    2    1    2    0    0  0.12749760975E+02  0.72930250655E+02 -0.42919156338E+02  0.12500619643E+03  0.91121442594E+02 0.  0.
          5    1    1    2  502    0 -0.55885528498E+02  0.49057728909E+01 -0.17280724660E+02  0.58850273984E+02  0.41800000000E+01 0. -1.
         -5    1    1    2    0  502  0.43135767523E+02 -0.77836023546E+02  0.14574569364E+02  0.90271986094E+02  0.41800000000E+01 0.  1.
        -11    1    3    3    0    0 -0.90927411278E+01 -0.16615738542E+02  0.69900664479E+01  0.20189644312E+02  0.00000000000E+00 0.  1.
         11    1    3    3    0    0  0.21842502103E+02  0.89545989197E+02 -0.49909222786E+02  0.10481655212E+03  0.00000000000E+00 0. -1.
</event>
<event>
 7    1  0.6145388E-006  0.6313663E+02  0.7561462E-02  0.1385121E+00
         -3   -1    0    0    0  501 -0.00000000000E+00  0.00000000000E+00  0.47323193675E+03  0.47323193675E+03  0.00000000000E+00 0.  1.
          3   -1    0    0  501    0  0.00000000000E+00 -0.00000000000E+00 -0.24105384991E+02  0.24105384991E+02  0.00000000000E+00 0. -1.
         23    2    1    2    0    0  0.14736631534E+02  0.26643240698E+02  0.10047658964E+03  0.12781956474E+03  0.72905867257E+02 0.  0.
          5    1    1    2  502    0 -0.19954260107E+02  0.94011756067E+01  0.32525651699E+03  0.32603041092E+03  0.41800000000E+01 0. -1.
         -5    1    1    2    0  502  0.52176285729E+01 -0.36044416305E+02  0.23393445137E+02  0.43487346091E+02  0.41800000000E+01 0.  1.
        -11    1    3    3    0    0  0.16471420603E+02  0.45416059370E+02  0.34930307385E+02  0.59615874726E+02  0.00000000000E+00 0. -1.
         11    1    3    3    0    0 -0.17347890685E+01 -0.18772818672E+02  0.65546282251E+02  0.68203690009E+02  0.00000000000E+00 0.  1.
</event>
<event>
 7    1  0.6145388E-006  0.1083778E+03  0.7561462E-02  0.1263604E+00
          1   -1    0    0  501    0  0.00000000000E+00  0.00000000000E+00  0.27993888349E+02  0.27993888349E+02  0.00000000000E+00 0. -1.
         -1   -1    0    0    0  501 -0.00000000000E+00 -0.00000000000E+00 -0.56756036196E+03  0.56756036196E+03  0.00000000000E+00 0.  1.
         23    2    1    2    0    0  0.76293353412E+00  0.53998800820E+02 -0.16272318642E+03  0.19483582705E+03  0.92551129370E+02 0.  0.
          5    1    1    2  502    0  0.58529378023E+02 -0.16787705054E+02 -0.23045824116E+03  0.23840299590E+03  0.41800000000E+01 0.  1.
         -5    1    1    2    0  502 -0.59292311557E+02 -0.37211095765E+02 -0.14638504603E+03  0.16231542736E+03  0.41800000000E+01 0.  1.
        -11    1    3    3    0    0  0.10218221500E+02  0.67966016667E+02 -0.16410124103E+03  0.17791292471E+03  0.00000000000E+00 0.  1.
         11    1    3    3    0    0 -0.94552879657E+01 -0.13967215848E+02  0.13780546133E+01  0.16922902339E+02  0.00000000000E+00 0. -1.
</event>
<event>
 7    1  0.6145388E-006  0.1377795E+03  0.7561462E-02  0.1216348E+00
         -1   -1    0    0    0  501 -0.00000000000E+00  0.00000000000E+00  0.14844968715E+03  0.14844968715E+03  0.00000000000E+00 0.  1.
          1   -1    0    0  501    0  0.00000000000E+00 -0.00000000000E+00 -0.15276905879E+03  0.15276905879E+03  0.00000000000E+00 0. -1.
         23    2    1    2    0    0 -0.61643719455E+02 -0.62828509233E+02 -0.57049224150E+02  0.13943160087E+03  0.91865051162E+02 0.  0.
          5    1    1    2  502    0  0.93610982066E+02  0.14547574826E+02  0.30309747827E+02  0.99553006534E+02  0.41800000000E+01 0. -1.
         -5    1    1    2    0  502 -0.31967262611E+02  0.48280934407E+02  0.22420104683E+02  0.62234138542E+02  0.41800000000E+01 0. -1.
        -11    1    3    3    0    0 -0.26480873335E+02  0.19676718334E+02 -0.32808770173E+02  0.46527683128E+02  0.00000000000E+00 0. -1.
         11    1    3    3    0    0 -0.35162846120E+02 -0.82505227567E+02 -0.24240453977E+02  0.92903917744E+02  0.00000000000E+00 0.  1.
</event>
<event>
 7    1  0.6145388E-006  0.1169529E+03  0.7561462E-02  0.1248210E+00
          2   -1    0    0  501    0  0.00000000000E+00  0.00000000000E+00  0.52072529012E+03  0.52072529012E+03  0.00000000000E+00 0. -1.
         -2   -1    0    0    0  501 -0.00000000000E+00 -0.00000000000E+00 -0.72545392503E+02  0.72545392503E+02  0.00000000000E+00 0.  1.
         23    2    1    2    0    0 -0.65112270829E+00  0.71360224822E+02  0.44287092323E+03  0.45760897164E+03  0.90435671225E+02 0.  0.
          5    1    1    2  502    0 -0.48014226199E+02  0.85367848540E+00 -0.13867626847E+01  0.48223336625E+02  0.41800000000E+01 0. -1.
         -5    1    1    2    0  502  0.48665348908E+02 -0.72213903307E+02  0.66957370623E+01  0.87438374356E+02  0.41800000000E+01 0.  1.
        -11    1    3    3    0    0  0.27528651459E+02  0.72147023955E+01  0.42461613408E+02  0.51116212643E+02  0.00000000000E+00 0.  1.
         11    1    3    3    0    0 -0.28179774167E+02  0.64145522427E+02  0.40040930983E+03  0.40649275899E+03  0.00000000000E+00 0. -1.
</event>
<event>
 7    1  0.6145388E-006  0.1470553E+03  0.7561462E-02  0.1204139E+00
         -2   -1    0    0    0  501 -0.00000000000E+00  0.00000000000E+00  0.42074190995E+02  0.42074190995E+02  0.00000000000E+00 0. -1.
          2   -1    0    0  501    0  0.00000000000E+00 -0.00000000000E+00 -0.57963884488E+03  0.57963884488E+03  0.00000000000E+00 0.  1.
         23    2    1    2    0    0 -0.12026827243E+02 -0.10908507613E+03 -0.29136857459E+03  0.32455240087E+03  0.91621046939E+02 0.  0.
          5    1    1    2  502    0 -0.27880790071E+02  0.10902016613E+03 -0.11920887361E+03  0.16398464265E+03  0.41800000000E+01 0. -1.
         -5    1    1    2    0  502  0.39907617314E+02  0.64910000442E-01 -0.12698720569E+03  0.13317599236E+03  0.41800000000E+01 0. -1.
        -11    1    3    3    0    0 -0.48319552079E+02 -0.37662773538E+02 -0.15057827702E+03  0.16256408316E+03  0.00000000000E+00 0.  1.
         11    1    3    3    0    0  0.36292724836E+02 -0.71422302591E+02 -0.14079029757E+03  0.16198831771E+03  0.00000000000E+00 0. -1.
</event>
<event>
 7    1  0.6145388E-006  0.1812627E+03  0.7561462E-02  0.1166587E+00
          2   -1    0    0  501    0  0.00000000000E+00  0.00000000000E+00  0.10937698353E+04  0.10937698353E+04  0.00000000000E+00 0. -1.
         -2   -1    0    0    0  501 -0.00000000000E+00 -0.00000000000E+00 -0.37127476052E+02  0.37127476052E+02  0.00000000000E+00 0.  1.
         23    2    1    2    0    0  0.16356385479E+03 -0.10984287018E+02  0.62422118928E+03  0.65182275905E+03  0.91362064922E+02 0.  0.
          5    1    1    2  502    0 -0.24838801259E+02  0.32492223599E+02  0.22405444755E+03  0.22779503618E+03  0.41800000000E+01 0.  1.
         -5    1    1    2    0  502 -0.13872505353E+03 -0.21507936580E+02  0.20836672243E+03  0.25127951614E+03  0.41800000000E+01 0.  1.
        -11    1    3    3    0    0  0.10874255507E+03  0.29670911651E+02  0.29955255074E+03  0.32005786498E+03  0.00000000000E+00 0.  1.
         11    1    3    3    0    0  0.54821299727E+02 -0.40655198670E+02  0.32466863854E+03  0.33176489407E+03  0.00000000000E+00 0. -1.
</event>
<event>
 7    1  0.6145388E-006  0.6593734E+02  0.7561462E-02  0.1374480E+00
         -1   -1    0    0    0  501 -0.00000000000E+00  0.00000000000E+00  0.28135580092E+03  0.28135580092E+03  0.00000000000E+00 0.  1.
          1   -1    0    0  501    0  0.00000000000E+00 -0.00000000000E+00 -0.41196364437E+02  0.41196364437E+02  0.00000000000E+00 0. -1.
         23    2    1    2    0    0  0.32147411775E+01  0.26340088376E+02  0.81331703859E+02  0.11667512527E+03  0.79335389251E+02 0.  0.
          5    1    1    2  502    0  0.12691788331E+02 -0.40453981122E+02 -0.29012626514E+01  0.42702409822E+02  0.41800000000E+01 0. -1.
         -5    1    1    2    0  502 -0.15906529508E+02  0.14113892746E+02  0.16172899528E+03  0.16317463027E+03  0.41800000000E+01 0.  1.
        -11    1    3    3    0    0 -0.23954067107E+02  0.31874225817E+02  0.11433888193E+02  0.41478878982E+02  0.00000000000E+00 0.  1.
         11    1    3    3    0    0  0.27168808285E+02 -0.55341374410E+01  0.69897815666E+02  0.75196246288E+02  0.00000000000E+00 0. -1.
</event>
<event>
 7    1  0.6145388E-006  0.1091428E+03  0.7561462E-02  0.1262166E+00
         -1   -1    0    0    0  501 -0.00000000000E+00  0.00000000000E+00  0.97428238786E+02  0.97428238786E+02  0.00000000000E+00 0.  1.
          1   -1    0    0  501    0  0.00000000000E+00 -0.00000000000E+00 -0.13579473387E+03  0.13579473387E+03  0.00000000000E+00 0. -1.
         23    2    1    2    0    0 -0.50333681085E+01 -0.49532270836E+02 -0.28369455071E+02  0.98215873447E+02  0.79766855066E+02 0.  0.
          5    1    1    2  502    0 -0.52906412849E+02 -0.49511354039E+01  0.64297799639E+01  0.53688143316E+02  0.41800000000E+01 0. -1.
         -5    1    1    2    0  502  0.57939780958E+02  0.54483406240E+02 -0.16426819978E+02  0.81318955893E+02  0.41800000000E+01 0. -1.
        -11    1    3    3    0    0 -0.59049506922E+01  0.17414767438E+02  0.10118790953E+02  0.20988866047E+02  0.00000000000E+00 0.  1.
         11    1    3    3    0    0  0.87158258369E+00 -0.66947038274E+02 -0.38488246024E+02  0.77227007399E+02  0.00000000000E+00 0. -1.
</event>
<event>
 7    1  0.6145388E-006  0.1468608E+03  0.7561462E-02  0.1204384E+00
          1   -1    0    0  501    0  0.00000000000E+00  0.00000000000E+00  0.35864359293E+03  0.35864359293E+03  0.00000000000E+00 0.  1.
         -1   -1    0    0    0  501 -0.00000000000E+00 -0.00000000000E+00 -0.82548473765E+02  0.82548473765E+02  0.00000000000E+00 0. -1.
         23    2    1    2    0    0  0.98651595396E+02  0.64102772995E+02  0.21234059996E+03  0.25802036671E+03  0.87433840506E+02 0.  0.
          5    1    1    2  502    0  0.22867776851E+02 -0.36872539761E+01  0.38417131331E+02  0.45054183376E+02  0.41800000000E+01 0.  1.
         -5    1    1    2    0  502 -0.12151937225E+03 -0.60415519019E+02  0.25337387872E+02  0.13811751661E+03  0.41800000000E+01 0.  1.
        -11    1    3    3    0    0  0.99086078837E+02  0.34672693414E+02  0.11223771276E+03  0.15368002751E+03  0.00000000000E+00 0. -1.
         11    1    3    3    0    0 -0.43448344089E+00  0.29430079581E+02  0.10010288720E+03  0.10434033920E+03  0.00000000000E+00 0.  1.
</event>
<event>
 7    1  0.6145388E-006  0.1830544E+03  0.7561462E-02  0.1164879E+00
          1   -1    0    0  501    0  0.00000000000E+00  0.00000000000E+00  0.53865305589E+03  0.53865305589E+03  0.00000000000E+00 0.  1.
         -1   -1    0    0    0  501 -0.00000000000E+00 -0.00000000000E+00 -0.71778323028E+02  0.71778323028E+02  0.00000000000E+00 0. -1.
         23    2    1    2    0    0  0.97097549868E+02  0.13147192238E+03  0.21236541450E+03  0.28311575335E+03  0.91338162643E+02 0.  0.
          5    1    1    2  502    0 -0.65183382095E+02 -0.14865963686E+03  0.16909377337E+03  0.23443279960E+03  0.41800000000E+01 0. -1.
         -5    1    1    2    0  502 -0.31914167773E+02  0.17187714479E+02  0.85415544989E+02  0.92882825966E+02  0.41800000000E+01 0. -1.
        -11    1    3    3    0    0  0.34154730952E+01  0.25799262651E+02 -0.23411635213E+01  0.26129455724E+02  0.00000000000E+00 0. -1.
         11    1    3    3    0    0  0.93682076773E+02  0.10567265973E+03  0.21470657802E+03  0.25698629763E+03  0.00000000000E+00 0.  1.
</event>
<event>
 7    1  0.6145388E-006  0.1260418E+03  0.7561462E-02  0.1233450E+00
         -1   -1    0    0    0  501 -0.00000000000E+00  0.00000000000E+00  0.24763718031E+03  0.24763718031E+03  0.00000000000E+00 0.  1.
          1   -1    0    0  501    0  0.00000000000E+00 -0.00000000000E+00 -0.88527173148E+02  0.88527173148E+02  0.00000000000E+00 0. -1.
         23    2    1    2    0    0  0.93668055518E+02 -0.25848244876E+02  0.33366301251E+02  0.13392074428E+03  0.85904710586E+02 0.  0.
          5    1    1    2  502    0 -0.10783057653E+03 -0.19319366764E+01  0.47513823963E+02  0.11792455844E+03  0.41800000000E+01 0.  1.
         -5    1    1    2    0  502  0.14162521017E+02  0.27780181553E+02  0.78229881945E+02  0.84319050741E+02  0.41800000000E+01 0.  1.
        -11    1    3    3    0    0  0.35779705578E+01 -0.22245962257E+02 -0.19157648992E+02  0.29575331358E+02  0.00000000000E+00 0. -1.
         11    1    3    3    0    0  0.90090084960E+02 -0.36022826197E+01  0.52523950243E+02  0.10434541292E+03  0.00000000000E+00 0.  1.
</event>
<event>
 6    1  0.6145388E-006  0.6387641E+02  0.7561462E-02  0.1382249E+00
          4   -1    0    0  501    0  0.00000000000E+00  0.00000000000E+00  0.19455869005E+02  0.19455869005E+02  0.00000000000E+00 0. -1.
         -4   -1    0    0    0  501 -0.00000000000E+00 -0.00000000000E+00 -0.81304319201E+03  0.81304319201E+03  0.00000000000E+00 0.  1.
          5    1    1    2  502    0 -0.50292240166E+02  0.10683024517E+02 -0.35525396400E+02  0.62633558283E+02  0.41800000000E+01 0. -1.
         -5    1    1    2    0  502  0.36801521809E+01  0.11029143765E+02 -0.58905183801E+03  0.58918140313E+03  0.41800000000E+01 0.  1.
        -11    1    1    2    0    0  0.48776459099E+02 -0.73954097862E+01 -0.13432887801E+03  0.14310165098E+03  0.00000000000E+00 0. -1.
         11    1    1    2    0    0 -0.21643711136E+01 -0.14316758496E+02 -0.34681210597E+02  0.37582448625E+02  0.00000000000E+00 0.  1.
</event>
<event>
 7    1  0.6145388E-006  0.1124256E+03  0.7561462E-02  0.1256143E+00
         -1   -1    0    0    0  501 -0.00000000000E+00  0.00000000000E+00  0.45229415272E+02  0.45229415272E+02  0.00000000000E+00 0.  1.
          1   -1    0    0  501    0  0.00000000000E+00 -0.00000000000E+00 -0.30434381990E+03  0.30434381990E+03  0.00000000000E+00 0. -1.
         23    2    1    2    0    0  0.38347631988E+02 -0.85176309491E+01 -0.13416485388E+03  0.16843348801E+03  0.93949672426E+02 0.  0.
          5    1    1    2  502    0 -0.83358433362E+02  0.15679790637E+02 -0.73874816646E+02  0.11255862997E+03  0.41800000000E+01 0. -1.
         -5    1    1    2    0  502  0.45010801374E+02 -0.71621596875E+01 -0.51074734095E+02  0.68581117187E+02  0.41800000000E+01 0. -1.
        -11    1    3    3    0    0  0.64787250434E+02 -0.15897650463E+02 -0.61406310965E+02  0.90668948022E+02  0.00000000000E+00 0.  1.
         11    1    3    3    0    0 -0.26439618446E+02  0.73800195135E+01 -0.72758542918E+02  0.77764539986E+02  0.00000000000E+00 0. -1.
</event>
<event>
 7    1  0.6145388E-006  0.7066322E+02  0.7561462E-02  0.1357852E+00
         -2   -1    0    0    0  501 -0.00000000000E+00  0.00000000000E+00  0.36092294599E+02  0.36092294599E+02  0.00000000000E+00 0. -1.
          2   -1    0    0  501    0  0.00000000000E+00 -0.00000000000E+00 -0.46500039133E+03  0.46500039133E+03  0.00000000000E+00 0.  1.
         23    2    1    2    0    0 -0.56248814435E+02  0.43136970747E+01 -0.26901001822E+03  0.29038247093E+03  0.93664573949E+02 0.  0.
          5    1    1    2  502    0  0.48154113279E+01  0.38128549766E+01 -0.15827166694E+03  0.15844594979E+03  0.41800000000E+01 0. -1.
         -5    1    1    2    0  502  0.51433403107E+02 -0.81265520513E+01 -0.16264115745E+01  0.52264265211E+02  0.41800000000E+01 0. -1.
        -11    1    3    3    0    0 -0.42964542655E+02  0.30230997190E+02 -0.25032992762E+03  0.25578298962E+03  0.00000000000E+00 0.  1.
         11    1    3    3    0    0 -0.13284271780E+02 -0.25917300115E+02 -0.18680090595E+02  0.34599481306E+02  0.00000000000E+00 0. -1.
</event>
<event>
 7    1  0.6145388E-006  0.9653170E+02  0.7561462E-02  0.1287763E+00
         -2   -1    0    0    0  501 -0.00000000000E+00  0.00000000000E+00  0.67626288259E+02  0.67626288259E+02  0.00000000000E+00 0. -1.
          2   -1    0    0  501    0  0.00000000000E+00 -0.00000000000E+00 -0.22203178046E+03  0.22203178046E+03  0.00000000000E+00 0.  1.
         23    2    1    2    0    0  0.43545750339E+02 -0.29736132444E+02 -0.88724445003E+02  0.13885414902E+03  0.92886907663E+02 0.  0.
          5    1    1    2  502    0 -0.55638508844E+02 -0.24358726193E+02  0.47657904577E+01  0.61066982624E+02  0.41800000000E+01 0.  1.
         -5    1    1    2    0  502  0.12092758505E+02  0.54094858637E+02 -0.70446837658E+02  0.89736937073E+02  0.41800000000E+01 0.  1.
        -11    1    3    3    0    0 -0.88910674391E+00 -0.32085989482E+02 -0.88729815475E+02  0.94357201029E+02  0.00000000000E+00 0.  1.
         11    1    3    3    0    0  0.44434857083E+02  0.23498570378E+01  0.53704728938E-02  0.44496947995E+02  0.00000000000E+00 0. -1.
</event>
<event>
 7    1  0.6145388E-006  0.1258311E+03  0.7561462E-02  0.1233776E+00
         -2   -1    0    0    0  501 -0.00000000000E+00  0.00000000000E+00  0.93127838960E+02  0.93127838960E+02  0.00000000000E+00 0. -1.
          2   -1    0    0  501    0  0.00000000000E+00 -0.00000000000E+00 -0.18613848572E+03  0.18613848572E+03  0.00000000000E+00 0.  1.
         23    2    1    2    0    0  0.44977181975E+02 -0.55461577263E+02 -0.63027205545E+02  0.13214143963E+03  0.91596932146E+02 0.  0.
          5    1    1    2  502    0 -0.50164678849E+02 -0.24147081140E+02 -0.36925580637E+02  0.66936891450E+02  0.41800000000E+01 0. -1.
         -5    1    1    2    0  502  0.51874968736E+01  0.79608658403E+02  0.69421394264E+01  0.80187993592E+02  0.41800000000E+01 0. -1.
        -11    1    3    3    0    0  0.35281657613E+02 -0.81149733255E+02 -0.44771090669E+02  0.99169174298E+02  0.00000000000E+00 0. -1.
         11    1    3    3    0    0  0.96955243620E+01  0.25688155992E+02 -0.18256114876E+02  0.32972265335E+02  0.00000000000E+00 0.  1.
</event>
<event>
 7    1  0.6145388E-006  0.1740202E+03  0.7561462E-02  0.1173719E+00
          1   -1    0    0  501    0  0.00000000000E+00  0.00000000000E+00  0.35184120438E+03  0.35184120438E+03  0.00000000000E+00 0. -1.
         -1   -1    0    0    0  501 -0.00000000000E+00 -0.00000000000E+00 -0.11832583170E+03  0.11832583170E+03  0.00000000000E+00 0.  1.
         23    2    1    2    0    0 -0.88255875858E+02 -0.11860041826E+03  0.21355206756E+03  0.27548202546E+03  0.91818854035E+02 0.  0.
          5    1    1    2  502    0  0.77104655441E+02  0.14499282573E+03  0.21585434714E+02  0.16568479350E+03  0.41800000000E+01 0. -1.
         -5    1    1    2    0  502  0.11151220417E+02 -0.26392407476E+02 -0.16221295936E+01  0.29000217130E+02  0.41800000000E+01 0. -1.
        -11    1    3    3    0    0 -0.45028641599E+02 -0.95996130812E+02  0.19743856595E+03  0.22410895346E+03  0.00000000000E+00 0. -1.
         11    1    3    3    0    0 -0.43227234259E+02 -0.22604287444E+02  0.16113501611E+02  0.51373072000E+02  0.00000000000E+00 0.  1.
</event>
<event>
 7    1  0.6145388E-006  0.1522982E+03  0.7561462E-02  0.1197677E+00
          2   -1    0    0  501    0  0.00000000000E+00  0.00000000000E+00  0.19176082868E+03  0.19176082868E+03  0.00000000000E+00 0. -1.
         -2   -1    0    0    0  501 -0.00000000000E+00 -0.00000000000E+00 -0.14383292462E+03  0.14383292462E+03  0.00000000000E+00 0.  1.
         23    2    1    2    0    0 -0.12543922937E+03  0.40027906627E+01  0.31322355459E+02  0.15762130972E+03  0.90068666752E+02 0.  0.
          5    1    1    2  502    0  0.54681765268E+02 -0.62468680833E+02  0.21821266734E+02  0.85942257474E+02  0.41800000000E+01 0.  1.
         -5    1    1    2    0  502  0.70757464097E+02  0.58465890170E+02 -0.52157181272E+01  0.92030186104E+02  0.41800000000E+01 0.  1.
        -11    1    3    3    0    0 -0.97043790094E+02 -0.10665149977E+02 -0.17583041106E+02  0.99198820327E+02  0.00000000000E+00 0.  1.
         11    1    3    3    0    0 -0.28395439272E+02  0.14667940640E+02  0.48905396565E+02  0.58422489396E+02  0.00000000000E+00 0. -1.
</event>
<event>
 7    1  0.6145388E-006  0.1388511E+03  0.7561462E-02  0.1214883E+00
          1   -1    0    0  501    0  0.00000000000E+00  0.00000000000E+00  0.71857453299E+03  0.71857453299E+03  0.00000000000E+00 0. -1.
         -1   -1    0    0    0  501 -0.00000000000E+00 -0.00000000000E+00 -0.35659151741E+02  0.35659151741E+02  0.00000000000E+00 0.  1.
         23    2    1    2    0    0 -0.47859479499E+02 -0.10882508330E+03  0.30730578424E+03  0.34206594172E+03  0.91863131485E+02 0.  0.
          5    1    1    2  502    0  0.45877626541E+02  0.48066981232E+02  0.32841208428E+03  0.33509276447E+03  0.41800000000E+01 0. -1.
         -5    1    1    2    0  502  0.19818529580E+01  0.60758102070E+02  0.47197512734E+02  0.77074978537E+02  0.41800000000E+01 0.  1.
        -11    1    3    3    0    0 -0.65057941804E+02 -0.11482525904E+03  0.27285915416E+03  0.30309980850E+03  0.00000000000E+00 0.  1.
         11    1    3    3    0    0  0.17198462304E+02  0.60001757333E+01  0.34446630083E+02  0.38966133226E+02  0.00000000000E+00 0. -1.
</event>
<event>
 7    1  0.6145388E-006  0.9085510E+02  0.7561462E-02  0.1300794E+00
          2   -1    0    0  501    0  0.00000000000E+00  0.00000000000E+00  0.40376683844E+03  0.40376683844E+03  0.00000000000E+00 0. -1.
         -2   -1    0    0    0  501 -0.00000000000E+00 -0.00000000000E+00 -0.30681941743E+02  0.30681941743E+02  0.00000000000E+00 0.  1.
         23    2    1    2    0    0 -0.10148772664E+02  0.86705713173E+01  0.20286004390E+03  0.22278126812E+03  0.91110480316E+02 0.  0.
          5    1    1    2  502    0  0.52226097341E+02  0.94322837476E+01  0.24030109209E+02  0.58407634507E+02  0.41800000000E+01 0. -1.
         -5    1    1    2    0  502 -0.42077324677E+02 -0.18102855065E+02  0.14619474359E+03  0.15325987755E+03  0.41800000000E+01 0. -1.
        -11    1    3    3    0    0  0.35751611705E+02 -0.77197375481E-01  0.13978136327E+03  0.14428102168E+03  0.00000000000E+00 0.  1.
         11    1    3    3    0    0 -0.45900384369E+02  0.87477686928E+01  0.63078680626E+02  0.78500246444E+02  0.00000000000E+00 0. -1.
</event>
<event>
 7    1  0.6145388E-006  0.7117939E+02  0.7561462E-02  0.1356128E+00
          1   -1    0    0  501    0  0.00000000000E+00  0.00000000000E+00  0.13928594883E+03  0.13928594883E+03  0.00000000000E+00 0. -1.
         -1   -1    0    0    0  501 -0.00000000000E+00 -0.00000000000E+00 -0.87914086773E+02  0.87914086773E+02  0.00000000000E+00 0.  1.
         23    2    1    2    0    0  0.18548252730E+01  0.29915996764E+02  0.37484377161E+02  0.97825384746E+02  0.85242713063E+02 0.  0.
          5    1    1    2  502    0  0.25936037363E+02 -0.47475122986E+02  0.54536130758E+02  0.76930015564E+02  0.41800000000E+01 0.  1.
         -5    1    1    2    0  502 -0.27790862636E+02  0.17559126221E+02 -0.40648645867E+02  0.52444635289E+02  0.41800000000E+01 0.  1.
        -11    1    3    3    0    0  0.19137870401E+02  0.32271021413E+02 -0.16578299113E+02  0.41018494707E+02  0.00000000000E+00 0.  1.
         11    1    3    3    0    0 -0.17283045128E+02 -0.23550246490E+01  0.54062676274E+02  0.56806890039E+02  0.00000000000E+00 0. -1.
</event>
<event>
 7    1  0.6145388E-006  0.1745798E+03  0.7561462E-02  0.1173154E+00
          1   -1    0    0  501    0  0.00000000000E+00  0.00000000000E+00  0.59655224076E+02  0.59655224076E+02  0.00000000000E+00 0. -1.
         -1   -1    0    0    0  501 -0.00000000000E+00 -0.00000000000E+00 -0.66933407487E+03  0.66933407487E+03  0.00000000000E+00 0.  1.
         23    2    1    2    0    0 -0.14845952070E+03 -0.72314113704E+02 -0.24911726151E+03  0.31314855792E+03  0.93450783929E+02 0.  0.
          5    1    1    2  502    0 -0.20096795555E+01  0.18926947500E+02 -0.15152248254E+03  0.15277042669E+03  0.41800000000E+01 0.  1.
         -5    1    1    2    0  502  0.15046920026E+03  0.53387166204E+02 -0.20903910674E+03  0.26307031434E+03  0.41800000000E+01 0.  1.
        -11    1    3    3    0    0 -0.11710345998E+03 -0.74054058390E+02 -0.13011185489E+03  0.19006924708E+03  0.00000000000E+00 0. -1.
         11    1    3    3    0    0 -0.31356060718E+02  0.17399446869E+01 -0.11900540661E+03  0.12307931083E+03  0.00000000000E+00 0.  1.
</event>
<event>
 7    1  0.6145388E-006  0.2075874E+03  0.7561462E-02  0.1143491E+00
         -2   -1    0    0    0  501 -0.00000000000E+00  0.00000000000E+00  0.16131540440E+03  0.16131540440E+03  0.00000000000E+00 0.  1.
          2   -1    0    0  501    0  0.00000000000E+00 -0.00000000000E+00 -0.33379130116E+03  0.33379130116E+03  0.00000000000E+00 0. -1.
         23    2    1    2    0    0 -0.17895918144E+03  0.84287260530E+02 -0.13998050232E+03  0.25881327159E+03  0.90879247417E+02 0.  0.
          5    1    1    2  502    0 -0.29261266821E+00 -0.22497809076E+02  0.28983269836E+02  0.36928841923E+02  0.41800000000E+01 0.  1.
         -5    1    1    2    0  502  0.17925179411E+03 -0.61789451454E+02 -0.61478664276E+02  0.19936459205E+03  0.41800000000E+01 0.  1.
        -11    1    3    3    0    0 -0.46703740706E+02  0.44552725424E+02 -0.34774577894E+01  0.64639596621E+02  0.00000000000E+00 0.  1.
         11    1    3    3    0    0 -0.13225544073E+03  0.39734535106E+02 -0.13650304453E+03  0.19417367497E+03  0.00000000000E+00 0. -1.
</event>
<event>
 7    1  0.6145388E-006  0.1130498E+03  0.7561462E-02  0.1255024E+00
         -2   -1    0    0    0  501 -0.00000000000E+00  0.00000000000E+00  0.35924402977E+03  0.35924402977E+03  0.00000000000E+00 0.  1.
          2   -1    0    0  501    0  0.00000000000E+00 -0.00000000000E+00 -0.58440066374E+02  0.58440066374E+02  0.00000000000E+00 0. -1.
         23    2    1    2    0    0  0.80251831350E-01 -0.93832131179E+02  0.11849525271E+03  0.17749953493E+03  0.93061725242E+02 0.  0.
          5    1    1    2  502    0  0.46217055919E+01  0.72215467796E+02  0.19923974936E+03  0.21201505625E+03  0.41800000000E+01 0. -1.
         -5    1    1    2    0  502 -0.47019574232E+01  0.21616663383E+02 -0.16931038670E+02  0.28169504963E+02  0.41800000000E+01 0. -1.
        -11    1    3    3    0    0  0.20756012346E+02  0.11521240959E+02  0.30713364056E+02  0.38818317498E+02  0.00000000000E+00 0.  1.
         11    1    3    3    0    0 -0.20675760515E+02 -0.10535337214E+03  0.87781888651E+02  0.13868121743E+03  0.00000000000E+00 0. -1.
</event>
<event>
 7    1  0.6145388E-006  0.4779574E+02  0.7561462E-02  0.1457607E+00
          2   -1    0    0  501    0  0.00000000000E+00  0.00000000000E+00  0.30190377758E+03  0.30190377758E+03  0.00000000000E+00 0. -1.
         -2   -1    0    0    0  501 -0.00000000000E+00 -0.00000000000E+00 -0.44222784569E+02  0.44222784569E+02  0.00000000000E+00 0.  1.
         23    2    1    2    0    0 -0.23375021984E+02  0.12099241015E+02  0.16588621474E+03  0.18875306679E+03  0.86120268803E+02 0.  0.
          5    1    1    2  502    0  0.27606341688E+02 -0.15016733608E+02  0.12220484606E+03  0.12625018492E+03  0.41800000000E+01 0. -1.
         -5    1    1    2    0  502 -0.42313197047E+01  0.29174925929E+01 -0.30410067792E+02  0.31123310437E+02  0.41800000000E+01 0. -1.
        -11    1    3    3    0    0 -0.14205884980E+02 -0.19632825729E+02  0.53013442516E+01  0.24806435960E+02  0.00000000000E+00 0.  1.
         11    1    3    3    0    0 -0.91691370039E+01  0.31732066744E+02  0.16058487048E+03  0.16394663083E+03  0.00000000000E+00 0. -1.
</event>
<event>
 7    1  0.6145388E-006  0.1365643E+03  0.7561462E-02  0.1218028E+00
         -3   -1    0    0    0  501 -0.00000000000E+00  0.00000000000E+00  0.10777688793E+04  0.10777688793E+04  0.00000000000E+00 0.  1.
          3   -1    0    0  501    0  0.00000000000E+00 -0.00000000000E+00 -0.25350160620E+02  0.25350160620E+02  0.00000000000E+00 0. -1.
         23    2    1    2    0    0  0.93299387368E+02 -0.55602424342E+02  0.29402593981E+03  0.32684271513E+03  0.92620202306E+02 0.  0.
          5    1    1    2  502    0 -0.11443202650E+03  0.38661311023E+02  0.42764860793E+03  0.44439868354E+03  0.41800000000E+01 0.  1.
         -5    1    1    2    0  502  0.21132639136E+02  0.16941113320E+02  0.33074417089E+03  0.33187764121E+03  0.41800000000E+01 0.  1.
        -11    1    3    3    0    0  0.39857699545E+02  0.91621802653E+01  0.32714116525E+02  0.52371702095E+02  0.00000000000E+00 0. -1.
         11    1    3    3    0    0  0.53441687823E+02 -0.64764604608E+02  0.26131182328E+03  0.27447101303E+03  0.00000000000E+00 0.  1.
</event>
<event>
 7    1  0.6145388E-006  0.9049206E+02  0.7561462E-02  0.1301664E+00
         -1   -1    0    0    0  501 -0.00000000000E+00  0.00000000000E+00  0.27715094747E+02  0.27715094747E+02  0.00000000000E+00 0.  1.
          1   -1    0    0  501    0  0.00000000000E+00 -0.00000000000E+00 -0.49649763669E+03  0.49649763669E+03  0.00000000000E+00 0. -1.
         23    2    1    2    0    0  0.22032841065E+02 -0.23150795166E+02 -0.27379193506E+03  0.29035170644E+03  0.91217785119E+02 0.  0.
          5    1    1    2  502    0 -0.46346283850E+01  0.61753321712E+02 -0.17717773810E+03  0.18773485505E+03  0.41800000000E+01 0. -1.
         -5    1    1    2    0  502 -0.17398212680E+02 -0.38602526546E+02 -0.17812868781E+02  0.46126169952E+02  0.41800000000E+01 0. -1.
        -11    1    3    3    0    0  0.13879099209E+02  0.24428218851E+02 -0.27290433367E+02  0.39168035749E+02  0.00000000000E+00 0. -1.
         11    1    3    3    0    0  0.81537418565E+01 -0.47579014017E+02 -0.24650150170E+03  0.25118367069E+03  0.00000000000E+00 0.  1.
</event>
<event>
 7    1  0.6145388E-006  0.9780069E+02  0.7561462E-02  0.1284990E+00
          1   -1    0    0  501    0  0.00000000000E+00  0.00000000000E+00  0.25936393323E+02  0.25936393323E+02  0.00000000000E+00 0. -1.
         -1   -1    0    0    0  501 -0.00000000000E+00 -0.00000000000E+00 -0.72277902247E+03  0.72277902247E+03  0.00000000000E+00 0.  1.
         23    2    1    2    0    0  0.83135379292E+02  0.19748535777E+01 -0.29133691068E+03  0.31628344728E+03  0.90788942933E+02 0.  0.
          5    1    1    2  502    0 -0.14510319558E+02  0.82258976258E+01 -0.32750814667E+03  0.32795925555E+03  0.41800000000E+01 0. -1.
         -5    1    1    2    0  502 -0.68625059734E+02 -0.10200751203E+02 -0.77997571797E+02  0.10447271297E+03  0.41800000000E+01 0. -1.
        -11    1    3    3    0    0  0.38614230799E+02  0.36057417659E+02 -0.21602665583E+03  0.22239314787E+03  0.00000000000E+00 0.  1.
         11    1    3    3    0    0  0.44521148493E+02 -0.34082564081E+02 -0.75310254846E+02  0.93890299406E+02  0.00000000000E+00 0. -1.
</event>
<event>
 7    1  0.6145388E-006  0.1009873E+03  0.7561462E-02  0.1278233E+00
         -1   -1    0    0    0  501 -0.00000000000E+00  0.00000000000E+00  0.28825707121E+03  0.28825707121E+03  0.00000000000E+00 0.  1.
          1   -1    0    0  501    0  0.00000000000E+00 -0.00000000000E+00 -0.67353144470E+02  0.67353144470E+02  0.00000000000E+00 0. -1.
         23    2    1    2    0    0 -0.22134481915E+02 -0.61234848741E+02  0.26660696792E+02  0.11557297455E+03  0.91687936522E+02 0.  0.
          5    1    1    2  502    0 -0.24742568750E+02 -0.25206675235E+02  0.22487890916E+02  0.42080266427E+02  0.41800000000E+01 0.  1.
         -5    1    1    2    0  502  0.46877050665E+02  0.86441523976E+02  0.17175533903E+03  0.19795697470E+03  0.41800000000E+01 0.  1.
        -11    1    3    3    0    0 -0.14308899002E+02 -0.13701650850E+02  0.55841089728E+02  0.59251220482E+02  0.00000000000E+00 0.  1.
         11    1    3    3    0    0 -0.78255829135E+01 -0.47533197892E+02 -0.29180392936E+02  0.56321754071E+02  0.00000000000E+00 0. -1.
</event>
<event>
 7    1  0.6145388E-006  0.8555588E+02  0.7561462E-02  0.1313985E+00
         -1   -1    0    0    0  501 -0.00000000000E+00  0.00000000000E+00  0.32591700223E+03  0.32591700223E+03  0.00000000000E+00 0.  1.
          1   -1    0    0  501    0  0.00000000000E+00 -0.00000000000E+00 -0.74540706193E+02  0.74540706193E+02  0.00000000000E+00 0. -1.
         23    2    1    2    0    0  0.61368927402E+02 -0.51435469734E+02  0.15952959891E+02  0.12210071719E+03  0.90787308656E+02 0.  0.
          5    1    1    2  502    0 -0.25749079415E+02  0.47990641452E+02  0.23608506951E+03  0.24232158220E+03  0.41800000000E+01 0. -1.
         -5    1    1    2    0  502 -0.35619847987E+02  0.34448282815E+01 -0.66173336061E+00  0.36035409024E+02  0.41800000000E+01 0. -1.
        -11    1    3    3    0    0  0.18488443884E+02 -0.20370069953E+02  0.51456848502E+02  0.58348689487E+02  0.00000000000E+00 0.  1.
         11    1    3    3    0    0  0.42880483518E+02 -0.31065399781E+02 -0.35503888611E+02  0.63752027707E+02  0.00000000000E+00 0. -1.
</event>
<event>
 7    1  0.6145388E-006  0.1353859E+03  0.7561462E-02  0.1219676E+00
         -1   -1    0    0    0  501 -0.00000000000E+00  0.00000000000E+00  0.11106140992E+04  0.11106140992E+04  0.00000000000E+00 0.  1.
          1   -1    0    0  501    0  0.00000000000E+00 -0.00000000000E+00 -0.29910367403E+02  0.29910367403E+02  0.00000000000E+00 0. -1.
         23    2    1    2    0    0  0.28276493175E+02 -0.96655057242E+02  0.18146080188E+03  0.22705430899E+03  0.92107960880E+02 0.  0.
          5    1    1    2  502    0 -0.43301446658E+02  0.11607334388E+03  0.57182079678E+03  0.58510215559E+03  0.41800000000E+01 0.  1.
         -5    1    1    2    0  502  0.15024953483E+02 -0.19418286637E+02  0.32742213313E+03  0.32836800201E+03  0.41800000000E+01 0.  1.
        -11    1    3    3    0    0  0.51235754535E+02 -0.69591975335E+02  0.73625801292E+02  0.11352930983E+03  0.00000000000E+00 0. -1.
         11    1    3    3    0    0 -0.22959261360E+02 -0.27063081907E+02  0.10783500058E+03  0.11352499917E+03  0.00000000000E+00 0.  1.
</event>
<event>
 7    1  0.6145388E-006  0.1075161E+03  0.7561462E-02  0.1265240E+00
          1   -1    0    0  501    0  0.00000000000E+00  0.00000000000E+00  0.10763577090E+03  0.10763577090E+03  0.00000000000E+00 0. -1.
         -1   -1    0    0    0  501 -0.00000000000E+00 -0.00000000000E+00 -0.19736379956E+03  0.19736379956E+03  0.00000000000E+00 0.  1.
         23    2    1    2    0    0  0.47454306678E+02 -0.79576329778E+02 -0.22682169464E+02  0.13550971115E+03  0.96250181926E+02 0.  0.
          5    1    1    2  502    0  0.17801690858E+01 -0.11811363368E+02 -0.64331072915E+02  0.65563988965E+02  0.41800000000E+01 0. -1.
         -5    1    1    2    0  502 -0.49234475764E+02  0.91387693146E+02 -0.27147862825E+01  0.10392587034E+03  0.41800000000E+01 0. -1.
        -11    1    3    3    0    0  0.44669784355E+02 -0.43659834395E+02 -0.57871279657E+02  0.85150782632E+02  0.00000000000E+00 0.  1.
         11    1    3    3    0    0  0.27845223235E+01 -0.35916495383E+02  0.35189110193E+02  0.50358928517E+02  0.00000000000E+00 0. -1.
</event>
<event>
 7    1  0.6145388E-006  0.1477810E+03  0.7561462E-02  0.1203226E+00
         -2   -1    0    0    0  501 -0.00000000000E+00  0.00000000000E+00  0.51698589668E+02  0.51698589668E+02  0.00000000000E+00 0. -1.
          2   -1    0    0  501    0  0.00000000000E+00 -0.00000000000E+00 -0.48467583506E+03  0.48467583506E+03  0.00000000000E+00 0.  1.
         23    2    1    2    0    0 -0.36161074786E+02  0.10433137098E+03 -0.26192740214E+03  0.29742424314E+03  0.87536038929E+02 0.  0.
          5    1    1    2  502    0 -0.35079187760E+02 -0.85207796297E+02 -0.10598352292E+03  0.14050230423E+03  0.41800000000E+01 0.  1.
         -5    1    1    2    0  502  0.71240262546E+02 -0.19123574679E+02 -0.65066320334E+02  0.98447877366E+02  0.41800000000E+01 0.  1.
        -11    1    3    3    0    0  0.16684779621E+02  0.58581847600E+01 -0.68949819284E+01  0.18980015160E+02  0.00000000000E+00 0. -1.
         11    1    3    3    0    0 -0.52845854407E+02  0.98473186215E+02 -0.25503242022E+03  0.27844422797E+03  0.00000000000E+00 0.  1.
</event>
<event>
 7    1  0.6145388E-006  0.1145854E+03  0.7561462E-02  0.1252307E+00
          2   -1    0    0  501    0  0.00000000000E+00  0.00000000000E+00  0.52239088200E+03  0.52239088200E+03  0.00000000000E+00 0.  1.
         -2   -1    0    0    0  501 -0.00000000000E+00 -0.00000000000E+00 -0.33477919945E+02  0.33477919945E+02  0.00000000000E+00 0. -1.
         23    2    1    2    0    0  0.35123694436E+02  0.64155119080E+02  0.27335072515E+03  0.29613119199E+03  0.87312717959E+02 0.  0.
          5    1    1    2  502    0  0.21144513142E+02  0.14133447751E+02  0.25683148333E+01  0.25901996495E+02  0.41800000000E+01 0. -1.
         -5    1    1    2    0  502 -0.56268207578E+02 -0.78288566831E+02  0.21299392207E+03  0.23383561345E+03  0.41800000000E+01 0. -1.
        -11    1    3    3    0    0  0.48598445096E+02  0.81329736128E+01  0.76288881701E+02  0.90818211812E+02  0.00000000000E+00 0. -1.
         11    1    3    3    0    0 -0.13474750660E+02  0.56022145467E+02  0.19706184345E+03  0.20531298018E+03  0.00000000000E+00 0.  1.
</event>
<event>
 7    1  0.6145388E-006  0.1438293E+03  0.7561462E-02  0.1208267E+00
          2   -1    0    0  501    0  0.00000000000E+00  0.00000000000E+00  0.43803231614E+03  0.43803231614E+03  0.00000000000E+00 0. -1.
         -2   -1    0    0    0  501 -0.00000000000E+00 -0.00000000000E+00 -0.63958005672E+02  0.63958005672E+02  0.00000000000E+00 0.  1.
         23    2    1    2    0    0  0.87317707531E+02 -0.50393773744E+02  0.29110039393E+03  0.32116915146E+03  0.90808975454E+02 0.  0.
          5    1    1    2  502    0  0.27868688305E+02 -0.10543728498E+02  0.12164566596E+02  0.32454322963E+02  0.41800000000E+01 0. -1.
         -5    1    1    2    0  502 -0.11518639584E+03  0.60937502242E+02  0.70809349945E+02  0.14836684739E+03  0.41800000000E+01 0. -1.
        -11    1    3    3    0    0  0.14077974345E+02  0.20757108740E+02  0.22055444122E+02  0.33398945197E+02  0.00000000000E+00 0.  1.
         11    1    3    3    0    0  0.73239733186E+02 -0.71150882484E+02  0.26904494981E+03  0.28777020626E+03  0.00000000000E+00 0. -1.
</event>
<event>
 7    1  0.6145388E-006  0.2516661E+03  0.7561462E-02  0.1112256E+00
         -2   -1    0    0    0  501 -0.00000000000E+00  0.00000000000E+00  0.12902871232E+03  0.12902871232E+03  0.00000000000E+00 0.  1.
          2   -1    0    0  501    0  0.00000000000E+00 -0.00000000000E+00 -0.55907327090E+03  0.55907327090E+03  0.00000000000E+00 0. -1.
         23    2    1    2    0    0 -0.17432819544E+03  0.17080042993E+03 -0.24013028094E+03  0.35451672948E+03  0.91958974926E+02 0.  0.
          5    1    1    2  502    0  0.67245516678E+02 -0.12316818588E+03 -0.15939347708E+03  0.21240554245E+03  0.41800000000E+01 0. -1.
         -5    1    1    2    0  502  0.10708267876E+03 -0.47632244053E+02 -0.30520800558E+02  0.12117971130E+03  0.41800000000E+01 0. -1.
        -11    1    3    3    0    0 -0.13318053755E+03  0.14602328921E+03 -0.23368728439E+03  0.30605490268E+03  0.00000000000E+00 0. -1.
         11    1    3    3    0    0 -0.41147657886E+02  0.24777140724E+02 -0.64429965535E+01  0.48461826798E+02  0.00000000000E+00 0.  1.
</event>
<event>
 7    1  0.6145388E-006  0.1267146E+03  0.7561462E-02  0.1232414E+00
          2   -1    0    0  501    0  0.00000000000E+00  0.00000000000E+00  0.20416220979E+03  0.20416220979E+03  0.00000000000E+00 0. -1.
         -2   -1    0    0    0  501 -0.00000000000E+00 -0.00000000000E+00 -0.10690593264E+03  0.10690593264E+03  0.00000000000E+00 0.  1.
         23    2    1    2    0    0 -0.15319195530E+02 -0.82646803371E+02  0.79868914858E+02  0.15935791121E+03  0.10931938733E+03 0.  0.
          5    1    1    2  502    0 -0.31694297420E+02  0.94722891307E+02 -0.26936237978E-01  0.99972134878E+02  0.41800000000E+01 0. -1.
         -5    1    1    2    0  502  0.47013492950E+02 -0.12076087937E+02  0.17414298529E+02  0.51738096335E+02  0.41800000000E+01 0. -1.
        -11    1    3    3    0    0  0.19939193253E+02 -0.59014818515E+02  0.95589203327E+02  0.11409476774E+03  0.00000000000E+00 0. -1.
         11    1    3    3    0    0 -0.35258388782E+02 -0.23631984855E+02 -0.15720288469E+02  0.45263143475E+02  0.00000000000E+00 0.  1.
</event>
<event>
 7    1  0.6145388E-006  0.1101215E+03  0.7561462E-02  0.1260345E+00
          1   -1    0    0  501    0  0.00000000000E+00  0.00000000000E+00  0.26689725419E+03  0.26689725419E+03  0.00000000000E+00 0. -1.
         -1   -1    0    0    0  501 -0.00000000000E+00 -0.00000000000E+00 -0.77866999282E+02  0.77866999282E+02  0.00000000000E+00 0.  1.
         23    2    1    2    0    0 -0.84485620144E+02  0.32364585851E+02  0.12768078960E+03  0.17864021657E+03  0.86166446565E+02 0.  0.
          5    1    1    2  502    0  0.91337583840E+02 -0.23017004425E+01  0.86672714622E+02  0.12600588838E+03  0.41800000000E+01 0.  1.
         -5    1    1    2    0  502 -0.68519636963E+01 -0.30062885408E+02 -0.25323249312E+02  0.40118148527E+02  0.41800000000E+01 0.  1.
        -11    1    3    3    0    0 -0.10458305765E+02 -0.81656466723E+01 -0.10366836344E+02  0.16838207767E+02  0.00000000000E+00 0.  1.
         11    1    3    3    0    0 -0.74027314379E+02  0.40530232523E+02  0.13804762595E+03  0.16180200880E+03  0.00000000000E+00 0. -1.
</event>
<event>
 7    1  0.6145388E-006  0.1493725E+03  0.7561462E-02  0.1201246E+00
         -2   -1    0    0    0  501 -0.00000000000E+00  0.00000000000E+00  0.64122976345E+02  0.64122976345E+02  0.00000000000E+00 0.  1.
          2   -1    0    0  501    0  0.00000000000E+00 -0.00000000000E+00 -0.59521341229E+03  0.59521341229E+03  0.00000000000E+00 0. -1.
         23    2    1    2    0    0 -0.18981032191E+02 -0.13442458284E+03 -0.40268008493E+03  0.43446744391E+03  0.90445900766E+02 0.  0.
          5    1    1    2  502    0 -0.96559042426E+01  0.31191210865E+02  0.22411645650E+02  0.39823138785E+02  0.41800000000E+01 0.  1.
         -5    1    1    2    0  502  0.28636936433E+02  0.10323337197E+03 -0.15082199667E+03  0.18504580594E+03  0.41800000000E+01 0.  1.
        -11    1    3    3    0    0 -0.50391916107E+02 -0.63657731490E+02 -0.25659455692E+03  0.26913271564E+03  0.00000000000E+00 0.  1.
         11    1    3    3    0    0  0.31410883916E+02 -0.70766851347E+02 -0.14608552800E+03  0.16533472826E+03  0.00000000000E+00 0. -1.
</event>
<event>
 7    1  0.6145388E-006  0.1096285E+03  0.7561462E-02  0.1261259E+00
         -1   -1    0    0    0  501 -0.00000000000E+00  0.00000000000E+00  0.67596966322E+02  0.67596966322E+02  0.00000000000E+00 0.  1.
          1   -1    0    0  501    0  0.00000000000E+00 -0.00000000000E+00 -0.20895176385E+03  0.20895176385E+03  0.00000000000E+00 0. -1.
         23    2    1    2    0    0 -0.15949710193E+02  0.48577665143E+02 -0.72296334433E+02  0.12479038319E+03  0.87930068561E+02 0.  0.
          5    1    1    2  502    0 -0.43522662817E+02 -0.39545405158E+02 -0.69914901664E+02  0.91452868311E+02  0.41800000000E+01 0. -1.
         -5    1    1    2    0  502  0.59472373009E+02 -0.90322599849E+01  0.85643856431E+00  0.60305478680E+02  0.41800000000E+01 0. -1.
        -11    1    3    3    0    0 -0.10895125460E+02 -0.24467788611E+02 -0.97843815742E+01  0.28515093566E+02  0.00000000000E+00 0.  1.
         11    1    3    3    0    0 -0.50545847330E+01  0.73045453754E+02 -0.62511952859E+02  0.96275289619E+02  0.00000000000E+00 0. -1.
</event>
<event>
 7    1  0.6145388E-006  0.8495825E+02  0.7561462E-02  0.1315542E+00
          1   -1    0    0  501    0  0.00000000000E+00  0.00000000000E+00  0.68248904961E+03  0.68248904961E+03  0.00000000000E+00 0. -1.
         -1   -1    0    0    0  501 -0.00000000000E+00 -0.00000000000E+00 -0.26801253193E+02  0.26801253193E+02  0.00000000000E+00 0.  1.
         23    2    1    2    0    0  0.14061132524E+02  0.56805428032E+02  0.43035997190E+03  0.44500981410E+03  0.96950797460E+02 0.  0.
          5    1    1    2  502    0  0.25384999303E+01  0.31299422484E+01 -0.14956002662E+02  0.16043532528E+02  0.41800000000E+01 0.  1.
         -5    1    1    2    0  502 -0.16599632454E+02 -0.59935370281E+02  0.24028382717E+03  0.24823695617E+03  0.41800000000E+01 0.  1.
        -11    1    3    3    0    0 -0.31448649339E+02  0.34301745429E+01  0.57674216492E+02  0.65780687824E+02  0.00000000000E+00 0.  1.
         11    1    3    3    0    0  0.45509781863E+02  0.53375253490E+02  0.37268575541E+03  0.37922912628E+03  0.00000000000E+00 0. -1.
</event>
<event>
 7    1  0.6145388E-006  0.7692261E+02  0.7561462E-02  0.1338019E+00
          2   -1    0    0  501    0  0.00000000000E+00  0.00000000000E+00  0.29514294237E+03  0.29514294237E+03  0.00000000000E+00 0.  1.
         -2   -1    0    0    0  501 -0.00000000000E+00 -0.00000000000E+00 -0.71739321871E+02  0.71739321871E+02  0.00000000000E+00 0. -1.
         23    2    1    2    0    0  0.42772743477E+02  0.48566676465E+02  0.19213486712E+03  0.22261415897E+03  0.91940344607E+02 0.  0.
          5    1    1    2  502    0 -0.17205212592E+02 -0.28043569195E+02 -0.48023932913E+02  0.58362930409E+02  0.41800000000E+01 0.  1.
         -5    1    1    2    0  502 -0.25567530885E+02 -0.20523107269E+02  0.79292686297E+02  0.85905174860E+02  0.41800000000E+01 0.  1.
        -11    1    3    3    0    0 -0.14077485240E+02  0.21587863984E+01 -0.26292451406E+01  0.14482709671E+02  0.00000000000E+00 0. -1.
         11    1    3    3    0    0  0.56850228717E+02  0.46407890066E+02  0.19476411226E+03  0.20813144930E+03  0.00000000000E+00 0.  1.
</event>
<event>
 7    1  0.6145388E-006  0.7525951E+02  0.7561462E-02  0.1343069E+00
          2   -1    0    0  501    0  0.00000000000E+00  0.00000000000E+00  0.38652367589E+03  0.38652367589E+03  0.00000000000E+00 0. -1.
         -2   -1    0    0    0  501 -0.00000000000E+00 -0.00000000000E+00 -0.36173073501E+02  0.36173073501E+02  0.00000000000E+00 0.  1.
         23    2    1    2    0    0  0.31972780591E+02  0.23337620544E+02  0.19894817488E+03  0.22235747008E+03  0.91079992215E+02 0.  0.
          5    1    1    2  502    0 -0.30224519687E+02  0.15541701780E+02  0.15709627467E+03  0.16078488112E+03  0.41800000000E+01 0.  1.
         -5    1    1    2    0  502 -0.17482609048E+01 -0.38879322324E+02 -0.56938471538E+01  0.39554398187E+02  0.41800000000E+01 0.  1.
        -11    1    3    3    0    0 -0.34295351066E+01  0.38477803805E+02  0.29544540153E+02  0.48633146613E+02  0.00000000000E+00 0.  1.
         11    1    3    3    0    0  0.35402315698E+02 -0.15140183261E+02  0.16940363472E+03  0.17372432347E+03  0.00000000000E+00 0. -1.
</event>
<event>
 7    1  0.6145388E-006  0.8867015E+02  0.7561462E-02  0.1306104E+00
         -1   -1    0    0    0  501 -0.00000000000E+00  0.00000000000E+00  0.12945048746E+02  0.12945048746E+02  0.00000000000E+00 0.  1.
          1   -1    0    0  501    0  0.00000000000E+00 -0.00000000000E+00 -0.10334644044E+04  0.10334644044E+04  0.00000000000E+00 0. -1.
         23    2    1    2    0    0  0.34984720227E+02 -0.17984362520E+02 -0.44085293461E+03  0.45209577041E+03  0.92151547551E+02 0.  0.
          5    1    1    2  502    0  0.89893339487E+01  0.29829976373E+02 -0.51005971992E+03  0.51102742186E+03  0.41800000000E+01 0. -1.
         -5    1    1    2    0  502 -0.43974054175E+02 -0.11845613853E+02 -0.69606701074E+02  0.83286260827E+02  0.41800000000E+01 0. -1.
        -11    1    3    3    0    0  0.14680328628E+02 -0.55557697755E+02 -0.25768038804E+03  0.26401013657E+03  0.00000000000E+00 0.  1.
         11    1    3    3    0    0  0.20304391598E+02  0.37573335235E+02 -0.18317254657E+03  0.18808563384E+03  0.00000000000E+00 0. -1.
</event>
<event>
 7    1  0.6145388E-006  0.1004719E+03  0.7561462E-02  0.1279307E+00
         -1   -1    0    0    0  501 -0.00000000000E+00  0.00000000000E+00  0.23761054113E+03  0.23761054113E+03  0.00000000000E+00 0.  1.
          1   -1    0    0  501    0  0.00000000000E+00 -0.00000000000E+00 -0.81140176080E+02  0.81140176080E+02  0.00000000000E+00 0. -1.
         23    2    1    2    0    0 -0.71697278585E+02 -0.47837566560E+02  0.57894947138E+02  0.13766731931E+03  0.90396534069E+02 0.  0.
          5    1    1    2  502    0  0.33636775600E+02 -0.52542947563E+01 -0.24179520423E+02  0.41966199423E+02  0.41800000000E+01 0.  1.
         -5    1    1    2    0  502  0.38060502985E+02  0.53091861316E+02  0.12275493834E+03  0.13911719847E+03  0.41800000000E+01 0.  1.
        -11    1    3    3    0    0 -0.76128743717E+02 -0.28407990660E+02  0.75617575661E+02  0.11099827612E+03  0.00000000000E+00 0.  1.
         11    1    3    3    0    0  0.44314651328E+01 -0.19429575900E+02 -0.17722628523E+02  0.26669043190E+02  0.00000000000E+00 0. -1.
</event>
<event>
 7    1  0.6145388E-006  0.9758156E+02  0.7561462E-02  0.1285465E+00
         -1   -1    0    0    0  501 -0.00000000000E+00  0.00000000000E+00  0.47885784872E+02  0.47885784872E+02  0.00000000000E+00 0.  1.
          1   -1    0    0  501    0  0.00000000000E+00 -0.00000000000E+00 -0.43427830490E+03  0.43427830490E+03  0.00000000000E+00 0. -1.
         23    2    1    2    0    0  0.42181412975E+02 -0.60649245523E+02 -0.27629979097E+03  0.29988795624E+03  0.90186524614E+02 0.  0.
          5    1    1    2  502    0 -0.56962189995E+02  0.18064265783E+02  0.34885278834E+01  0.60005424873E+02  0.41800000000E+01 0.  1.
         -5    1    1    2    0  502  0.14780777020E+02  0.42584979740E+02 -0.11358125694E+03  0.12227070866E+03  0.41800000000E+01 0.  1.
        -11    1    3    3    0    0  0.40273432002E+02 -0.13026635247E+02 -0.22849878596E+03  0.23238618233E+03  0.00000000000E+00 0. -1.
         11    1    3    3    0    0  0.19079809730E+01 -0.47622610276E+02 -0.47801005010E+02  0.67501773908E+02  0.00000000000E+00 0.  1.
</event>
<event>
 7    1  0.6145388E-006  0.3194573E+03  0.7561462E-02  0.1075899E+00
         -2   -1    0    0    0  501 -0.00000000000E+00  0.00000000000E+00  0.17442731333E+03  0.17442731333E+03  0.00000000000E+00 0.  1.
          2   -1    0    0  501    0  0.00000000000E+00 -0.00000000000E+00 -0.62614864160E+03  0.62614864160E+03  0.00000000000E+00 0. -1.
         23    2    1    2    0    0 -0.58822982999E+02  0.30165746133E+03 -0.28590866585E+03  0.42963272480E+03  0.91559520005E+02 0.  0.
          5    1    1    2  502    0  0.74218490867E+02 -0.10451194860E+03 -0.32136457348E+02  0.13221707937E+03  0.41800000000E+01 0. -1.
         -5    1    1    2    0  502 -0.15395507868E+02 -0.19714551273E+03 -0.13367620508E+03  0.23872615076E+03  0.41800000000E+01 0. -1.
        -11    1    3    3    0    0  0.11754762280E+02  0.58999484889E+02 -0.21517906693E+02  0.63891579741E+02  0.00000000000E+00 0.  1.
         11    1    3    3    0    0 -0.70577745279E+02  0.24265797645E+03 -0.26439075916E+03  0.36574114506E+03  0.00000000000E+00 0. -1.
</event>
<event>
 7    1  0.6145388E-006  0.1721065E+03  0.7561462E-02  0.1175669E+00
         -3   -1    0    0    0  501 -0.00000000000E+00  0.00000000000E+00  0.92278647139E+03  0.92278647139E+03  0.00000000000E+00 0.  1.
          3   -1    0    0  501    0  0.00000000000E+00 -0.00000000000E+00 -0.42393791666E+02  0.42393791666E+02  0.00000000000E+00 0. -1.
         23    2    1    2    0    0  0.74303205310E+02 -0.14469587838E+03  0.46979799603E+03  0.50616691793E+03  0.95062759235E+02 0.  0.
          5    1    1    2  502    0 -0.24555920426E+02  0.53632405190E+02  0.33679162258E+02  0.68052821285E+02  0.41800000000E+01 0.  1.
         -5    1    1    2    0  502 -0.49747284884E+02  0.91063473190E+02  0.37691552144E+03  0.39096052384E+03  0.41800000000E+01 0.  1.
        -11    1    3    3    0    0  0.13196366428E+02 -0.11033888010E+03  0.35160498986E+03  0.36874772060E+03  0.00000000000E+00 0.  1.
         11    1    3    3    0    0  0.61106838882E+02 -0.34356998277E+02  0.11819300617E+03  0.13741919733E+03  0.00000000000E+00 0. -1.
</event>
<event>
 7    1  0.6145388E-006  0.8888476E+02  0.7561462E-02  0.1305575E+00
          1   -1    0    0  501    0  0.00000000000E+00  0.00000000000E+00  0.12756165536E+03  0.12756165536E+03  0.00000000000E+00 0. -1.
         -1   -1    0    0    0  501 -0.00000000000E+00 -0.00000000000E+00 -0.91407958492E+02  0.91407958492E+02  0.00000000000E+00 0.  1.
         23    2    1    2    0    0  0.79535445838E+01  0.20876161545E+01  0.39312294738E+02  0.93693541015E+02  0.84648721773E+02 0.  0.
          5    1    1    2  502    0 -0.16226943609E+02 -0.59728979429E+02 -0.18825604915E+02  0.64828546821E+02  0.41800000000E+01 0.  1.
         -5    1    1    2    0  502  0.82733990255E+01  0.57641363274E+02  0.15667007045E+02  0.60447526015E+02  0.41800000000E+01 0.  1.
        -11    1    3    3    0    0  0.31398233580E+02 -0.70674796845E+01  0.55223298723E+02  0.63917220394E+02  0.00000000000E+00 0. -1.
         11    1    3    3    0    0 -0.23444688996E+02  0.91550958390E+01 -0.15911003985E+02  0.29776320622E+02  0.00000000000E+00 0.  1.
</event>
<event>
 7    1  0.6145388E-006  0.1550015E+03  0.7561462E-02  0.1194458E+00
         -2   -1    0    0    0  501 -0.00000000000E+00  0.00000000000E+00  0.62597546064E+02  0.62597546064E+02  0.00000000000E+00 0. -1.
          2   -1    0    0  501    0  0.00000000000E+00 -0.00000000000E+00 -0.54378454671E+03  0.54378454671E+03  0.00000000000E+00 0.  1.
         23    2    1    2    0    0  0.11282803681E+03  0.80349170591E+02 -0.33472826221E+03  0.36914255412E+03  0.70972252585E+02 0.  0.
          5    1    1    2  502    0  0.89590828842E-01  0.19202751483E+02  0.82721821178E+01  0.21322642613E+02  0.41800000000E+01 0.  1.
         -5    1    1    2    0  502 -0.11291762763E+03 -0.99551922074E+02 -0.15473092055E+03  0.21591689604E+03  0.41800000000E+01 0.  1.
        -11    1    3    3    0    0  0.72449173851E+02  0.62199222699E+02 -0.14011687398E+03  0.16955932434E+03  0.00000000000E+00 0. -1.
         11    1    3    3    0    0  0.40378862955E+02  0.18149947891E+02 -0.19461138823E+03  0.19958322978E+03  0.00000000000E+00 0.  1.
</event>
<event>
 7    1  0.6145388E-006  0.1611059E+03  0.7561462E-02  0.1187454E+00
         -2   -1    0    0    0  501 -0.00000000000E+00  0.00000000000E+00  0.72663273407E+02  0.72663273407E+02  0.00000000000E+00 0.  1.
          2   -1    0    0  501    0  0.00000000000E+00 -0.00000000000E+00 -0.46019429600E+03  0.46019429600E+03  0.00000000000E+00 0. -1.
         23    2    1    2    0    0  0.13586991985E+03 -0.44398741104E+01 -0.25078792414E+03  0.30301827147E+03  0.10220147918E+03 0.  0.
          5    1    1    2  502    0 -0.55275210270E+02 -0.45580078938E+02 -0.10974693458E+03  0.13112877074E+03  0.41800000000E+01 0. -1.
         -5    1    1    2    0  502 -0.80594709583E+02  0.50019953048E+02 -0.26996163872E+02  0.98710527197E+02  0.41800000000E+01 0. -1.
        -11    1    3    3    0    0  0.81463215742E+02  0.34628550402E+02 -0.79037144114E+02  0.11866870763E+03  0.00000000000E+00 0.  1.
         11    1    3    3    0    0  0.54406704112E+02 -0.39068424512E+02 -0.17175078002E+03  0.18434956383E+03  0.00000000000E+00 0. -1.
</event>
<event>
 7    1  0.6145388E-006  0.1386130E+03  0.7561462E-02  0.1215208E+00
          1   -1    0    0  501    0  0.00000000000E+00  0.00000000000E+00  0.10452542432E+04  0.10452542432E+04  0.00000000000E+00 0. -1.
         -1   -1    0    0    0  501 -0.00000000000E+00 -0.00000000000E+00 -0.23628430500E+02  0.23628430500E+02  0.00000000000E+00 0.  1.
         23    2    1    2    0    0  0.50958033276E+02  0.97657181922E+02  0.38913643124E+03  0.41479990218E+03  0.92185413134E+02 0.  0.
          5    1    1    2  502    0 -0.47710172813E+02 -0.12265276984E+03  0.58990605360E+03  0.60442252359E+03  0.41800000000E+01 0. -1.
         -5    1    1    2    0  502 -0.32478604630E+01  0.24995587922E+02  0.42583327836E+02  0.49660247913E+02  0.41800000000E+01 0. -1.
        -11    1    3    3    0    0 -0.91968673843E+01  0.17685930810E+02  0.92895842452E+01  0.21992519040E+02  0.00000000000E+00 0.  1.
         11    1    3    3    0    0  0.60154900660E+02  0.79971251112E+02  0.37984684699E+03  0.39280738314E+03  0.00000000000E+00 0. -1.
</event>
<event>
 7    1  0.6145388E-006  0.1200725E+03  0.7561462E-02  0.1242978E+00
         -2   -1    0    0    0  501 -0.00000000000E+00  0.00000000000E+00  0.73929448072E+02  0.73929448072E+02  0.00000000000E+00 0.  1.
          2   -1    0    0  501    0  0.00000000000E+00 -0.00000000000E+00 -0.34645517156E+03  0.34645517156E+03  0.00000000000E+00 0. -1.
         23    2    1    2    0    0 -0.95076089551E+02  0.37931057444E+02 -0.20377190772E+03  0.24473476773E+03  0.88847556169E+02 0.  0.
          5    1    1    2  502    0  0.20002452234E+02  0.11932910887E+02  0.32390347290E+02  0.40113581929E+02  0.41800000000E+01 0. -1.
         -5    1    1    2    0  502  0.75073637317E+02 -0.49863968331E+02 -0.10114416306E+03  0.13553626997E+03  0.41800000000E+01 0. -1.
        -11    1    3    3    0    0 -0.11987168812E+02  0.41397929060E+02 -0.11635407142E+03  0.12407961429E+03  0.00000000000E+00 0. -1.
         11    1    3    3    0    0 -0.83088920739E+02 -0.34668716167E+01 -0.87417836304E+02  0.12065515344E+03  0.00000000000E+00 0.  1.
</event>
<event>
 7    1  0.6145388E-006  0.1083587E+03  0.7561462E-02  0.1263640E+00
         -1   -1    0    0    0  501 -0.00000000000E+00  0.00000000000E+00  0.63276488693E+02  0.63276488693E+02  0.00000000000E+00 0.  1.
          1   -1    0    0  501    0  0.00000000000E+00 -0.00000000000E+00 -0.32011346436E+03  0.32011346436E+03  0.00000000000E+00 0. -1.
         23    2    1    2    0    0 -0.33326400208E+00 -0.49772684457E+02 -0.22118378005E+03  0.24411968412E+03  0.90524717256E+02 0.  0.
          5    1    1    2  502    0 -0.53024689118E+02  0.44550553456E+02 -0.47655198567E+02  0.84171609345E+02  0.41800000000E+01 0. -1.
         -5    1    1    2    0  502  0.53357953120E+02  0.52221310008E+01  0.12002002954E+02  0.55098659586E+02  0.41800000000E+01 0. -1.
        -11    1    3    3    0    0  0.10833083192E+02  0.20082422521E+02 -0.18279373364E+02  0.29236875283E+02  0.00000000000E+00 0.  1.
         11    1    3    3    0    0 -0.11166347194E+02 -0.69855106978E+02 -0.20290440668E+03  0.21488280883E+03  0.00000000000E+00 0. -1.
</event>
<event>
 7    1  0.6145388E-006  0.1224237E+03  0.7561462E-02  0.1239151E+00
          1   -1    0    0  501    0  0.00000000000E+00  0.00000000000E+00  0.11228926622E+03  0.11228926622E+03  0.00000000000E+00 0. -1.
         -1   -1    0    0    0  501 -0.00000000000E+00 -0.00000000000E+00 -0.17628538556E+03  0.17628538556E+03  0.00000000000E+00 0.  1.
         23    2    1    2    0    0 -0.26178353877E+01  0.88996081053E+02 -0.20799109030E+02  0.12907281496E+03  0.91104517563E+02 0.  0.
          5    1    1    2  502    0 -0.33490365298E+02 -0.10043588331E+03 -0.58053648214E+01  0.10611383456E+03  0.41800000000E+01 0.  1.
         -5    1    1    2    0  502  0.36108200686E+02  0.11439802257E+02 -0.37391645491E+02  0.53388002257E+02  0.41800000000E+01 0.  1.
        -11    1    3    3    0    0 -0.19504962916E+02  0.78534565943E+02 -0.48983499304E+02  0.94591251341E+02  0.00000000000E+00 0.  1.
         11    1    3    3    0    0  0.16887127529E+02  0.10461515111E+02  0.28184390274E+02  0.34481563620E+02  0.00000000000E+00 0. -1.
</event>
<event>
 7    1  0.6145388E-006  0.1331912E+03  0.7561462E-02  0.1222796E+00
         -2   -1    0    0    0  501 -0.00000000000E+00  0.00000000000E+00  0.61547531721E+03  0.61547531721E+03  0.00000000000E+00 0. -1.
          2   -1    0    0  501    0  0.00000000000E+00 -0.00000000000E+00 -0.37306152149E+02  0.37306152149E+02  0.00000000000E+00 0.  1.
         23    2    1    2    0    0  0.10332945949E+03 -0.76771211410E+01  0.30720137865E+03  0.33685406946E+03  0.91444309178E+02 0.  0.
          5    1    1    2  502    0  0.29187405447E+02  0.13942047391E+01  0.55392763746E+02  0.62766863224E+02  0.41800000000E+01 0.  1.
         -5    1    1    2    0  502 -0.13251686494E+03  0.62829164019E+01  0.21557502267E+03  0.25316053668E+03  0.41800000000E+01 0.  1.
        -11    1    3    3    0    0  0.77962806383E+02 -0.12862840734E+01  0.29964690460E+03  0.30962577597E+03  0.00000000000E+00 0. -1.
         11    1    3    3    0    0  0.25366653109E+02 -0.63908370676E+01  0.75544740435E+01  0.27228293491E+02  0.00000000000E+00 0.  1.
</event>
<event>
 7    1  0.6145388E-006  0.1184021E+03  0.7561462E-02  0.1245757E+00
         -1   -1    0    0    0  501 -0.00000000000E+00  0.00000000000E+00  0.22501525705E+02  0.22501525705E+02  0.00000000000E+00 0.  1.
          1   -1    0    0  501    0  0.00000000000E+00 -0.00000000000E+00 -0.77655015276E+03  0.77655015276E+03  0.00000000000E+00 0. -1.
         23    2    1    2    0    0  0.36915502484E+02 -0.62728153943E+02 -0.27177430595E+03  0.29552961001E+03  0.90437278810E+02 0.  0.
          5    1    1    2  502    0 -0.11570214851E+02 -0.25834021994E+02 -0.27716129880E+03  0.27863439220E+03  0.41800000000E+01 0. -1.
         -5    1    1    2    0  502 -0.25345287633E+02  0.88562175936E+02 -0.20511302230E+03  0.22488767625E+03  0.41800000000E+01 0. -1.
        -11    1    3    3    0    0 -0.28336269663E+02 -0.48340621370E+01 -0.73045906715E+02  0.78498514782E+02  0.00000000000E+00 0. -1.
         11    1    3    3    0    0  0.65251772147E+02 -0.57894091806E+02 -0.19872839924E+03  0.21703109523E+03  0.00000000000E+00 0.  1.
</event>
<event>
 7    1  0.6145388E-006  0.9581247E+02  0.7561462E-02  0.1289357E+00
         -2   -1    0    0    0  501 -0.00000000000E+00  0.00000000000E+00  0.21468071475E+02  0.21468071475E+02  0.00000000000E+00 0.  1.
          2   -1    0    0  501    0  0.00000000000E+00 -0.00000000000E+00 -0.64916980518E+03  0.64916980518E+03  0.00000000000E+00 0. -1.
         23    2    1    2    0    0  0.39805307940E+02  0.18676213218E+02 -0.32874440898E+03  0.34359238957E+03  0.89719453051E+02 0.  0.
          5    1    1    2  502    0  0.24288246167E+02  0.14544005138E+02 -0.21212228039E+03  0.21404387687E+03  0.41800000000E+01 0.  1.
         -5    1    1    2    0  502 -0.64093554107E+02 -0.33220218357E+02 -0.86835044330E+02  0.11300161021E+03  0.41800000000E+01 0.  1.
        -11    1    3    3    0    0  0.14570138194E+02 -0.31402794983E+02 -0.20271777135E+03  0.20565242348E+03  0.00000000000E+00 0.  1.
         11    1    3    3    0    0  0.25235169746E+02  0.50079008202E+02 -0.12602663762E+03  0.13793996609E+03  0.00000000000E+00 0. -1.
</event>
<event>
 7    1  0.6145388E-006  0.2024063E+03  0.7561462E-02  0.1147725E+00
          2   -1    0    0  501    0  0.00000000000E+00  0.00000000000E+00  0.57582417946E+03  0.57582417946E+03  0.00000000000E+00 0. -1.
         -2   -1    0    0    0  501 -0.00000000000E+00 -0.00000000000E+00 -0.84917363312E+02  0.84917363312E+02  0.00000000000E+00 0.  1.
         23    2    1    2    0    0  0.89647860476E+01  0.17806278430E+03  0.34427124940E+03  0.39818457626E+03  0.90782933773E+02 0.  0.
          5    1    1    2  502    0  0.20579688285E+02 -0.17864165690E+03  0.96272326806E+02  0.20401519173E+03  0.41800000000E+01 0. -1.
         -5    1    1    2    0  502 -0.29544474333E+02  0.57887259534E+00  0.50363239946E+02  0.58541774785E+02  0.41800000000E+01 0. -1.
        -11    1    3    3    0    0 -0.34542997012E+02  0.98998389271E+02  0.22839151082E+03  0.25130973307E+03  0.00000000000E+00 0.  1.
         11    1    3    3    0    0  0.43507783060E+02  0.79064395032E+02  0.11587973858E+03  0.14687484319E+03  0.00000000000E+00 0. -1.
</event>
<event>
 7    1  0.6145388E-006  0.7027473E+02  0.7561462E-02  0.1359161E+00
          1   -1    0    0  501    0  0.00000000000E+00  0.00000000000E+00  0.23170373587E+02  0.23170373587E+02  0.00000000000E+00 0. -1.
         -1   -1    0    0    0  501 -0.00000000000E+00 -0.00000000000E+00 -0.55586733351E+03  0.55586733351E+03  0.00000000000E+00 0.  1.
         23    2    1    2    0    0  0.20440011530E+02 -0.95903972353E+01 -0.14425286608E+03  0.17032453487E+03  0.87702839283E+02 0.  0.
          5    1    1    2  502    0  0.12085896757E+02  0.32772084857E+02 -0.35417999838E+03  0.35592277547E+03  0.41800000000E+01 0.  1.
         -5    1    1    2    0  502 -0.32525908286E+02 -0.23181687622E+02 -0.34264095461E+02  0.52790396746E+02  0.41800000000E+01 0.  1.
        -11    1    3    3    0    0 -0.58222101749E+01  0.22788484075E+02 -0.11959921810E+03  0.12189005746E+03  0.00000000000E+00 0.  1.
         11    1    3    3    0    0  0.26262221704E+02 -0.32378881311E+02 -0.24653647978E+02  0.48434477415E+02  0.00000000000E+00 0. -1.
</event>
<event>
 7    1  0.6145388E-006  0.1201165E+03  0.7561462E-02  0.1242905E+00
         -1   -1    0    0    0  501 -0.00000000000E+00  0.00000000000E+00  0.84956947573E+02  0.84956947573E+02  0.00000000000E+00 0.  1.
          1   -1    0    0  501    0  0.00000000000E+00 -0.00000000000E+00 -0.25684341157E+03  0.25684341157E+03  0.00000000000E+00 0. -1.
         23    2    1    2    0    0 -0.64776682804E+02 -0.74835467417E+02 -0.73369314491E+02  0.15431728896E+03  0.92921491293E+02 0.  0.
          5    1    1    2  502    0 -0.16692583003E+01 -0.79398963696E+00 -0.85803645627E+02  0.85925286417E+02  0.41800000000E+01 0.  1.
         -5    1    1    2    0  502  0.66445941104E+02  0.75629457054E+02 -0.12713503883E+02  0.10155778377E+03  0.41800000000E+01 0.  1.
        -11    1    3    3    0    0 -0.15848042054E+01 -0.71612103234E+02 -0.47564305588E+02  0.85983533889E+02  0.00000000000E+00 0. -1.
         11    1    3    3    0    0 -0.63191878599E+02 -0.32233641826E+01 -0.25805008903E+02  0.68333755070E+02  0.00000000000E+00 0.  1.
</event>
<event>
 7    1  0.6145388E-006  0.1634147E+03  0.7561462E-02  0.1184895E+00
         -2   -1    0    0    0  501 -0.00000000000E+00  0.00000000000E+00  0.10283117185E+03  0.10283117185E+03  0.00000000000E+00 0.  1.
          2   -1    0    0  501    0  0.00000000000E+00 -0.00000000000E+00 -0.28138907230E+03  0.28138907230E+03  0.00000000000E+00 0. -1.
         23    2    1    2    0    0  0.16332261252E+02  0.12681839048E+03 -0.11562779953E+03  0.19459528645E+03  0.90265666585E+02 0.  0.
          5    1    1    2  502    0 -0.58170475276E+02 -0.12218417689E+03 -0.57045730462E+02  0.14691652406E+03  0.41800000000E+01 0.  1.
         -5    1    1    2    0  502  0.41838214024E+02 -0.46342135873E+01 -0.58843704539E+01  0.42708433639E+02  0.41800000000E+01 0.  1.
        -11    1    3    3    0    0 -0.20436434091E+02  0.38561498106E+01  0.14864030529E+01  0.20850110881E+02  0.00000000000E+00 0.  1.
         11    1    3    3    0    0  0.36768695344E+02  0.12296224067E+03 -0.11711420258E+03  0.17374517557E+03  0.00000000000E+00 0. -1.
</event>
<event>
 7    1  0.6145388E-006  0.1983236E+03  0.7561462E-02  0.1151161E+00
          2   -1    0    0  501    0  0.00000000000E+00  0.00000000000E+00  0.54875083757E+03  0.54875083757E+03  0.00000000000E+00 0. -1.
         -2   -1    0    0    0  501 -0.00000000000E+00 -0.00000000000E+00 -0.74127229864E+02  0.74127229864E+02  0.00000000000E+00 0.  1.
         23    2    1    2    0    0  0.16115264614E+03  0.39751789750E+02  0.28089636497E+03  0.33875159798E+03  0.91101575926E+02 0.  0.
          5    1    1    2  502    0  0.15642209761E+02  0.15605466782E+02  0.22876206947E+02  0.32078069829E+02  0.41800000000E+01 0. -1.
         -5    1    1    2    0  502 -0.17679485590E+03 -0.55357256532E+02  0.17085103579E+03  0.25204839962E+03  0.41800000000E+01 0. -1.
        -11    1    3    3    0    0  0.68150651896E+02 -0.28115033474E+02  0.97966153122E+02  0.12260641753E+03  0.00000000000E+00 0. -1.
         11    1    3    3    0    0  0.93001994240E+02  0.67866823224E+02  0.18293021185E+03  0.21614518045E+03  0.00000000000E+00 0.  1.
</event>
<event>
 7    1  0.6145388E-006  0.1236627E+03  0.7561462E-02  0.1237174E+00
          4   -1    0    0  501    0  0.00000000000E+00  0.00000000000E+00  0.54074347916E+03  0.54074347916E+03  0.00000000000E+00 0. -1.
         -4   -1    0    0    0  501 -0.00000000000E+00 -0.00000000000E+00 -0.39554056421E+02  0.39554056421E+02  0.00000000000E+00 0.  1.
         23    2    1    2    0    0  0.63955301024E+02  0.48347629048E+02  0.34472609144E+03  0.36452994543E+03  0.87282468051E+02 0.  0.
          5    1    1    2  502    0 -0.95358145952E+02 -0.42025787816E+02  0.75953312218E+02  0.12901829668E+03  0.41800000000E+01 0.  1.
         -5    1    1    2    0  502  0.31402844928E+02 -0.63218412317E+01  0.80510019080E+02  0.86749293475E+02  0.41800000000E+01 0.  1.
        -11    1    3    3    0    0  0.53589104021E+02  0.69151446695E+02  0.20505172495E+03  0.22293479889E+03  0.00000000000E+00 0.  1.
         11    1    3    3    0    0  0.10366197003E+02 -0.20803817647E+02  0.13967436649E+03  0.14159514654E+03  0.00000000000E+00 0. -1.
</event>
<event>
 7    1  0.6145388E-006  0.1314363E+03  0.7561462E-02  0.1225340E+00
          1   -1    0    0  501    0  0.00000000000E+00  0.00000000000E+00  0.86505836279E+02  0.86505836279E+02  0.00000000000E+00 0. -1.
         -1   -1    0    0    0  501 -0.00000000000E+00 -0.00000000000E+00 -0.25471582100E+03  0.25471582100E+03  0.00000000000E+00 0.  1.
         23    2    1    2    0    0  0.16764348185E+02 -0.97505727701E+02 -0.52802352382E+02  0.14435654755E+03  0.90897272232E+02 0.  0.
          5    1    1    2  502    0  0.28867547591E+02  0.11792108402E+02 -0.91523251855E+02  0.96779993566E+02  0.41800000000E+01 0. -1.
         -5    1    1    2    0  502 -0.45631895776E+02  0.85713619298E+02 -0.23884380480E+02  0.10008511616E+03  0.41800000000E+01 0. -1.
        -11    1    3    3    0    0 -0.37078462796E+02 -0.51105288559E+02 -0.21601854675E+02  0.66732323857E+02  0.00000000000E+00 0.  1.
         11    1    3    3    0    0  0.53842810981E+02 -0.46400439142E+02 -0.31200497707E+02  0.77624223694E+02  0.00000000000E+00 0. -1.
</event>
<event>
 7    1  0.6145388E-006  0.1150493E+03  0.7561462E-02  0.1251495E+00
          3   -1    0    0  501    0  0.00000000000E+00  0.00000000000E+00  0.20187991349E+03  0.20187991349E+03  0.00000000000E+00 0. -1.
         -3   -1    0    0    0  501 -0.00000000000E+00 -0.00000000000E+00 -0.92791402565E+02  0.92791402565E+02  0.00000000000E+00 0.  1.
         23    2    1    2    0    0  0.92513419126E+01 -0.11670055493E+02  0.12911213612E+03  0.16712395876E+03  0.10506520059E+03 0.  0.
          5    1    1    2  502    0  0.81220257166E+00 -0.56431268276E+02 -0.14125532504E+02  0.58327958826E+02  0.41800000000E+01 0.  1.
         -5    1    1    2    0  502 -0.10063544484E+02  0.68101323769E+02 -0.58980926925E+01  0.69219398467E+02  0.41800000000E+01 0.  1.
        -11    1    3    3    0    0  0.46701518445E+02 -0.36783696506E+02  0.87377446515E+02  0.10568297078E+03  0.00000000000E+00 0. -1.
         11    1    3    3    0    0 -0.37450176533E+02  0.25113641013E+02  0.41734689604E+02  0.61440987977E+02  0.00000000000E+00 0.  1.
</event>
<event>
 7    1  0.6145388E-006  0.1519856E+03  0.7561462E-02  0.1198054E+00
          2   -1    0    0  501    0  0.00000000000E+00  0.00000000000E+00  0.20819400279E+03  0.20819400279E+03  0.00000000000E+00 0. -1.
         -2   -1    0    0    0  501 -0.00000000000E+00 -0.00000000000E+00 -0.19041193647E+03  0.19041193647E+03  0.00000000000E+00 0.  1.
         23    2    1    2    0    0  0.10537010189E+03  0.44717257760E+02  0.12927075302E+03  0.19567921550E+03  0.92070279024E+02 0.  0.
          5    1    1    2  502    0 -0.48802943491E+02 -0.77948067945E+02 -0.10047259972E+03  0.13627121590E+03  0.41800000000E+01 0.  1.
         -5    1    1    2    0  502 -0.56567158402E+02  0.33230810184E+02 -0.11016086983E+02  0.66655507856E+02  0.41800000000E+01 0.  1.
        -11    1    3    3    0    0  0.11319006074E+03  0.60656318470E+02  0.10669105097E+03  0.16695556049E+03  0.00000000000E+00 0.  1.
         11    1    3    3    0    0 -0.78199588501E+01 -0.15939060710E+02  0.22579702050E+02  0.28723655014E+02  0.00000000000E+00 0. -1.
</event>
<event>
 7    1  0.6145388E-006  0.8438572E+02  0.7561462E-02  0.1317047E+00
          2   -1    0    0  501    0  0.00000000000E+00  0.00000000000E+00  0.56104488086E+02  0.56104488086E+02  0.00000000000E+00 0. -1.
         -2   -1    0    0    0  501 -0.00000000000E+00 -0.00000000000E+00 -0.25418944633E+03  0.25418944633E+03  0.00000000000E+00 0.  1.
         23    2    1    2    0    0  0.16671389246E+02  0.30698716847E+02 -0.47678317755E+02  0.11157282102E+03  0.94630470628E+02 0.  0.
          5    1    1    2  502    0 -0.25961938240E+02  0.88274467487E+01 -0.15516672472E+03  0.15762655522E+03  0.41800000000E+01 0.  1.
         -5    1    1    2    0  502  0.92905489938E+01 -0.39526163596E+02  0.47600842262E+01  0.41094558168E+02  0.41800000000E+01 0.  1.
        -11    1    3    3    0    0 -0.15070406776E+02  0.57021153470E+02 -0.34264712541E+02  0.68209967226E+02  0.00000000000E+00 0.  1.
         11    1    3    3    0    0  0.31741796021E+02 -0.26322436623E+02 -0.13413605213E+02  0.43362853795E+02  0.00000000000E+00 0. -1.
</event>
<event>
 7    1  0.6145388E-006  0.2993801E+03  0.7561462E-02  0.1085551E+00
          2   -1    0    0  501    0  0.00000000000E+00  0.00000000000E+00  0.19662599939E+04  0.19662599939E+04  0.00000000000E+00 0. -1.
         -2   -1    0    0    0  501 -0.00000000000E+00 -0.00000000000E+00 -0.52018814595E+02  0.52018814595E+02  0.00000000000E+00 0.  1.
         23    2    1    2    0    0  0.14185007412E+03 -0.25062901080E+03  0.12184725735E+04  0.12549448213E+04  0.85292129807E+02 0.  0.
          5    1    1    2  502    0 -0.35241289632E+02  0.17694718746E+03  0.46229488579E+03  0.49627239442E+03  0.41800000000E+01 0. -1.
         -5    1    1    2    0  502 -0.10660878449E+03  0.73681823342E+02  0.23347371995E+03  0.26706159277E+03  0.41800000000E+01 0. -1.
        -11    1    3    3    0    0  0.68536024375E+02 -0.10178453287E+03  0.35321727439E+03  0.37392475271E+03  0.00000000000E+00 0.  1.
         11    1    3    3    0    0  0.73314049747E+02 -0.14884447793E+03  0.86525529915E+03  0.88102006856E+03  0.00000000000E+00 0. -1.
</event>
<event>
 7    1  0.6145388E-006  0.1378307E+03  0.7561462E-02  0.1216278E+00
          1   -1    0    0  501    0  0.00000000000E+00  0.00000000000E+00  0.22525602993E+03  0.22525602993E+03  0.00000000000E+00 0. -1.
         -1   -1    0    0    0  501 -0.00000000000E+00 -0.00000000000E+00 -0.11516128485E+03  0.11516128485E+03  0.00000000000E+00 0.  1.
         23    2    1    2    0    0 -0.10516171530E+03 -0.42713540185E+02  0.85251101811E+02  0.16968675840E+03  0.92964577864E+02 0.  0.
          5    1    1    2  502    0  0.67471753615E+02 -0.65338674914E+01  0.67178018328E+02  0.95527417566E+02  0.41800000000E+01 0. -1.
         -5    1    1    2    0  502  0.37689961684E+02  0.49247407677E+02 -0.42334375067E+02  0.75203138810E+02  0.41800000000E+01 0. -1.
        -11    1    3    3    0    0 -0.59631297340E+02  0.24449202140E+02  0.48241410907E+02  0.80503967815E+02  0.00000000000E+00 0. -1.
         11    1    3    3    0    0 -0.45530417959E+02 -0.67162742325E+02  0.37009690904E+02  0.89182790587E+02  0.00000000000E+00 0.  1.
</event>
<event>
 7    1  0.6145388E-006  0.9431190E+02  0.7561462E-02  0.1292733E+00
          3   -1    0    0  501    0  0.00000000000E+00  0.00000000000E+00  0.21110121662E+02  0.21110121662E+02  0.00000000000E+00 0. -1.
         -3   -1    0    0    0  501 -0.00000000000E+00 -0.00000000000E+00 -0.77823401591E+03  0.77823401591E+03  0.00000000000E+00 0.  1.
         23    2    1    2    0    0  0.59697525990E+02 -0.44788217755E+02 -0.34739790328E+03  0.36449594957E+03  0.81254015237E+02 0.  0.
          5    1    1    2  502    0 -0.57567023446E+02  0.60138210741E+02 -0.12851884802E+03  0.15318333224E+03  0.41800000000E+01 0. -1.
         -5    1    1    2    0  502 -0.21305025438E+01 -0.15349992986E+02 -0.28120714295E+03  0.28166485576E+03  0.41800000000E+01 0. -1.
        -11    1    3    3    0    0  0.62200713438E+02 -0.21524172452E+02 -0.32667628408E+03  0.33324107390E+03  0.00000000000E+00 0.  1.
         11    1    3    3    0    0 -0.25031874483E+01 -0.23264045303E+02 -0.20721619204E+02  0.31254875678E+02  0.00000000000E+00 0. -1.
</event>
<event>
 7    1  0.6145388E-006  0.1880134E+03  0.7561462E-02  0.1160265E+00
         -4   -1    0    0    0  501 -0.00000000000E+00  0.00000000000E+00  0.13341477087E+03  0.13341477087E+03  0.00000000000E+00 0. -1.
          4   -1    0    0  501    0  0.00000000000E+00 -0.00000000000E+00 -0.31601098289E+03  0.31601098289E+03  0.00000000000E+00 0.  1.
         23    2    1    2    0    0 -0.14760861184E+03 -0.84271422314E+02 -0.12571598136E+03  0.23085476881E+03  0.92733173172E+02 0.  0.
          5    1    1    2  502    0  0.61237904763E+02  0.94287266810E+02 -0.66983457070E+02  0.13093672359E+03  0.41800000000E+01 0. -1.
         -5    1    1    2    0  502  0.86370707074E+02 -0.10015844495E+02  0.10103226410E+02  0.87634261367E+02  0.41800000000E+01 0. -1.
        -11    1    3    3    0    0 -0.87162652310E+02 -0.22446354557E+02 -0.11139412577E+03  0.14321249263E+03  0.00000000000E+00 0.  1.
         11    1    3    3    0    0 -0.60445959527E+02 -0.61825067757E+02 -0.14321855594E+02  0.87642276180E+02  0.00000000000E+00 0. -1.
</event>
<event>
 7    1  0.6145388E-006  0.1516957E+03  0.7561462E-02  0.1198405E+00
         -1   -1    0    0    0  501 -0.00000000000E+00  0.00000000000E+00  0.63181106241E+02  0.63181106241E+02  0.00000000000E+00 0.  1.
          1   -1    0    0  501    0  0.00000000000E+00 -0.00000000000E+00 -0.44397655718E+03  0.44397655718E+03  0.00000000000E+00 0. -1.
         23    2    1    2    0    0  0.10478636011E+03  0.61656448423E+02 -0.23860996544E+03  0.28211264979E+03  0.88719404128E+02 0.  0.
          5    1    1    2  502    0 -0.12673277530E+03 -0.63970913365E+02 -0.14432086314E+03  0.20248322901E+03  0.41800000000E+01 0.  1.
         -5    1    1    2    0  502  0.21946415195E+02  0.23144649421E+01  0.21353776333E+01  0.22561784627E+02  0.41800000000E+01 0.  1.
        -11    1    3    3    0    0  0.43262912614E+02  0.64100962279E+02 -0.76827329548E+02  0.10900941032E+03  0.00000000000E+00 0.  1.
         11    1    3    3    0    0  0.61523447492E+02 -0.24445138558E+01 -0.16178263589E+03  0.17310323947E+03  0.00000000000E+00 0. -1.
</event>
<event>
 7    1  0.6145388E-006  0.7315299E+02  0.7561462E-02  0.1349688E+00
          2   -1    0    0  501    0  0.00000000000E+00  0.00000000000E+00  0.37030224408E+03  0.37030224408E+03  0.00000000000E+00 0. -1.
         -2   -1    0    0    0  501 -0.00000000000E+00 -0.00000000000E+00 -0.43647286865E+02  0.43647286865E+02  0.00000000000E+00 0.  1.
         23    2    1    2    0    0 -0.11180468368E+02 -0.65124718820E+02  0.15726255505E+03  0.19325014222E+03  0.90817808666E+02 0.  0.
          5    1    1    2  502    0  0.12370237219E+02  0.59304420825E+01  0.15995926896E+03  0.16060085005E+03  0.41800000000E+01 0.  1.
         -5    1    1    2    0  502 -0.11897688509E+01  0.59194276738E+02  0.94331332010E+01  0.60098538671E+02  0.41800000000E+01 0.  1.
        -11    1    3    3    0    0  0.74514644866E+01 -0.43205178594E+02  0.12405894520E+02  0.45564437879E+02  0.00000000000E+00 0.  1.
         11    1    3    3    0    0 -0.18631932854E+02 -0.21919540226E+02  0.14485666053E+03  0.14768570434E+03  0.00000000000E+00 0. -1.
</event>
<event>
 7    1  0.6145388E-006  0.1008571E+03  0.7561462E-02  0.1278504E+00
         -1   -1    0    0    0  501 -0.00000000000E+00  0.00000000000E+00  0.40777012665E+03  0.40777012665E+03  0.00000000000E+00 0.  1.
          1   -1    0    0  501    0  0.00000000000E+00 -0.00000000000E+00 -0.53180699898E+02  0.53180699898E+02  0.00000000000E+00 0. -1.
         23    2    1    2    0    0 -0.34116879344E+02  0.74406020669E+02  0.72400453252E+02  0.14160909076E+03  0.90061598846E+02 0.  0.
          5    1    1    2  502    0  0.55286846834E+02 -0.19274375703E+02  0.42553498650E+02  0.72501100950E+02  0.41800000000E+01 0. -1.
         -5    1    1    2    0  502 -0.21169967490E+02 -0.55131644966E+02  0.23963547485E+03  0.24684063483E+03  0.41800000000E+01 0. -1.
        -11    1    3    3    0    0 -0.30880164761E+01  0.26850958854E+02 -0.19676247998E+02  0.33431490730E+02  0.00000000000E+00 0. -1.
         11    1    3    3    0    0 -0.31028862868E+02  0.47555061815E+02  0.92076701250E+02  0.10817760003E+03  0.00000000000E+00 0.  1.
</event>
<event>
 7    1  0.6145388E-006  0.7030732E+02  0.7561462E-02  0.1359051E+00
         -1   -1    0    0    0  501 -0.00000000000E+00  0.00000000000E+00  0.34527487441E+02  0.34527487441E+02  0.00000000000E+00 0.  1.
          1   -1    0    0  501    0  0.00000000000E+00 -0.00000000000E+00 -0.37176850418E+03  0.37176850418E+03  0.00000000000E+00 0. -1.
         23    2    1    2    0    0 -0.80038668603E+01 -0.13758583749E+02 -0.20000470761E+03  0.21991652290E+03  0.90044619317E+02 0.  0.
          5    1    1    2  502    0  0.27656124606E+02 -0.10017734471E+02 -0.14986871065E+03  0.15278520565E+03  0.41800000000E+01 0. -1.
         -5    1    1    2    0  502 -0.19652257745E+02  0.23776318220E+02  0.12632401529E+02  0.33594263066E+02  0.41800000000E+01 0. -1.
        -11    1    3    3    0    0 -0.29223618208E+02  0.23096338985E+02 -0.41315250718E+02  0.55627427386E+02  0.00000000000E+00 0.  1.
         11    1    3    3    0    0  0.21219751348E+02 -0.36854922734E+02 -0.15868945689E+03  0.16428909552E+03  0.00000000000E+00 0. -1.
</event>
<event>
 7    1  0.6145388E-006  0.1473183E+03  0.7561462E-02  0.1203807E+00
          2   -1    0    0  501    0  0.00000000000E+00  0.00000000000E+00  0.35622831827E+03  0.35622831827E+03  0.00000000000E+00 0. -1.
         -2   -1    0    0    0  501 -0.00000000000E+00 -0.00000000000E+00 -0.72030644374E+02  0.72030644374E+02  0.00000000000E+00 0.  1.
         23    2    1    2    0    0  0.11424884848E+03 -0.48173777846E+01  0.17121817455E+03  0.22457884311E+03  0.89688276644E+02 0.  0.
          5    1    1    2  502    0 -0.72486256742E+02 -0.58524372145E+02  0.56947950585E+02  0.10926985416E+03  0.41800000000E+01 0. -1.
         -5    1    1    2    0  502 -0.41762591739E+02  0.63341749929E+02  0.56031548764E+02  0.94410265383E+02  0.41800000000E+01 0. -1.
        -11    1    3    3    0    0  0.66395325344E+02  0.22730245497E+02  0.14967157318E+03  0.16530754098E+03  0.00000000000E+00 0. -1.
         11    1    3    3    0    0  0.47853523137E+02 -0.27547623281E+02  0.21546601373E+02  0.59271302127E+02  0.00000000000E+00 0.  1.
</event>
<event>
 7    1  0.6145388E-006  0.1880933E+03  0.7561462E-02  0.1160192E+00
         -1   -1    0    0    0  501 -0.00000000000E+00  0.00000000000E+00  0.16663049498E+03  0.16663049498E+03  0.00000000000E+00 0.  1.
          1   -1    0    0  501    0  0.00000000000E+00 -0.00000000000E+00 -0.23263200577E+03  0.23263200577E+03  0.00000000000E+00 0. -1.
         23    2    1    2    0    0 -0.12001750735E+03 -0.10725298675E+03 -0.63622805072E+02  0.19539823814E+03  0.90692915418E+02 0.  0.
          5    1    1    2  502    0  0.61120826820E+02 -0.14171079696E+02  0.22085476495E+02  0.66646947739E+02  0.41800000000E+01 0.  1.
         -5    1    1    2    0  502  0.58896680528E+02  0.12142406644E+03 -0.24464182212E+02  0.13721731487E+03  0.41800000000E+01 0.  1.
        -11    1    3    3    0    0 -0.10928977994E+02 -0.57250160971E+02  0.25887676620E+01  0.58341453609E+02  0.00000000000E+00 0.  1.
         11    1    3    3    0    0 -0.10908852935E+03 -0.50002825776E+02 -0.66211572734E+02  0.13705678453E+03  0.00000000000E+00 0. -1.
</event>
<event>
 7    1  0.6145388E-006  0.1062703E+03  0.7561462E-02  0.1267637E+00
         -1   -1    0    0    0  501 -0.00000000000E+00  0.00000000000E+00  0.34995372543E+02  0.34995372543E+02  0.00000000000E+00 0.  1.
          1   -1    0    0  501    0  0.00000000000E+00 -0.00000000000E+00 -0.38151155288E+03  0.38151155288E+03  0.00000000000E+00 0. -1.
         23    2    1    2    0    0 -0.40804938018E+02 -0.86483801697E+01 -0.14419231275E+03  0.17500815510E+03  0.89981074954E+02 0.  0.
          5    1    1    2  502    0  0.80759142478E+02  0.29430043581E+02 -0.14304353635E+03  0.16693439505E+03  0.41800000000E+01 0. -1.
         -5    1    1    2    0  502 -0.39954204460E+02 -0.20781663411E+02 -0.59280331238E+02  0.74564375273E+02  0.41800000000E+01 0. -1.
        -11    1    3    3    0    0 -0.55784038635E+02 -0.23158924176E+02 -0.49634558999E+02  0.78177900858E+02  0.00000000000E+00 0.  1.
         11    1    3    3    0    0  0.14979100617E+02  0.14510544007E+02 -0.94557753753E+02  0.96830254247E+02  0.00000000000E+00 0. -1.
</event>
<event>
 7    1  0.6145388E-006  0.1102110E+03  0.7561462E-02  0.1260180E+00
          1   -1    0    0  501    0  0.00000000000E+00  0.00000000000E+00  0.25087891557E+03  0.25087891557E+03  0.00000000000E+00 0. -1.
         -1   -1    0    0    0  501 -0.00000000000E+00 -0.00000000000E+00 -0.59460839367E+02  0.59460839367E+02  0.00000000000E+00 0.  1.
         23    2    1    2    0    0 -0.54481860798E+02 -0.19550859849E+02  0.90816173635E+02  0.13969717694E+03  0.88978731028E+02 0.  0.
          5    1    1    2  502    0  0.87286832309E+02 -0.16171961767E+02  0.59711377806E+02  0.10706747630E+03  0.41800000000E+01 0.  1.
         -5    1    1    2    0  502 -0.32804971511E+02  0.35722821617E+02  0.40890524764E+02  0.63575101696E+02  0.41800000000E+01 0.  1.
        -11    1    3    3    0    0 -0.46586999891E+02 -0.39714152922E+02  0.18117332374E+02  0.63841994279E+02  0.00000000000E+00 0.  1.
         11    1    3    3    0    0 -0.78948609062E+01  0.20163293072E+02  0.72698841261E+02  0.75855182664E+02  0.00000000000E+00 0. -1.
</event>
<event>
 7    1  0.6145388E-006  0.1196708E+03  0.7561462E-02  0.1243641E+00
         -4   -1    0    0    0  501 -0.00000000000E+00  0.00000000000E+00  0.16731029460E+03  0.16731029460E+03  0.00000000000E+00 0. -1.
          4   -1    0    0  501    0  0.00000000000E+00 -0.00000000000E+00 -0.12634142326E+03  0.12634142326E+03  0.00000000000E+00 0.  1.
         23    2    1    2    0    0  0.16770560315E+02 -0.85887089358E+02 -0.24520594491E+02  0.12753390306E+03  0.89475097449E+02 0.  0.
          5    1    1    2  502    0  0.29395989716E+02 -0.20222122727E+02  0.23592288961E+02  0.42978214916E+02  0.41800000000E+01 0.  1.
         -5    1    1    2    0  502 -0.46166550031E+02  0.10610921208E+03  0.41897176872E+02  0.12313959989E+03  0.41800000000E+01 0.  1.
        -11    1    3    3    0    0  0.35657967351E+01 -0.29363196801E+02 -0.54644876729E+02  0.62136742637E+02  0.00000000000E+00 0.  1.
         11    1    3    3    0    0  0.13204763580E+02 -0.56523892557E+02  0.30124282238E+02  0.65397160422E+02  0.00000000000E+00 0. -1.
</event>
<event>
 7    1  0.6145388E-006  0.1060908E+03  0.7561462E-02  0.1267985E+00
         -1   -1    0    0    0  501 -0.00000000000E+00  0.00000000000E+00  0.59428303574E+02  0.59428303574E+02  0.00000000000E+00 0.  1.
          1   -1    0    0  501    0  0.00000000000E+00 -0.00000000000E+00 -0.37128873062E+03  0.37128873062E+03  0.00000000000E+00 0. -1.
         23    2    1    2    0    0 -0.30514696705E+02  0.85088275928E+02 -0.20724644157E+03  0.24426624779E+03  0.92432412324E+02 0.  0.
          5    1    1    2  502    0 -0.84418332721E+01  0.13036381639E+02  0.18301937416E+02  0.24364833437E+02  0.41800000000E+01 0.  1.
         -5    1    1    2    0  502  0.38956529977E+02 -0.98124657566E+02 -0.12291592289E+03  0.16208595297E+03  0.41800000000E+01 0.  1.
        -11    1    3    3    0    0 -0.24242912023E+02  0.70818671655E+02 -0.21441830913E+03  0.22710837573E+03  0.00000000000E+00 0. -1.
         11    1    3    3    0    0 -0.62717846821E+01  0.14269604273E+02  0.71718675556E+01  0.17157872054E+02  0.00000000000E+00 0.  1.
</event>
<event>
 7    1  0.6145388E-006  0.9904305E+02  0.7561462E-02  0.1282321E+00
         -2   -1    0    0    0  501 -0.00000000000E+00  0.00000000000E+00  0.35552890319E+03  0.35552890319E+03  0.00000000000E+00 0.  1.
          2   -1    0    0  501    0  0.00000000000E+00 -0.00000000000E+00 -0.52778188434E+02  0.52778188434E+02  0.00000000000E+00 0. -1.
         23    2    1    2    0    0  0.22074631742E+01  0.66753670400E+02  0.61679648441E+02  0.12855086661E+03  0.90884656945E+02 0.  0.
          5    1    1    2  502    0 -0.54023482569E+02 -0.26072518141E+02  0.18018595987E+03  0.18995464039E+03  0.41800000000E+01 0. -1.
         -5    1    1    2    0  502  0.51816019395E+02 -0.40681152259E+02  0.60885106442E+02  0.89801584627E+02  0.41800000000E+01 0. -1.
        -11    1    3    3    0    0 -0.12311256606E+02  0.30147660115E+02  0.79061432951E+02  0.85505313460E+02  0.00000000000E+00 0.  1.
         11    1    3    3    0    0  0.14518719781E+02  0.36606010284E+02 -0.17381784509E+02  0.43045553147E+02  0.00000000000E+00 0. -1.
</event>
<event>
 7    1  0.6145388E-006  0.1066179E+03  0.7561462E-02  0.1266964E+00
          2   -1    0    0  501    0  0.00000000000E+00  0.00000000000E+00  0.30225611241E+03  0.30225611241E+03  0.00000000000E+00 0. -1.
         -2   -1    0    0    0  501 -0.00000000000E+00 -0.00000000000E+00 -0.49197547760E+02  0.49197547760E+02  0.00000000000E+00 0.  1.
         23    2    1    2    0    0 -0.21292595402E+02  0.45113739906E+02  0.12697220495E+03  0.16696672653E+03  0.96266935081E+02 0.  0.
          5    1    1    2  502    0  0.21060066796E+02  0.34078604664E+02  0.62111734183E+01  0.40754494040E+02  0.41800000000E+01 0.  1.
         -5    1    1    2    0  502  0.23252860598E+00 -0.79192344570E+02  0.11987518627E+03  0.14373243960E+03  0.41800000000E+01 0.  1.
        -11    1    3    3    0    0 -0.33245795440E+02 -0.11968254676E+02  0.10751262798E+02  0.36933882631E+02  0.00000000000E+00 0.  1.
         11    1    3    3    0    0  0.11953200039E+02  0.57081994582E+02  0.11622094216E+03  0.13003284390E+03  0.00000000000E+00 0. -1.
</event>
<event>
 7    1  0.6145388E-006  0.6712591E+02  0.7561462E-02  0.1370149E+00
          1   -1    0    0  501    0  0.00000000000E+00  0.00000000000E+00  0.83753740021E+02  0.83753740021E+02  0.00000000000E+00 0. -1.
         -1   -1    0    0    0  501 -0.00000000000E+00 -0.00000000000E+00 -0.19519897381E+03  0.19519897381E+03  0.00000000000E+00 0.  1.
         23    2    1    2    0    0  0.19739610093E+01  0.48932459597E+01  0.23596028181E+02  0.94801619009E+02  0.91666428111E+02 0.  0.
          5    1    1    2  502    0  0.13219406641E+02 -0.50565816957E+02 -0.14670290642E+02  0.54445793078E+02  0.41800000000E+01 0. -1.
         -5    1    1    2    0  502 -0.15193367650E+02  0.45672570997E+02 -0.12037097133E+03  0.12970530175E+03  0.41800000000E+01 0. -1.
        -11    1    3    3    0    0  0.18427228134E+01  0.19154685290E+02  0.56098802893E+02  0.59307447104E+02  0.00000000000E+00 0. -1.
         11    1    3    3    0    0  0.13123819598E+00 -0.14261439330E+02 -0.32502774712E+02  0.35494171905E+02  0.00000000000E+00 0.  1.
</event>
<event>
 7    1  0.6145388E-006  0.1158385E+03  0.7561462E-02  0.1250124E+00
          2   -1    0    0  501    0  0.00000000000E+00  0.00000000000E+00  0.16749576305E+03  0.16749576305E+03  0.00000000000E+00 0.  1.
         -2   -1    0    0    0  501 -0.00000000000E+00 -0.00000000000E+00 -0.11016579615E+03  0.11016579615E+03  0.00000000000E+00 0. -1.
         23    2    1    2    0    0  0.73698531323E+01  0.60200960436E+02  0.83606771022E+02  0.13617006267E+03  0.88734003826E+02 0.  0.
          5    1    1    2  502    0  0.32358963599E+02 -0.85627925523E+02 -0.15659200825E+02  0.92961966013E+02  0.41800000000E+01 0.  1.
         -5    1    1    2    0  502 -0.39728816731E+02  0.25426965086E+02 -0.10617603297E+02  0.48529530516E+02  0.41800000000E+01 0.  1.
        -11    1    3    3    0    0  0.36626941328E+02  0.49411849234E+02  0.18905764915E+02  0.64346651994E+02  0.00000000000E+00 0. -1.
         11    1    3    3    0    0 -0.29257088196E+02  0.10789111202E+02  0.64701006108E+02  0.71823410679E+02  0.00000000000E+00 0.  1.
</event>
<event>
 7    1  0.6145388E-006  0.1046410E+03  0.7561462E-02  0.1270829E+00
          4   -1    0    0  501    0  0.00000000000E+00  0.00000000000E+00  0.28295057860E+03  0.28295057860E+03  0.00000000000E+00 0. -1.
         -4   -1    0    0    0  501 -0.00000000000E+00 -0.00000000000E+00 -0.61530664864E+02  0.61530664864E+02  0.00000000000E+00 0.  1.
         23    2    1    2    0    0 -0.93852074281E+01  0.12754131178E+02  0.19467092193E+03  0.21558692947E+03  0.91269964017E+02 0.  0.
          5    1    1    2  502    0  0.66830032712E+02  0.51708972963E+00  0.13070877350E+02  0.68226394370E+02  0.41800000000E+01 0. -1.
         -5    1    1    2    0  502 -0.57444825284E+02 -0.13271220908E+02  0.13678114453E+02  0.60667919622E+02  0.41800000000E+01 0. -1.
        -11    1    3    3    0    0 -0.41632099139E+02  0.25180894259E+02  0.63832249165E+02  0.80261230665E+02  0.00000000000E+00 0. -1.
         11    1    3    3    0    0  0.32246891710E+02 -0.12426763080E+02  0.13083867277E+03  0.13532569880E+03  0.00000000000E+00 0.  1.
</event>
<event>
 7    1  0.6145388E-006  0.1141060E+03  0.7561462E-02  0.1253150E+00
         -1   -1    0    0    0  501 -0.00000000000E+00  0.00000000000E+00  0.37907241634E+02  0.37907241634E+02  0.00000000000E+00 0.  1.
          1   -1    0    0  501    0  0.00000000000E+00 -0.00000000000E+00 -0.55873950063E+03  0.55873950063E+03  0.00000000000E+00 0. -1.
         23    2    1    2    0    0  0.68845364746E+02  0.49515159265E+02 -0.33039273850E+03  0.35350657398E+03  0.92822954866E+02 0.  0.
          5    1    1    2  502    0 -0.31021859722E+01 -0.51899465763E+02 -0.12861833011E+02  0.53722223080E+02  0.41800000000E+01 0. -1.
         -5    1    1    2    0  502 -0.65743178774E+02  0.23843064971E+01 -0.17757768749E+03  0.18941794521E+03  0.41800000000E+01 0. -1.
        -11    1    3    3    0    0  0.79629982794E+02  0.25181593813E+02 -0.30671618216E+03  0.31788341137E+03  0.00000000000E+00 0. -1.
         11    1    3    3    0    0 -0.10784618048E+02  0.24333565452E+02 -0.23676556337E+02  0.35623162606E+02  0.00000000000E+00 0.  1.
</event>
<event>
 7    1  0.6145388E-006  0.6897235E+02  0.7561462E-02  0.1363623E+00
          2   -1    0    0  501    0  0.00000000000E+00  0.00000000000E+00  0.50657055544E+03  0.50657055544E+03  0.00000000000E+00 0. -1.
         -2   -1    0    0    0  501 -0.00000000000E+00 -0.00000000000E+00 -0.34564833486E+02  0.34564833486E+02  0.00000000000E+00 0.  1.
         23    2    1    2    0    0  0.21599963064E+01 -0.16848960553E+02  0.20508358465E+03  0.22501877743E+03  0.91025383528E+02 0.  0.
          5    1    1    2  502    0 -0.16626545467E+02 -0.94283928186E+01  0.28172696852E+03  0.28240554845E+03  0.41800000000E+01 0. -1.
         -5    1    1    2    0  502  0.14466549160E+02  0.26277353371E+02 -0.14804831211E+02  0.33711063051E+02  0.41800000000E+01 0.  1.
        -11    1    3    3    0    0  0.39104300690E+02 -0.29563643790E+02  0.78564522696E+02  0.92604209370E+02  0.00000000000E+00 0. -1.
         11    1    3    3    0    0 -0.36944304383E+02  0.12714683237E+02  0.12651906196E+03  0.13241456806E+03  0.00000000000E+00 0.  1.
</event>
<event>
 7    1  0.6145388E-006  0.9529277E+02  0.7561462E-02  0.1290518E+00
         -2   -1    0    0    0  501 -0.00000000000E+00  0.00000000000E+00  0.13513706010E+03  0.13513706010E+03  0.00000000000E+00 0.  1.
          2   -1    0    0  501    0  0.00000000000E+00 -0.00000000000E+00 -0.12639534013E+03  0.12639534013E+03  0.00000000000E+00 0. -1.
         23    2    1    2    0    0 -0.66565083701E+02 -0.15918105522E+02  0.34786957408E+00  0.11879326405E+03  0.97094912937E+02 0.  0.
          5    1    1    2  502    0  0.44690255331E+02  0.21986710373E+02  0.64774756892E+02  0.81816110180E+02  0.41800000000E+01 0. -1.
         -5    1    1    2    0  502  0.21874828370E+02 -0.60686048513E+01 -0.56380906496E+02  0.60923026011E+02  0.41800000000E+01 0. -1.
        -11    1    3    3    0    0  0.12641974368E+02 -0.34002449139E+02 -0.79114951795E+01  0.37129204400E+02  0.00000000000E+00 0. -1.
         11    1    3    3    0    0 -0.79207058069E+02  0.18084343617E+02  0.82593647536E+01  0.81664059648E+02  0.00000000000E+00 0.  1.
</event>
<event>
 7    1  0.6145388E-006  0.8948102E+02  0.7561462E-02  0.1304113E+00
          2   -1    0    0  501    0  0.00000000000E+00  0.00000000000E+00  0.11428152607E+04  0.11428152607E+04  0.00000000000E+00 0. -1.
         -2   -1    0    0    0  501 -0.00000000000E+00 -0.00000000000E+00 -0.13390066891E+02  0.13390066891E+02  0.00000000000E+00 0.  1.
         23    2    1    2    0    0  0.49388169611E+02  0.23203812194E+02  0.43913944171E+03  0.45255801220E+03  0.94803464820E+02 0.  0.
          5    1    1    2  502    0 -0.60481542785E+01  0.12173414232E+02  0.57753808432E+03  0.57771314978E+03  0.41800000000E+01 0. -1.
         -5    1    1    2    0  502 -0.43340015333E+02 -0.35377226426E+02  0.11274766774E+03  0.12593416558E+03  0.41800000000E+01 0. -1.
        -11    1    3    3    0    0  0.32328557543E+02 -0.35201100786E+02  0.21975709029E+03  0.22489426819E+03  0.00000000000E+00 0.  1.
         11    1    3    3    0    0  0.17059612068E+02  0.58404912980E+02  0.21938235141E+03  0.22766374401E+03  0.00000000000E+00 0. -1.
</event>
<event>
 7    1  0.6145388E-006  0.1397331E+03  0.7561462E-02  0.1213689E+00
          1   -1    0    0  501    0  0.00000000000E+00  0.00000000000E+00  0.12319429979E+03  0.12319429979E+03  0.00000000000E+00 0. -1.
         -1   -1    0    0    0  501 -0.00000000000E+00 -0.00000000000E+00 -0.17372846019E+03  0.17372846019E+03  0.00000000000E+00 0.  1.
         23    2    1    2    0    0 -0.23060961074E+02  0.96880164305E+02 -0.29027958962E+00  0.12932579931E+03  0.82507599313E+02 0.  0.
          5    1    1    2  502    0  0.49520108682E+02  0.16107228959E+01 -0.42192352424E+02  0.65211215256E+02  0.41800000000E+01 0. -1.
         -5    1    1    2    0  502 -0.26459147608E+02 -0.98490887201E+02 -0.80515283810E+01  0.10238574541E+03  0.41800000000E+01 0. -1.
        -11    1    3    3    0    0  0.28097273803E+02  0.54204643439E+02  0.10148825576E+02  0.61891831659E+02  0.00000000000E+00 0. -1.
         11    1    3    3    0    0 -0.51158234877E+02  0.42675520866E+02 -0.10439105166E+02  0.67433967654E+02  0.00000000000E+00 0.  1.
</event>
<event>
 7    1  0.6145388E-006  0.1503299E+03  0.7561462E-02  0.1200068E+00
          2   -1    0    0  501    0  0.00000000000E+00  0.00000000000E+00  0.65839849220E+02  0.65839849220E+02  0.00000000000E+00 0. -1.
         -2   -1    0    0    0  501 -0.00000000000E+00 -0.00000000000E+00 -0.72207775310E+03  0.72207775310E+03  0.00000000000E+00 0.  1.
         23    2    1    2    0    0  0.31938530050E+02 -0.55015043244E+02 -0.10923461100E+02  0.10858027836E+03  0.87313401954E+02 0.  0.
          5    1    1    2  502    0 -0.49647318953E+02 -0.58991128571E+02 -0.12960439654E+03  0.15086279042E+03  0.41800000000E+01 0. -1.
         -5    1    1    2    0  502  0.17708788903E+02  0.11400617181E+03 -0.51571004624E+03  0.52847453355E+03  0.41800000000E+01 0.  1.
        -11    1    3    3    0    0 -0.13737798867E+02  0.17527735981E+02 -0.11446600496E+01  0.22299302522E+02  0.00000000000E+00 0.  1.
         11    1    3    3    0    0  0.45676328917E+02 -0.72542779225E+02 -0.97788010499E+01  0.86280975835E+02  0.00000000000E+00 0. -1.
</event>
<event>
 7    1  0.6145388E-006  0.1215409E+03  0.7561462E-02  0.1240576E+00
         -2   -1    0    0    0  501 -0.00000000000E+00  0.00000000000E+00  0.14275846310E+02  0.14275846310E+02  0.00000000000E+00 0.  1.
          2   -1    0    0  501    0  0.00000000000E+00 -0.00000000000E+00 -0.10720557456E+04  0.10720557456E+04  0.00000000000E+00 0. -1.
         23    2    1    2    0    0 -0.11393724268E+01  0.58265705283E+02 -0.52185679144E+03  0.53292631092E+03  0.90993139976E+02 0.  0.
          5    1    1    2  502    0 -0.11391904062E+02  0.37584304965E+02 -0.19813435735E+03  0.20203230291E+03  0.41800000000E+01 0. -1.
         -5    1    1    2    0  502  0.12531276489E+02 -0.95850010248E+02 -0.33778875054E+03  0.35137297811E+03  0.41800000000E+01 0. -1.
        -11    1    3    3    0    0 -0.35862633771E+02 -0.34391742963E+01 -0.14003391645E+03  0.14459410146E+03  0.00000000000E+00 0.  1.
         11    1    3    3    0    0  0.34723261344E+02  0.61704879580E+02 -0.38182287499E+03  0.38833220946E+03  0.00000000000E+00 0. -1.
</event>
<event>
 7    1  0.6145388E-006  0.7664036E+02  0.7561462E-02  0.1338865E+00
          2   -1    0    0  501    0  0.00000000000E+00  0.00000000000E+00  0.58612050815E+03  0.58612050815E+03  0.00000000000E+00 0. -1.
         -2   -1    0    0    0  501 -0.00000000000E+00 -0.00000000000E+00 -0.22443525588E+02  0.22443525588E+02  0.00000000000E+00 0.  1.
         23    2    1    2    0    0  0.32385816365E+02  0.11603148173E+02  0.29473734627E+03  0.30996836248E+03  0.89592456735E+02 0.  0.
          5    1    1    2  502    0  0.26889980744E+01  0.23035779715E+02 -0.15520301612E+01  0.23616923071E+02  0.41800000000E+01 0. -1.
         -5    1    1    2    0  502 -0.35074814440E+02 -0.34638927889E+02  0.27049166645E+03  0.27497874819E+03  0.41800000000E+01 0. -1.
        -11    1    3    3    0    0  0.34621144767E+01  0.39739804970E+02  0.23179318166E+03  0.23520058971E+03  0.00000000000E+00 0. -1.
         11    1    3    3    0    0  0.28923701889E+02 -0.28136656797E+02  0.62944164605E+02  0.74767772766E+02  0.00000000000E+00 0.  1.
</event>
<event>
 7    1  0.6145388E-006  0.1114884E+03  0.7561462E-02  0.1257838E+00
         -2   -1    0    0    0  501 -0.00000000000E+00  0.00000000000E+00  0.11967248950E+04  0.11967248950E+04  0.00000000000E+00 0.  1.
          2   -1    0    0  501    0  0.00000000000E+00 -0.00000000000E+00 -0.15722026756E+02  0.15722026756E+02  0.00000000000E+00 0. -1.
         23    2    1    2    0    0  0.59519885472E+02 -0.59358042754E+02  0.49629625894E+03  0.51135016194E+03  0.90016762153E+02 0.  0.
          5    1    1    2  502    0  0.14631068704E+02 -0.15934793956E+02  0.26570223738E+02  0.34517169920E+02  0.41800000000E+01 0. -1.
         -5    1    1    2    0  502 -0.74150954176E+02  0.75292836710E+02  0.65813638559E+03  0.66657958992E+03  0.41800000000E+01 0. -1.
        -11    1    3    3    0    0  0.51118851403E+02 -0.66694605625E+02  0.49242555193E+03  0.49954402366E+03  0.00000000000E+00 0.  1.
         11    1    3    3    0    0  0.84010340691E+01  0.73365628708E+01  0.38707070173E+01  0.11806138276E+02  0.00000000000E+00 0. -1.
</event>
<event>
 7    1  0.6145388E-006  0.1038404E+03  0.7561462E-02  0.1272421E+00
          1   -1    0    0  501    0  0.00000000000E+00  0.00000000000E+00  0.64164593891E+02  0.64164593891E+02  0.00000000000E+00 0. -1.
         -1   -1    0    0    0  501 -0.00000000000E+00 -0.00000000000E+00 -0.21292469495E+03  0.21292469495E+03  0.00000000000E+00 0.  1.
         23    2    1    2    0    0  0.20188911815E+02 -0.21386304991E+02 -0.28636895280E+02  0.10118361044E+03  0.92482890576E+02 0.  0.
          5    1    1    2  502    0 -0.31642388599E+02  0.61261752277E+02 -0.11464764837E+03  0.13384991119E+03  0.41800000000E+01 0.  1.
         -5    1    1    2    0  502  0.11453476784E+02 -0.39875447287E+02 -0.54755574078E+01  0.42055767211E+02  0.41800000000E+01 0.  1.
        -11    1    3    3    0    0 -0.15392538576E+02 -0.49321844437E+02 -0.12543785042E+02  0.53168798422E+02  0.00000000000E+00 0.  1.
         11    1    3    3    0    0  0.35581450392E+02  0.27935539446E+02 -0.16093110238E+02  0.48014812019E+02  0.00000000000E+00 0. -1.
</event>
<event>
 7    1  0.6145388E-006  0.1439636E+03  0.7561462E-02  0.1208093E+00
         -2   -1    0    0    0  501 -0.00000000000E+00  0.00000000000E+00  0.28995741016E+02  0.28995741016E+02  0.00000000000E+00 0. -1.
          2   -1    0    0  501    0  0.00000000000E+00 -0.00000000000E+00 -0.89500915548E+03  0.89500915548E+03  0.00000000000E+00 0.  1.
         23    2    1    2    0    0  0.10829551623E+03 -0.20705693371E+02 -0.52917413461E+03  0.54814811545E+03  0.91018938447E+02 0.  0.
          5    1    1    2  502    0 -0.10485644670E+02 -0.35909299204E+02 -0.27856827924E+02  0.46828429137E+02  0.41800000000E+01 0. -1.
         -5    1    1    2    0  502 -0.97809871563E+02  0.56614992574E+02 -0.30898245192E+03  0.32902835190E+03  0.41800000000E+01 0. -1.
        -11    1    3    3    0    0  0.90504428167E+02 -0.49643362902E+02 -0.45504710244E+03  0.46660838016E+03  0.00000000000E+00 0.  1.
         11    1    3    3    0    0  0.17791088066E+02  0.28937669531E+02 -0.74127032174E+02  0.81539735291E+02  0.00000000000E+00 0. -1.
</event>
<event>
 7    1  0.6145388E-006  0.1779383E+03  0.7561462E-02  0.1169813E+00
          1   -1    0    0  501    0  0.00000000000E+00  0.00000000000E+00  0.51082944843E+03  0.51082944843E+03  0.00000000000E+00 0. -1.
         -1   -1    0    0    0  501 -0.00000000000E+00 -0.00000000000E+00 -0.72436019866E+02  0.72436019866E+02  0.00000000000E+00 0.  1.
         23    2    1    2    0    0  0.64475625419E+02  0.12475940101E+03  0.31912067191E+03  0.36056944576E+03  0.91925554459E+02 0.  0.
          5    1    1    2  502    0 -0.71562753821E+02 -0.92767952930E+01  0.45077431161E+02  0.85186465271E+02  0.41800000000E+01 0.  1.
         -5    1    1    2    0  502  0.70871284018E+01 -0.11548260572E+03  0.74195325487E+02  0.13750955726E+03  0.41800000000E+01 0.  1.
        -11    1    3    3    0    0  0.30123367332E+02  0.12966487538E+03  0.25046498550E+03  0.28364256755E+03  0.00000000000E+00 0.  1.
         11    1    3    3    0    0  0.34352258087E+02 -0.49054743680E+01  0.68655686411E+02  0.76926878209E+02  0.00000000000E+00 0. -1.
</event>
<event>
 7    1  0.6145388E-006  0.1948543E+03  0.7561462E-02  0.1154154E+00
         -2   -1    0    0    0  501 -0.00000000000E+00  0.00000000000E+00  0.87775370201E+02  0.87775370201E+02  0.00000000000E+00 0.  1.
          2   -1    0    0  501    0  0.00000000000E+00 -0.00000000000E+00 -0.58825051713E+03  0.58825051713E+03  0.00000000000E+00 0. -1.
         23    2    1    2    0    0 -0.18021417409E+03  0.25396863990E+02 -0.35193949065E+03  0.40988204179E+03  0.10497492017E+03 0.  0.
          5    1    1    2  502    0  0.14349374581E+03 -0.59606342384E+02 -0.14965418234E+03  0.21577121641E+03  0.41800000000E+01 0.  1.
         -5    1    1    2    0  502  0.36720428278E+02  0.34209478394E+02  0.11185260573E+01  0.50372629130E+02  0.41800000000E+01 0.  1.
        -11    1    3    3    0    0 -0.11277221145E+03  0.28771390336E+02 -0.30816051338E+03  0.32940592979E+03  0.00000000000E+00 0. -1.
         11    1    3    3    0    0 -0.67441962634E+02 -0.33745263460E+01 -0.43778977271E+02  0.80476112001E+02  0.00000000000E+00 0.  1.
</event>
<event>
 7    1  0.6145388E-006  0.1094240E+03  0.7561462E-02  0.1261640E+00
         -2   -1    0    0    0  501 -0.00000000000E+00  0.00000000000E+00  0.32495346020E+02  0.32495346020E+02  0.00000000000E+00 0.  1.
          2   -1    0    0  501    0  0.00000000000E+00 -0.00000000000E+00 -0.39091206812E+03  0.39091206812E+03  0.00000000000E+00 0. -1.
         23    2    1    2    0    0 -0.18076895348E+02 -0.24263478448E+02 -0.17036991634E+03  0.19554005924E+03  0.91074232597E+02 0.  0.
          5    1    1    2  502    0 -0.24048254598E+02  0.64039118010E+02 -0.81232680163E+02  0.10628051520E+03  0.41800000000E+01 0.  1.
         -5    1    1    2    0  502  0.42125149946E+02 -0.39775639562E+02 -0.10681412559E+03  0.12158683969E+03  0.41800000000E+01 0.  1.
        -11    1    3    3    0    0 -0.61325088530E+01 -0.57026540443E+02 -0.13064316674E+03  0.14267890873E+03  0.00000000000E+00 0. -1.
         11    1    3    3    0    0 -0.11944386495E+02  0.32763061995E+02 -0.39726749599E+02  0.52861150514E+02  0.00000000000E+00 0.  1.
</event>
<event>
 7    1  0.6145388E-006  0.1119564E+03  0.7561462E-02  0.1256989E+00
          1   -1    0    0  501    0  0.00000000000E+00  0.00000000000E+00  0.27954310489E+03  0.27954310489E+03  0.00000000000E+00 0. -1.
         -1   -1    0    0    0  501 -0.00000000000E+00 -0.00000000000E+00 -0.13268872882E+03  0.13268872882E+03  0.00000000000E+00 0.  1.
         23    2    1    2    0    0 -0.72035684388E+02  0.30421130210E+02  0.21616597203E+03  0.24927399978E+03  0.96411692827E+02 0.  0.
          5    1    1    2  502    0  0.10627963988E+03 -0.13399678892E+02 -0.39344924094E+02  0.11419460889E+03  0.41800000000E+01 0.  1.
         -5    1    1    2    0  502 -0.34243955494E+02 -0.17021451318E+02 -0.29966671866E+02  0.48763225033E+02  0.41800000000E+01 0.  1.
        -11    1    3    3    0    0 -0.52063280373E+02  0.23276870640E+02  0.22038707808E+03  0.22764635305E+03  0.00000000000E+00 0. -1.
         11    1    3    3    0    0 -0.19972404014E+02  0.71442595702E+01 -0.42211060512E+01  0.21627646733E+02  0.00000000000E+00 0.  1.
</event>
<event>
 7    1  0.6145388E-006  0.1838119E+03  0.7561462E-02  0.1164164E+00
         -1   -1    0    0    0  501 -0.00000000000E+00  0.00000000000E+00  0.10561485089E+03  0.10561485089E+03  0.00000000000E+00 0.  1.
          1   -1    0    0  501    0  0.00000000000E+00 -0.00000000000E+00 -0.33613278665E+03  0.33613278665E+03  0.00000000000E+00 0. -1.
         23    2    1    2    0    0 -0.92035268887E+02  0.12380403527E+03 -0.12650380572E+03  0.21756711187E+03  0.86800376955E+02 0.  0.
          5    1    1    2  502    0  0.15304175087E+02 -0.11332910900E+03 -0.33184351895E+02  0.11914855573E+03  0.41800000000E+01 0. -1.
         -5    1    1    2    0  502  0.76731093800E+02 -0.10474926263E+02 -0.70829778142E+02  0.10503196993E+03  0.41800000000E+01 0. -1.
        -11    1    3    3    0    0 -0.35999426644E+02  0.11296136353E+03 -0.97741679355E+02  0.15365436620E+03  0.00000000000E+00 0. -1.
         11    1    3    3    0    0 -0.56035842242E+02  0.10842671735E+02 -0.28762126368E+02  0.63912745672E+02  0.00000000000E+00 0.  1.
</event>
<event>
 7    1  0.6145388E-006  0.1381787E+03  0.7561462E-02  0.1215801E+00
         -1   -1    0    0    0  501 -0.00000000000E+00  0.00000000000E+00  0.21548448611E+03  0.21548448611E+03  0.00000000000E+00 0.  1.
          1   -1    0    0  501    0  0.00000000000E+00 -0.00000000000E+00 -0.11051698144E+03  0.11051698144E+03  0.00000000000E+00 0. -1.
         23    2    1    2    0    0  0.10316390378E+03  0.14407504905E+02  0.98564877404E+01  0.13746660565E+03  0.89160249430E+02 0.  0.
          5    1    1    2  502    0 -0.55251975871E+02 -0.58426937868E+02  0.97319960021E+01  0.81109013386E+02  0.41800000000E+01 0. -1.
         -5    1    1    2    0  502 -0.47911927910E+02  0.44019432963E+02  0.85379020920E+02  0.10742584851E+03  0.41800000000E+01 0. -1.
        -11    1    3    3    0    0  0.20362639942E+02  0.39225599934E+02  0.23340404157E+02  0.49980588850E+02  0.00000000000E+00 0.  1.
         11    1    3    3    0    0  0.82801263839E+02 -0.24818095029E+02 -0.13483916416E+02  0.87486016804E+02  0.00000000000E+00 0. -1.
</event>
<event>
 7    1  0.6145388E-006  0.1133476E+03  0.7561462E-02  0.1254493E+00
          2   -1    0    0  501    0  0.00000000000E+00  0.00000000000E+00  0.25478633408E+02  0.25478633408E+02  0.00000000000E+00 0. -1.
         -2   -1    0    0    0  501 -0.00000000000E+00 -0.00000000000E+00 -0.56245806084E+03  0.56245806084E+03  0.00000000000E+00 0.  1.
         23    2    1    2    0    0  0.81942800387E+01 -0.41137432592E+02 -0.20357019293E+03  0.22937279273E+03  0.97013504268E+02 0.  0.
          5    1    1    2  502    0 -0.66230059160E+02  0.27517116480E+02 -0.16924684206E+03  0.18386293368E+03  0.41800000000E+01 0.  1.
         -5    1    1    2    0  502  0.58035779121E+02  0.13620316112E+02 -0.16416239244E+03  0.17470096783E+03  0.41800000000E+01 0.  1.
        -11    1    3    3    0    0 -0.26553193967E+01  0.26480168793E+02 -0.19547431996E+02  0.33020480887E+02  0.00000000000E+00 0. -1.
         11    1    3    3    0    0  0.10849599435E+02 -0.67617601385E+02 -0.18402276093E+03  0.19635231184E+03  0.00000000000E+00 0.  1.
</event>
<event>
 7    1  0.6145388E-006  0.1217870E+03  0.7561462E-02  0.1240178E+00
          1   -1    0    0  501    0  0.00000000000E+00  0.00000000000E+00  0.22244166431E+03  0.22244166431E+03  0.00000000000E+00 0. -1.
         -1   -1    0    0    0  501 -0.00000000000E+00 -0.00000000000E+00 -0.10943621771E+03  0.10943621771E+03  0.00000000000E+00 0.  1.
         23    2    1    2    0    0 -0.80772995367E+02 -0.94337722973E+01  0.13711361759E+03  0.18074079934E+03  0.85169358195E+02 0.  0.
          5    1    1    2  502    0  0.65579334273E+02 -0.45319081195E+02  0.16062228210E+02  0.81424417585E+02  0.41800000000E+01 0.  1.
         -5    1    1    2    0  502  0.15193661094E+02  0.54752853493E+02 -0.40170399207E+02  0.69712665101E+02  0.41800000000E+01 0.  1.
        -11    1    3    3    0    0 -0.49633101485E+02  0.28862664630E+02  0.34786606546E+02  0.67131260733E+02  0.00000000000E+00 0.  1.
         11    1    3    3    0    0 -0.31139893882E+02 -0.38296436927E+02  0.10232701104E+03  0.11360953860E+03  0.00000000000E+00 0. -1.
</event>
<event>
 7    1  0.6145388E-006  0.3315726E+03  0.7561462E-02  0.1070443E+00
         -1   -1    0    0    0  501 -0.00000000000E+00  0.00000000000E+00  0.28308466568E+03  0.28308466568E+03  0.00000000000E+00 0.  1.
          1   -1    0    0  501    0  0.00000000000E+00 -0.00000000000E+00 -0.44077577186E+03  0.44077577186E+03  0.00000000000E+00 0. -1.
         23    2    1    2    0    0  0.27187538654E+03 -0.18188242061E+03 -0.15578583557E+03  0.37364712478E+03  0.91353744082E+02 0.  0.
          5    1    1    2  502    0 -0.12053762731E+03  0.64211235881E+02 -0.60900724972E+02  0.14959536461E+03  0.41800000000E+01 0.  1.
         -5    1    1    2    0  502 -0.15133775922E+03  0.11767118473E+03  0.58995454364E+02  0.20061794815E+03  0.41800000000E+01 0.  1.
        -11    1    3    3    0    0  0.76894023685E+02 -0.92445605240E+02 -0.26321137863E+02  0.12309217321E+03  0.00000000000E+00 0.  1.
         11    1    3    3    0    0  0.19498136285E+03 -0.89436815373E+02 -0.12946469771E+03  0.25055495157E+03  0.00000000000E+00 0. -1.
</event>
<event>
 7    1  0.6145388E-006  0.9143341E+02  0.7561462E-02  0.1299417E+00
         -2   -1    0    0    0  501 -0.00000000000E+00  0.00000000000E+00  0.71905406635E+02  0.71905406635E+02  0.00000000000E+00 0.  1.
          2   -1    0    0  501    0  0.00000000000E+00 -0.00000000000E+00 -0.23509903656E+03  0.23509903656E+03  0.00000000000E+00 0. -1.
         23    2    1    2    0    0 -0.38547665187E+02  0.14392051142E+02 -0.14399882582E+03  0.17392582432E+03  0.88439114087E+02 0.  0.
          5    1    1    2  502    0 -0.36793083701E+02 -0.20901540385E+02 -0.35750500505E+02  0.55553362500E+02  0.41800000000E+01 0.  1.
         -5    1    1    2    0  502  0.75340748888E+02  0.65094892423E+01  0.16555696398E+02  0.77525256378E+02  0.41800000000E+01 0.  1.
        -11    1    3    3    0    0 -0.40920159311E+02 -0.83329045767E+01 -0.17330529277E+02  0.45213316421E+02  0.00000000000E+00 0.  1.
         11    1    3    3    0    0  0.23724941240E+01  0.22724955719E+02 -0.12666829654E+03  0.12871250790E+03  0.00000000000E+00 0. -1.
</event>
<event>
 7    1  0.6145388E-006  0.1304135E+03  0.7561462E-02  0.1226843E+00
          2   -1    0    0  501    0  0.00000000000E+00  0.00000000000E+00  0.32826146470E+03  0.32826146470E+03  0.00000000000E+00 0. -1.
         -2   -1    0    0    0  501 -0.00000000000E+00 -0.00000000000E+00 -0.97089526465E+02  0.97089526465E+02  0.00000000000E+00 0.  1.
         23    2    1    2    0    0 -0.63206496041E+02  0.92410996926E+02  0.21127390146E+03  0.25629824844E+03  0.92289095896E+02 0.  0.
          5    1    1    2  502    0  0.11638657640E+02 -0.65823254477E+02 -0.45926759587E+02  0.81208982433E+02  0.41800000000E+01 0. -1.
         -5    1    1    2    0  502  0.51567838401E+02 -0.26587742449E+02  0.65824796362E+02  0.87843760291E+02  0.41800000000E+01 0. -1.
        -11    1    3    3    0    0 -0.22655216526E+02  0.92394940684E+02  0.18486245917E+03  0.20790433548E+03  0.00000000000E+00 0. -1.
         11    1    3    3    0    0 -0.40551279515E+02  0.16056241781E-01  0.26411442288E+02  0.48393912963E+02  0.00000000000E+00 0.  1.
</event>
<event>
 7    1  0.6145388E-006  0.1064746E+03  0.7561462E-02  0.1267241E+00
         -1   -1    0    0    0  501 -0.00000000000E+00  0.00000000000E+00  0.24775142140E+03  0.24775142140E+03  0.00000000000E+00 0.  1.
          1   -1    0    0  501    0  0.00000000000E+00 -0.00000000000E+00 -0.11664147672E+03  0.11664147672E+03  0.00000000000E+00 0. -1.
         23    2    1    2    0    0  0.14469844028E+02 -0.38343278760E+02 -0.72201310849E+02  0.12218708289E+03  0.89649710115E+02 0.  0.
          5    1    1    2  502    0  0.13425440133E+02  0.71017909675E+02  0.17801727313E+03  0.19217546116E+03  0.41800000000E+01 0. -1.
         -5    1    1    2    0  502 -0.27895284161E+02 -0.32674630915E+02  0.25293982399E+02  0.50030354081E+02  0.41800000000E+01 0. -1.
        -11    1    3    3    0    0  0.51894018522E+02 -0.19027276133E+02 -0.50224297019E+02  0.74682704868E+02  0.00000000000E+00 0.  1.
         11    1    3    3    0    0 -0.37424174494E+02 -0.19316002627E+02 -0.21977013830E+02  0.47504378019E+02  0.00000000000E+00 0. -1.
</event>
<event>
 7    1  0.6145388E-006  0.8317880E+02  0.7561462E-02  0.1320265E+00
          4   -1    0    0  501    0  0.00000000000E+00  0.00000000000E+00  0.14316838803E+03  0.14316838803E+03  0.00000000000E+00 0. -1.
         -4   -1    0    0    0  501 -0.00000000000E+00 -0.00000000000E+00 -0.93279475457E+02  0.93279475457E+02  0.00000000000E+00 0.  1.
         23    2    1    2    0    0  0.46268294284E+02 -0.59704864943E+01  0.32674004144E+02  0.10183655864E+03  0.84419739187E+02 0.  0.
          5    1    1    2  502    0  0.28055710758E+02  0.21053675555E+02 -0.28998364559E+02  0.45702928873E+02  0.41800000000E+01 0. -1.
         -5    1    1    2    0  502 -0.74324005042E+02 -0.15083189060E+02  0.46213272991E+02  0.88908375974E+02  0.41800000000E+01 0. -1.
        -11    1    3    3    0    0  0.63244109808E+01 -0.13059629004E+02 -0.26428903313E+02  0.30150273868E+02  0.00000000000E+00 0.  1.
         11    1    3    3    0    0  0.39943883303E+02  0.70891425099E+01  0.59102907458E+02  0.71686284775E+02  0.00000000000E+00 0. -1.
</event>
<event>
 7    1  0.6145388E-006  0.9804291E+02  0.7561462E-02  0.1284466E+00
          2   -1    0    0  501    0  0.00000000000E+00  0.00000000000E+00  0.69762359656E+03  0.69762359656E+03  0.00000000000E+00 0. -1.
         -2   -1    0    0    0  501 -0.00000000000E+00 -0.00000000000E+00 -0.28276622924E+02  0.28276622924E+02  0.00000000000E+00 0.  1.
         23    2    1    2    0    0  0.13809187747E+02  0.52790250488E+02  0.48318792327E+03  0.49507504509E+03  0.93011971602E+02 0.  0.
          5    1    1    2  502    0 -0.33346489981E+02  0.12278876028E+01  0.16666021520E+03  0.17001939840E+03  0.41800000000E+01 0.  1.
         -5    1    1    2    0  502  0.19537302235E+02 -0.54018138091E+02  0.19498835162E+02  0.60805775993E+02  0.41800000000E+01 0.  1.
        -11    1    3    3    0    0 -0.91239301636E+01  0.73438047590E+02  0.38850794623E+03  0.39549313170E+03  0.00000000000E+00 0. -1.
         11    1    3    3    0    0  0.22933117910E+02 -0.20647797102E+02  0.94679977042E+02  0.99581913393E+02  0.00000000000E+00 0.  1.
</event>
<event>
 7    1  0.6145388E-006  0.1251428E+03  0.7561462E-02  0.1234846E+00
         -2   -1    0    0    0  501 -0.00000000000E+00  0.00000000000E+00  0.82659793396E+03  0.82659793396E+03  0.00000000000E+00 0.  1.
          2   -1    0    0  501    0  0.00000000000E+00 -0.00000000000E+00 -0.20842367294E+02  0.20842367294E+02  0.00000000000E+00 0. -1.
         23    2    1    2    0    0  0.67560548266E+02 -0.26177244498E+02  0.39889866215E+03  0.41566517931E+03  0.91693635641E+02 0.  0.
          5    1    1    2  502    0  0.16819362629E+02 -0.31420101241E+02  0.57637562419E+02  0.67894585372E+02  0.41800000000E+01 0. -1.
         -5    1    1    2    0  502 -0.84379910896E+02  0.57597345739E+02  0.34921934210E+03  0.36388053657E+03  0.41800000000E+01 0. -1.
        -11    1    3    3    0    0 -0.76524953842E+01 -0.35544865857E+02  0.79869601584E+02  0.87756204519E+02  0.00000000000E+00 0.  1.
         11    1    3    3    0    0  0.75213043650E+02  0.93676213591E+01  0.31902906057E+03  0.32790897479E+03  0.00000000000E+00 0. -1.
</event>
<event>
 7    1  0.6145388E-006  0.9303274E+02  0.7561462E-02  0.1295669E+00
         -2   -1    0    0    0  501 -0.00000000000E+00  0.00000000000E+00  0.10557200919E+03  0.10557200919E+03  0.00000000000E+00 0.  1.
          2   -1    0    0  501    0  0.00000000000E+00 -0.00000000000E+00 -0.11845972935E+03  0.11845972935E+03  0.00000000000E+00 0. -1.
         23    2    1    2    0    0 -0.20399410093E+01 -0.29244314575E+02 -0.56288942362E+01  0.95346450347E+02  0.90553132741E+02 0.  0.
          5    1    1    2  502    0  0.57193424879E+02 -0.11277677904E+02  0.63256853952E+01  0.58785717347E+02  0.41800000000E+01 0. -1.
         -5    1    1    2    0  502 -0.55153483870E+02  0.40521992479E+02 -0.13584511321E+02  0.69899570852E+02  0.41800000000E+01 0. -1.
        -11    1    3    3    0    0  0.19206948076E+02  0.39820786658E+01  0.34117001822E+02  0.39353953019E+02  0.00000000000E+00 0.  1.
         11    1    3    3    0    0 -0.21246889085E+02 -0.33226393240E+02 -0.39745896058E+02  0.55992497328E+02  0.00000000000E+00 0. -1.
</event>
<event>
 7    1  0.6145388E-006  0.1161695E+03  0.7561462E-02  0.1249553E+00
          1   -1    0    0  501    0  0.00000000000E+00  0.00000000000E+00  0.21559483302E+03  0.21559483302E+03  0.00000000000E+00 0. -1.
         -1   -1    0    0    0  501 -0.00000000000E+00 -0.00000000000E+00 -0.83281927314E+02  0.83281927314E+02  0.00000000000E+00 0.  1.
         23    2    1    2    0    0 -0.23846859702E+02  0.47881190485E+02  0.12565309722E+03  0.16266691542E+03  0.88377278813E+02 0.  0.
          5    1    1    2  502    0 -0.16156588167E+02 -0.81716055298E+02  0.64182425981E+01  0.83649359069E+02  0.41800000000E+01 0.  1.
         -5    1    1    2    0  502  0.40003447869E+02  0.33834864812E+02  0.24156588514E+00  0.52560485846E+02  0.41800000000E+01 0.  1.
        -11    1    3    3    0    0  0.24149939066E+02  0.41420611183E+02  0.33269073768E+02  0.58358528572E+02  0.00000000000E+00 0.  1.
         11    1    3    3    0    0 -0.47996798769E+02  0.64605793020E+01  0.92384023456E+02  0.10430838685E+03  0.00000000000E+00 0. -1.
</event>
<event>
 7    1  0.6145388E-006  0.8028540E+02  0.7561462E-02  0.1328243E+00
         -1   -1    0    0    0  501 -0.00000000000E+00  0.00000000000E+00  0.14704590209E+03  0.14704590209E+03  0.00000000000E+00 0.  1.
          1   -1    0    0  501    0  0.00000000000E+00 -0.00000000000E+00 -0.95977645679E+02  0.95977645679E+02  0.00000000000E+00 0. -1.
         23    2    1    2    0    0  0.22585302311E+02 -0.24366371436E+00 -0.23520451971E+02  0.95641879277E+02  0.89911079174E+02 0.  0.
          5    1    1    2  502    0 -0.79870849861E+01 -0.31551714922E+02 -0.25316394827E+02  0.41445102100E+02  0.41800000000E+01 0.  1.
         -5    1    1    2    0  502 -0.14598217325E+02  0.31795378636E+02  0.99905103211E+02  0.10593656639E+03  0.41800000000E+01 0.  1.
        -11    1    3    3    0    0  0.16905663363E+02 -0.44655104080E+02 -0.91314793548E+01  0.48613410592E+02  0.00000000000E+00 0.  1.
         11    1    3    3    0    0  0.56796389479E+01  0.44411440366E+02 -0.14388972616E+02  0.47028468685E+02  0.00000000000E+00 0. -1.
</event>
<event>
 7    1  0.6145388E-006  0.1347263E+03  0.7561462E-02  0.1220607E+00
         -1   -1    0    0    0  501 -0.00000000000E+00  0.00000000000E+00  0.44136118501E+02  0.44136118501E+02  0.00000000000E+00 0.  1.
          1   -1    0    0  501    0  0.00000000000E+00 -0.00000000000E+00 -0.68429008031E+03  0.68429008031E+03  0.00000000000E+00 0. -1.
         23    2    1    2    0    0 -0.13852578636E+02 -0.11514891582E+03 -0.44556825049E+03  0.46964798269E+03  0.92666040424E+02 0.  0.
          5    1    1    2  502    0  0.23452004626E+02 -0.11159684655E+02 -0.92105318690E+02  0.95788293719E+02  0.41800000000E+01 0.  1.
         -5    1    1    2    0  502 -0.95994259905E+01  0.12630860047E+03 -0.10248039262E+03  0.16298992240E+03  0.41800000000E+01 0.  1.
        -11    1    3    3    0    0 -0.41620800012E+01 -0.74523915688E+02 -0.40358483283E+03  0.41042886620E+03  0.00000000000E+00 0. -1.
         11    1    3    3    0    0 -0.96904986345E+01 -0.40625000128E+02 -0.41983417665E+02  0.59219116491E+02  0.00000000000E+00 0.  1.
</event>
<event>
 7    1  0.6145388E-006  0.1116567E+03  0.7561462E-02  0.1257532E+00
          1   -1    0    0  501    0  0.00000000000E+00  0.00000000000E+00  0.84382977362E+03  0.84382977362E+03  0.00000000000E+00 0. -1.
         -1   -1    0    0    0  501 -0.00000000000E+00 -0.00000000000E+00 -0.18892698004E+02  0.18892698004E+02  0.00000000000E+00 0.  1.
         23    2    1    2    0    0 -0.19003357941E+02  0.39521169670E+02  0.53048243356E+03  0.53980732041E+03  0.89762355051E+02 0.  0.
          5    1    1    2  502    0  0.17411889225E+02 -0.80541909204E+02  0.13508029445E+03  0.15828560065E+03  0.41800000000E+01 0. -1.
         -5    1    1    2    0  502  0.15914687156E+01  0.41020739534E+02  0.15937434761E+03  0.16462955056E+03  0.41800000000E+01 0. -1.
        -11    1    3    3    0    0 -0.44036374740E+02 -0.89966641086E+01  0.26251466039E+03  0.26633454373E+03  0.00000000000E+00 0.  1.
         11    1    3    3    0    0  0.25033016799E+02  0.48517833778E+02  0.26796777317E+03  0.27347277668E+03  0.00000000000E+00 0. -1.
</event>
<event>
 7    1  0.6145388E-006  0.1058968E+03  0.7561462E-02  0.1268363E+00
          2   -1    0    0  501    0  0.00000000000E+00  0.00000000000E+00  0.37818649426E+03  0.37818649426E+03  0.00000000000E+00 0. -1.
         -2   -1    0    0    0  501 -0.00000000000E+00 -0.00000000000E+00 -0.64844799592E+02  0.64844799592E+02  0.00000000000E+00 0.  1.
         23    2    1    2    0    0 -0.56903266258E+02 -0.46151363222E+02  0.26583138844E+03  0.29047793226E+03  0.91340965701E+02 0.  0.
          5    1    1    2  502    0  0.42144739613E+02 -0.14921235943E+02  0.72111242343E+02  0.84948961332E+02  0.41800000000E+01 0. -1.
         -5    1    1    2    0  502  0.14758526645E+02  0.61072599165E+02 -0.24600936108E+02  0.67604400262E+02  0.41800000000E+01 0. -1.
        -11    1    3    3    0    0 -0.14651295290E+02 -0.58175023546E+02  0.82801815945E+02  0.10225035228E+03  0.00000000000E+00 0.  1.
         11    1    3    3    0    0 -0.42251970968E+02  0.12023660324E+02  0.18302957249E+03  0.18822757998E+03  0.00000000000E+00 0. -1.
</event>
<event>
 7    1  0.6145388E-006  0.8748973E+02  0.7561462E-02  0.1309047E+00
         -1   -1    0    0    0  501 -0.00000000000E+00  0.00000000000E+00  0.87732592764E+02  0.87732592764E+02  0.00000000000E+00 0.  1.
          1   -1    0    0  501    0  0.00000000000E+00 -0.00000000000E+00 -0.21324454050E+03  0.21324454050E+03  0.00000000000E+00 0. -1.
         23    2    1    2    0    0 -0.71439841584E+02 -0.41140116173E+01 -0.66172610199E+02  0.14508122634E+03  0.10746707327E+03 0.  0.
          5    1    1    2  502    0  0.67776399053E+02  0.96678930426E+00  0.24213318296E+02  0.72099460006E+02  0.41800000000E+01 0. -1.
         -5    1    1    2    0  502  0.36634425309E+01  0.31472223131E+01 -0.83552655835E+02  0.83796446921E+02  0.41800000000E+01 0. -1.
        -11    1    3    3    0    0 -0.15551754898E+02  0.30995967920E+02  0.17229474246E+02  0.38722885875E+02  0.00000000000E+00 0.  1.
         11    1    3    3    0    0 -0.55888086686E+02 -0.35109979537E+02 -0.83402084445E+02  0.10635834046E+03  0.00000000000E+00 0. -1.
</event>
<event>
 7    1  0.6145388E-006  0.1336668E+03  0.7561462E-02  0.1222114E+00
         -2   -1    0    0    0  501 -0.00000000000E+00  0.00000000000E+00  0.40881131441E+03  0.40881131441E+03  0.00000000000E+00 0.  1.
          2   -1    0    0  501    0  0.00000000000E+00 -0.00000000000E+00 -0.87016656535E+02  0.87016656535E+02  0.00000000000E+00 0. -1.
         23    2    1    2    0    0  0.91262764610E+02 -0.14481215333E+02 -0.89780477652E+01  0.13032096276E+03  0.91456821456E+02 0.  0.
          5    1    1    2  502    0 -0.11377578647E+03  0.16246384910E+02  0.32019523997E+03  0.34022248413E+03  0.41800000000E+01 0. -1.
         -5    1    1    2    0  502  0.22513021858E+02 -0.17651695771E+01  0.10577465674E+02  0.25284524059E+02  0.41800000000E+01 0. -1.
        -11    1    3    3    0    0  0.53503586380E+02 -0.53079196219E+02 -0.11639396127E+02  0.76259493632E+02  0.00000000000E+00 0.  1.
         11    1    3    3    0    0  0.37759178230E+02  0.38597980886E+02  0.26613483617E+01  0.54061469127E+02  0.00000000000E+00 0. -1.
</event>
<event>
 7    1  0.6145388E-006  0.1082703E+03  0.7561462E-02  0.1263807E+00
          2   -1    0    0  501    0  0.00000000000E+00  0.00000000000E+00  0.13297654094E+03  0.13297654094E+03  0.00000000000E+00 0.  1.
         -2   -1    0    0    0  501 -0.00000000000E+00 -0.00000000000E+00 -0.10265808707E+03  0.10265808707E+03  0.00000000000E+00 0. -1.
         23    2    1    2    0    0  0.10770348889E+02 -0.38304909135E+02  0.27115358927E+02  0.10433664323E+03  0.92561471208E+02 0.  0.
          5    1    1    2  502    0  0.54539546794E+02  0.35286344549E+02 -0.49404134734E+01  0.65280689039E+02  0.41800000000E+01 0. -1.
         -5    1    1    2    0  502 -0.65309895683E+02  0.30185645863E+01  0.81435084170E+01  0.66017295731E+02  0.41800000000E+01 0. -1.
        -11    1    3    3    0    0 -0.29074080067E+02 -0.35648204954E+02 -0.12929715784E+02  0.47783618516E+02  0.00000000000E+00 0.  1.
         11    1    3    3    0    0  0.39844428956E+02 -0.26567041814E+01  0.40045074711E+02  0.56553024717E+02  0.00000000000E+00 0. -1.
</event>
<event>
 7    1  0.6145388E-006  0.1437925E+03  0.7561462E-02  0.1208315E+00
         -1   -1    0    0    0  501 -0.00000000000E+00  0.00000000000E+00  0.43022752100E+02  0.43022752100E+02  0.00000000000E+00 0.  1.
          1   -1    0    0  501    0  0.00000000000E+00 -0.00000000000E+00 -0.69703500031E+03  0.69703500031E+03  0.00000000000E+00 0. -1.
         23    2    1    2    0    0 -0.12575362674E+03 -0.47709875974E+02 -0.28507438312E+03  0.32792598643E+03  0.90431420195E+02 0.  0.
          5    1    1    2  502    0  0.72041549394E+02  0.46777319310E+02 -0.77536774411E+02  0.11579087281E+03  0.41800000000E+01 0.  1.
         -5    1    1    2    0  502  0.53712077349E+02  0.93255666408E+00 -0.29140109068E+03  0.29634089317E+03  0.41800000000E+01 0.  1.
        -11    1    3    3    0    0 -0.85191087873E+02 -0.61270052906E+02 -0.25469576733E+03  0.27546592299E+03  0.00000000000E+00 0. -1.
         11    1    3    3    0    0 -0.40562538871E+02  0.13560176931E+02 -0.30378615793E+02  0.52460063434E+02  0.00000000000E+00 0.  1.
</event>
<event>
 7    1  0.6145388E-006  0.1908853E+03  0.7561462E-02  0.1157665E+00
         -1   -1    0    0    0  501 -0.00000000000E+00  0.00000000000E+00  0.47995257254E+03  0.47995257254E+03  0.00000000000E+00 0.  1.
          1   -1    0    0  501    0  0.00000000000E+00 -0.00000000000E+00 -0.15920552744E+03  0.15920552744E+03  0.00000000000E+00 0. -1.
         23    2    1    2    0    0 -0.16244998036E+03 -0.97459911374E+02 -0.39462704192E+02  0.21337862844E+03  0.89914979896E+02 0.  0.
          5    1    1    2  502    0  0.40534415683E+02  0.28950433730E+02  0.22755259382E+03  0.23297815739E+03  0.41800000000E+01 0.  1.
         -5    1    1    2    0  502  0.12191556468E+03  0.68509477644E+02  0.13265715547E+03  0.19280131414E+03  0.41800000000E+01 0.  1.
        -11    1    3    3    0    0 -0.60228623066E+02 -0.19460930340E+02 -0.55012959698E+02  0.83860840569E+02  0.00000000000E+00 0. -1.
         11    1    3    3    0    0 -0.10222135730E+03 -0.77998981034E+02  0.15550255506E+02  0.12951778787E+03  0.00000000000E+00 0.  1.
</event>
<event>
 7    1  0.6145388E-006  0.1081350E+03  0.7561462E-02  0.1264063E+00
         -2   -1    0    0    0  501 -0.00000000000E+00  0.00000000000E+00  0.26051382401E+03  0.26051382401E+03  0.00000000000E+00 0.  1.
          2   -1    0    0  501    0  0.00000000000E+00 -0.00000000000E+00 -0.62648721045E+02  0.62648721045E+02  0.00000000000E+00 0. -1.
         23    2    1    2    0    0 -0.80755851161E+01  0.74071762052E+02  0.81328248768E+02  0.14343532143E+03  0.91692782590E+02 0.  0.
          5    1    1    2  502    0  0.31793422664E+02 -0.74149686516E+01 -0.10252808139E+02  0.34473119376E+02  0.41800000000E+01 0. -1.
         -5    1    1    2    0  502 -0.23717837548E+02 -0.66656793401E+02  0.12678966233E+03  0.14525410424E+03  0.41800000000E+01 0.  1.
        -11    1    3    3    0    0 -0.42665663388E+02  0.63144946804E+02  0.33095250223E+02  0.83083925801E+02  0.00000000000E+00 0. -1.
         11    1    3    3    0    0  0.34590078272E+02  0.10926815249E+02  0.48232998545E+02  0.60351395634E+02  0.00000000000E+00 0.  1.
</event>
<event>
 7    1  0.6145388E-006  0.1027402E+03  0.7561462E-02  0.1274637E+00
         -1   -1    0    0    0  501 -0.00000000000E+00  0.00000000000E+00  0.77469071927E+03  0.77469071927E+03  0.00000000000E+00 0.  1.
          1   -1    0    0  501    0  0.00000000000E+00 -0.00000000000E+00 -0.17661761876E+02  0.17661761876E+02  0.00000000000E+00 0. -1.
         23    2    1    2    0    0 -0.29316520607E+02  0.32328909775E+02  0.32270862261E+03  0.33827532464E+03  0.91568135091E+02 0.  0.
          5    1    1    2  502    0  0.68439363904E+02 -0.12643233642E+02  0.36762339833E+03  0.37417674071E+03  0.41800000000E+01 0. -1.
         -5    1    1    2    0  502 -0.39122843297E+02 -0.19685676133E+02  0.66696936454E+02  0.79900415799E+02  0.41800000000E+01 0. -1.
        -11    1    3    3    0    0  0.72154191865E+01 -0.23756620265E+02  0.35181727044E+02  0.43060343685E+02  0.00000000000E+00 0.  1.
         11    1    3    3    0    0 -0.36531939793E+02  0.56085530041E+02  0.28752689557E+03  0.29521498096E+03  0.00000000000E+00 0. -1.
</event>
<event>
 7    1  0.6145388E-006  0.1171449E+03  0.7561462E-02  0.1247883E+00
         -1   -1    0    0    0  501 -0.00000000000E+00  0.00000000000E+00  0.57639472084E+02  0.57639472084E+02  0.00000000000E+00 0.  1.
          1   -1    0    0  501    0  0.00000000000E+00 -0.00000000000E+00 -0.27430649803E+03  0.27430649803E+03  0.00000000000E+00 0. -1.
         23    2    1    2    0    0  0.51373856785E+02  0.25882650166E+02 -0.13310159498E+03  0.17087102260E+03  0.90397384016E+02 0.  0.
          5    1    1    2  502    0 -0.91452081240E+02 -0.17686174545E+02 -0.40891378528E+02  0.10181287331E+03  0.41800000000E+01 0.  1.
         -5    1    1    2    0  502  0.40078224455E+02 -0.81964756203E+01 -0.42674052435E+02  0.59262074207E+02  0.41800000000E+01 0.  1.
        -11    1    3    3    0    0 -0.15847548874E+02  0.28551007390E+02 -0.75674608761E+02  0.82419362042E+02  0.00000000000E+00 0. -1.
         11    1    3    3    0    0  0.67221405659E+02 -0.26683572240E+01 -0.57426986222E+02  0.88451660559E+02  0.00000000000E+00 0.  1.
</event>
<event>
 7    1  0.6145388E-006  0.9996220E+02  0.7561462E-02  0.1280375E+00
         -2   -1    0    0    0  501 -0.00000000000E+00  0.00000000000E+00  0.10234056196E+04  0.10234056196E+04  0.00000000000E+00 0.  1.
          2   -1    0    0  501    0  0.00000000000E+00 -0.00000000000E+00 -0.13749847358E+02  0.13749847358E+02  0.00000000000E+00 0. -1.
         23    2    1    2    0    0 -0.33656608343E+02 -0.35582254809E+01  0.22485254554E+03  0.24172528868E+03  0.82018410724E+02 0.  0.
          5    1    1    2  502    0  0.49184846612E+02  0.56046654951E+02  0.44838815488E+03  0.45456549199E+03  0.41800000000E+01 0. -1.
         -5    1    1    2    0  502 -0.15528238269E+02 -0.52488429470E+02  0.33641507179E+03  0.34086468626E+03  0.41800000000E+01 0. -1.
        -11    1    3    3    0    0 -0.46970219114E+02  0.13342037131E+02  0.20995082065E+03  0.21555407333E+03  0.00000000000E+00 0.  1.
         11    1    3    3    0    0  0.13313610771E+02 -0.16900262612E+02  0.14901724891E+02  0.26171215349E+02  0.00000000000E+00 0. -1.
</event>
<event>
 7    1  0.6145388E-006  0.1453924E+03  0.7561462E-02  0.1206252E+00
         -1   -1    0    0    0  501 -0.00000000000E+00  0.00000000000E+00  0.15160699613E+03  0.15160699613E+03  0.00000000000E+00 0.  1.
          1   -1    0    0  501    0  0.00000000000E+00 -0.00000000000E+00 -0.16289381579E+03  0.16289381579E+03  0.00000000000E+00 0. -1.
         23    2    1    2    0    0  0.10627704005E+03 -0.32272292610E+02 -0.29785497156E+02  0.14619751341E+03  0.90278607506E+02 0.  0.
          5    1    1    2  502    0 -0.78257215673E+02  0.67555441726E+02 -0.24012971594E+02  0.10621687586E+03  0.41800000000E+01 0.  1.
         -5    1    1    2    0  502 -0.28019824380E+02 -0.35283149116E+02  0.42511649091E+02  0.62086422657E+02  0.41800000000E+01 0.  1.
        -11    1    3    3    0    0  0.20533438117E+02  0.29818495597E+02 -0.15464793540E+02  0.39369081775E+02  0.00000000000E+00 0. -1.
         11    1    3    3    0    0  0.85743601936E+02 -0.62090788207E+02 -0.14320703615E+02  0.10682843163E+03  0.00000000000E+00 0.  1.
</event>
<event>
 7    1  0.6145388E-006  0.1712247E+03  0.7561462E-02  0.1176577E+00
          2   -1    0    0  501    0  0.00000000000E+00  0.00000000000E+00  0.10642683750E+04  0.10642683750E+04  0.00000000000E+00 0. -1.
         -2   -1    0    0    0  501 -0.00000000000E+00 -0.00000000000E+00 -0.37205993973E+02  0.37205993973E+02  0.00000000000E+00 0.  1.
         23    2    1    2    0    0  0.12906861768E+03  0.76342445564E+02  0.68616971341E+03  0.70860891355E+03  0.93866073152E+02 0.  0.
          5    1    1    2  502    0 -0.14956853916E+03 -0.56998285827E+02  0.31901237175E+03  0.35693965627E+03  0.41800000000E+01 0. -1.
         -5    1    1    2    0  502  0.20499921477E+02 -0.19344159738E+02  0.21880295832E+02  0.35925799117E+02  0.41800000000E+01 0. -1.
        -11    1    3    3    0    0  0.38628581710E+02  0.56295059288E+01  0.57220116713E+02  0.69267600063E+02  0.00000000000E+00 0.  1.
         11    1    3    3    0    0  0.90440035971E+02  0.70712939636E+02  0.62894959670E+03  0.63934131348E+03  0.00000000000E+00 0. -1.
</event>
<event>
 7    1  0.6145388E-006  0.1218058E+03  0.7561462E-02  0.1240148E+00
         -1   -1    0    0    0  501 -0.00000000000E+00  0.00000000000E+00  0.62393969702E+03  0.62393969702E+03  0.00000000000E+00 0.  1.
          1   -1    0    0  501    0  0.00000000000E+00 -0.00000000000E+00 -0.38434011304E+02  0.38434011304E+02  0.00000000000E+00 0. -1.
         23    2    1    2    0    0 -0.28314070662E+02  0.53659394089E+02  0.70882406375E+02  0.12930218423E+03  0.89519395338E+02 0.  0.
          5    1    1    2  502    0 -0.48973668983E+02 -0.31349261179E+02  0.22939674099E+03  0.23668868500E+03  0.41800000000E+01 0. -1.
         -5    1    1    2    0  502  0.77287739645E+02 -0.22310132910E+02  0.28522653835E+03  0.29638283909E+03  0.41800000000E+01 0. -1.
        -11    1    3    3    0    0 -0.59019192498E+02  0.38963705084E+02  0.62174678434E+02  0.94165418468E+02  0.00000000000E+00 0.  1.
         11    1    3    3    0    0  0.30705121836E+02  0.14695689005E+02  0.87077279409E+01  0.35136765762E+02  0.00000000000E+00 0. -1.
</event>
<event>
 7    1  0.6145388E-006  0.1051038E+03  0.7561462E-02  0.1269915E+00
         -4   -1    0    0    0  501 -0.00000000000E+00  0.00000000000E+00  0.24401076894E+02  0.24401076894E+02  0.00000000000E+00 0.  1.
          4   -1    0    0  501    0  0.00000000000E+00 -0.00000000000E+00 -0.53304974430E+03  0.53304974430E+03  0.00000000000E+00 0. -1.
         23    2    1    2    0    0 -0.59633720477E+00  0.55509274477E+02 -0.22693851699E+03  0.24425839949E+03  0.71270190518E+02 0.  0.
          5    1    1    2  502    0 -0.53626505995E+02 -0.18529490949E+02 -0.63361014221E+02  0.85154181948E+02  0.41800000000E+01 0. -1.
         -5    1    1    2    0  502  0.54222843200E+02 -0.36979783528E+02 -0.21834913619E+03  0.22803823976E+03  0.41800000000E+01 0. -1.
        -11    1    3    3    0    0 -0.15291645487E+02  0.67108948650E+02 -0.14941360659E+03  0.16450492772E+03  0.00000000000E+00 0.  1.
         11    1    3    3    0    0  0.14695308282E+02 -0.11599674173E+02 -0.77524910401E+02  0.79753471768E+02  0.00000000000E+00 0. -1.
</event>
<event>
 7    1  0.6145388E-006  0.1660127E+03  0.7561462E-02  0.1182071E+00
          1   -1    0    0  501    0  0.00000000000E+00  0.00000000000E+00  0.21868710912E+03  0.21868710912E+03  0.00000000000E+00 0. -1.
         -1   -1    0    0    0  501 -0.00000000000E+00 -0.00000000000E+00 -0.16665053378E+03  0.16665053378E+03  0.00000000000E+00 0.  1.
         23    2    1    2    0    0  0.12147902673E+03  0.89673755500E+02  0.67200706003E+02  0.18867743858E+03  0.91020352573E+02 0.  0.
          5    1    1    2  502    0 -0.87588487593E+02 -0.42263980578E+02  0.49754829664E+02  0.10932064164E+03  0.41800000000E+01 0.  1.
         -5    1    1    2    0  502 -0.33890539133E+02 -0.47409774923E+02 -0.64918960322E+02  0.87339562686E+02  0.41800000000E+01 0.  1.
        -11    1    3    3    0    0  0.10084857717E+03  0.18986719787E+02  0.36951603090E+02  0.10907039936E+03  0.00000000000E+00 0.  1.
         11    1    3    3    0    0  0.20630449557E+02  0.70687035713E+02  0.30249102913E+02  0.79607039223E+02  0.00000000000E+00 0. -1.
</event>
<event>
 7    1  0.6145388E-006  0.9695483E+02  0.7561462E-02  0.1286833E+00
         -2   -1    0    0    0  501 -0.00000000000E+00  0.00000000000E+00  0.20638799002E+03  0.20638799002E+03  0.00000000000E+00 0.  1.
          2   -1    0    0  501    0  0.00000000000E+00 -0.00000000000E+00 -0.61350121450E+02  0.61350121450E+02  0.00000000000E+00 0. -1.
         23    2    1    2    0    0  0.18287984954E+01  0.17464246565E+01  0.18841342934E+02  0.90033441717E+02  0.88003579023E+02 0.  0.
          5    1    1    2  502    0 -0.96782039196E+01 -0.62575167916E+02  0.59317652547E+02  0.86864121331E+02  0.41800000000E+01 0. -1.
         -5    1    1    2    0  502  0.78494054242E+01  0.60828743260E+02  0.66878873091E+02  0.90840548424E+02  0.41800000000E+01 0. -1.
        -11    1    3    3    0    0  0.19353160485E+02 -0.28246217717E+02  0.37352880016E+02  0.50671799668E+02  0.00000000000E+00 0.  1.
         11    1    3    3    0    0 -0.17524361990E+02  0.29992642374E+02 -0.18511537081E+02  0.39361642050E+02  0.00000000000E+00 0. -1.
</event>
<event>
 7    1  0.6145388E-006  0.1284598E+03  0.7561462E-02  0.1229759E+00
          1   -1    0    0  501    0  0.00000000000E+00  0.00000000000E+00  0.15886164087E+03  0.15886164087E+03  0.00000000000E+00 0. -1.
         -1   -1    0    0    0  501 -0.00000000000E+00 -0.00000000000E+00 -0.39499908533E+03  0.39499908533E+03  0.00000000000E+00 0.  1.
         23    2    1    2    0    0 -0.11959093442E+02 -0.29737196859E+02  0.11350050572E+03  0.14688583085E+03  0.87554335763E+02 0.  0.
          5    1    1    2  502    0  0.30916048570E+01 -0.88986931343E+02 -0.14713166012E+03  0.17202740997E+03  0.41800000000E+01 0. -1.
         -5    1    1    2    0  502  0.88674885847E+01  0.11872412820E+03 -0.20250629007E+03  0.23494748538E+03  0.41800000000E+01 0.  1.
        -11    1    3    3    0    0  0.30276061844E+01 -0.33145322553E+02  0.12392367340E+03  0.12831545361E+03  0.00000000000E+00 0. -1.
         11    1    3    3    0    0 -0.14986699626E+02  0.34081256944E+01 -0.10423167673E+02  0.18570377238E+02  0.00000000000E+00 0.  1.
</event>
<event>
 7    1  0.6145388E-006  0.1764124E+03  0.7561462E-02  0.1171321E+00
         -2   -1    0    0    0  501 -0.00000000000E+00  0.00000000000E+00  0.84729897926E+03  0.84729897926E+03  0.00000000000E+00 0.  1.
          2   -1    0    0  501    0  0.00000000000E+00 -0.00000000000E+00 -0.68975209574E+02  0.68975209574E+02  0.00000000000E+00 0. -1.
         23    2    1    2    0    0 -0.11924015281E+01  0.16286907541E+03  0.10695145975E+03  0.21419332903E+03  0.88951727982E+02 0.  0.
          5    1    1    2  502    0 -0.18568183863E+02 -0.81123959496E+02  0.53755935778E+03  0.54397923655E+03  0.41800000000E+01 0. -1.
         -5    1    1    2    0  502  0.19760585391E+02 -0.81745115918E+02  0.13381295216E+03  0.15810162326E+03  0.41800000000E+01 0. -1.
        -11    1    3    3    0    0 -0.44776902454E+02  0.82495504013E+02  0.48232349445E+02  0.10553122149E+03  0.00000000000E+00 0.  1.
         11    1    3    3    0    0  0.43584500926E+02  0.80373571401E+02  0.58719110300E+02  0.10866210754E+03  0.00000000000E+00 0. -1.
</event>
<event>
 7    1  0.6145388E-006  0.1412184E+03  0.7561462E-02  0.1211699E+00
         -2   -1    0    0    0  501 -0.00000000000E+00  0.00000000000E+00  0.15945837585E+03  0.15945837585E+03  0.00000000000E+00 0.  1.
          2   -1    0    0  501    0  0.00000000000E+00 -0.00000000000E+00 -0.19703963100E+03  0.19703963100E+03  0.00000000000E+00 0. -1.
         23    2    1    2    0    0  0.99782963948E+02 -0.23453212834E+02 -0.12294587047E+03  0.18110342490E+03  0.84711689612E+02 0.  0.
          5    1    1    2  502    0 -0.96381312760E+02  0.60947129142E+02  0.54133098536E+02  0.12630033554E+03  0.41800000000E+01 0. -1.
         -5    1    1    2    0  502 -0.34016511888E+01 -0.37493916307E+02  0.31231516778E+02  0.49094246416E+02  0.41800000000E+01 0.  1.
        -11    1    3    3    0    0  0.26537403739E+02  0.29788433303E+02 -0.22245592978E+02  0.45677685612E+02  0.00000000000E+00 0. -1.
         11    1    3    3    0    0  0.73245560209E+02 -0.53241646138E+02 -0.10070027749E+03  0.13542573928E+03  0.00000000000E+00 0.  1.
</event>
<event>
 7    1  0.6145388E-006  0.8087550E+02  0.7561462E-02  0.1326585E+00
          1   -1    0    0  501    0  0.00000000000E+00  0.00000000000E+00  0.41748878928E+03  0.41748878928E+03  0.00000000000E+00 0. -1.
         -1   -1    0    0    0  501 -0.00000000000E+00 -0.00000000000E+00 -0.32003331879E+02  0.32003331879E+02  0.00000000000E+00 0.  1.
         23    2    1    2    0    0 -0.39956135944E+01 -0.37407400085E+02  0.19125240160E+03  0.21541905966E+03  0.91720290228E+02 0.  0.
          5    1    1    2  502    0 -0.22088980195E+02  0.41716226650E+01 -0.10373662465E+02  0.25107981891E+02  0.41800000000E+01 0. -1.
         -5    1    1    2    0  502  0.26084593790E+02  0.33235777420E+02  0.20460671828E+03  0.20896507961E+03  0.41800000000E+01 0. -1.
        -11    1    3    3    0    0 -0.38276515512E+02 -0.47208362140E+02  0.95022210906E+02  0.11279601793E+03  0.00000000000E+00 0.  1.
         11    1    3    3    0    0  0.34280901917E+02  0.98009620557E+01  0.96230190689E+02  0.10262304173E+03  0.00000000000E+00 0. -1.
</event>
<event>
 7    1  0.6145388E-006  0.8676590E+02  0.7561462E-02  0.1310878E+00
          1   -1    0    0  501    0  0.00000000000E+00  0.00000000000E+00  0.28498275796E+02  0.28498275796E+02  0.00000000000E+00 0. -1.
         -1   -1    0    0    0  501 -0.00000000000E+00 -0.00000000000E+00 -0.60720314640E+03  0.60720314640E+03  0.00000000000E+00 0.  1.
         23    2    1    2    0    0 -0.61383923259E+02  0.27869834850E+02 -0.19120731754E+03  0.22297352341E+03  0.92802155873E+02 0.  0.
          5    1    1    2  502    0  0.13154133376E+02 -0.20788307633E+02 -0.35050287903E+03  0.35138999071E+03  0.41800000000E+01 0.  1.
         -5    1    1    2    0  502  0.48229789883E+02 -0.70815272173E+01 -0.36994674032E+02  0.61337908072E+02  0.41800000000E+01 0.  1.
        -11    1    3    3    0    0 -0.18480692613E+02  0.48606385462E+02 -0.43585704815E+02  0.67851531827E+02  0.00000000000E+00 0. -1.
         11    1    3    3    0    0 -0.42903230645E+02 -0.20736550611E+02 -0.14762161272E+03  0.15512199159E+03  0.00000000000E+00 0.  1.
</event>
<event>
 7    1  0.6145388E-006  0.1865292E+03  0.7561462E-02  0.1161630E+00
          2   -1    0    0  501    0  0.00000000000E+00  0.00000000000E+00  0.72457842544E+03  0.72457842544E+03  0.00000000000E+00 0.  1.
         -2   -1    0    0    0  501 -0.00000000000E+00 -0.00000000000E+00 -0.67587852432E+02  0.67587852432E+02  0.00000000000E+00 0. -1.
         23    2    1    2    0    0 -0.14646724825E+03  0.11064590767E+03  0.42056994227E+03  0.46776636335E+03  0.90725534715E+02 0.  0.
          5    1    1    2  502    0  0.43451230460E+02 -0.55823836970E+02  0.18251199471E+03  0.19578664617E+03  0.41800000000E+01 0. -1.
         -5    1    1    2    0  502  0.10301601779E+03 -0.54822070704E+02  0.53908636024E+02  0.12861326835E+03  0.41800000000E+01 0. -1.
        -11    1    3    3    0    0 -0.13531483346E+02  0.18777224133E+01  0.20375225791E+00  0.13662664381E+02  0.00000000000E+00 0. -1.
         11    1    3    3    0    0 -0.13293576491E+03  0.10876818526E+03  0.42036619001E+03  0.45410369897E+03  0.00000000000E+00 0.  1.
</event>
<event>
 7    1  0.6145388E-006  0.3440423E+03  0.7561462E-02  0.1065087E+00
          2   -1    0    0  501    0  0.00000000000E+00  0.00000000000E+00  0.15762543950E+03  0.15762543950E+03  0.00000000000E+00 0.  1.
         -2   -1    0    0    0  501 -0.00000000000E+00 -0.00000000000E+00 -0.77034155503E+03  0.77034155503E+03  0.00000000000E+00 0. -1.
         23    2    1    2    0    0 -0.31382266920E+03 -0.10410006077E+03 -0.31142898691E+03  0.46348467393E+03  0.92241740671E+02 0.  0.
          5    1    1    2  502    0  0.36637828643E+02  0.52060126577E+02 -0.97461732521E+02  0.11648540240E+03  0.41800000000E+01 0.  1.
         -5    1    1    2    0  502  0.27718484056E+03  0.52039934192E+02 -0.20382539610E+03  0.34799691821E+03  0.41800000000E+01 0.  1.
        -11    1    3    3    0    0 -0.27230131187E+03 -0.54777625147E+02 -0.26626290485E+03  0.38476554830E+03  0.00000000000E+00 0. -1.
         11    1    3    3    0    0 -0.41521357331E+02 -0.49322435622E+02 -0.45166082058E+02  0.78719125622E+02  0.00000000000E+00 0.  1.
</event>
<event>
 7    1  0.6145388E-006  0.1267890E+03  0.7561462E-02  0.1232300E+00
         -2   -1    0    0    0  501 -0.00000000000E+00  0.00000000000E+00  0.21212962846E+02  0.21212962846E+02  0.00000000000E+00 0.  1.
          2   -1    0    0  501    0  0.00000000000E+00 -0.00000000000E+00 -0.87618793672E+03  0.87618793672E+03  0.00000000000E+00 0. -1.
         23    2    1    2    0    0  0.81631427581E+02  0.12893752045E+02 -0.42075734223E+03  0.43802939325E+03  0.89459876480E+02 0.  0.
          5    1    1    2  502    0 -0.10562332562E+03  0.13972682651E+01 -0.40567036881E+03  0.41921851081E+03  0.41800000000E+01 0. -1.
         -5    1    1    2    0  502  0.23991898038E+02 -0.14291020310E+02 -0.28547262835E+02  0.40152995509E+02  0.41800000000E+01 0. -1.
        -11    1    3    3    0    0  0.68350243675E+01  0.39614604975E+02 -0.18274443170E+03  0.18711376700E+03  0.00000000000E+00 0. -1.
         11    1    3    3    0    0  0.74796403213E+02 -0.26720852931E+02 -0.23801291053E+03  0.25091562624E+03  0.00000000000E+00 0.  1.
</event>
<event>
 7    1  0.6145388E-006  0.9969000E+02  0.7561462E-02  0.1280949E+00
         -3   -1    0    0    0  501 -0.00000000000E+00  0.00000000000E+00  0.25232038348E+02  0.25232038348E+02  0.00000000000E+00 0.  1.
          3   -1    0    0  501    0  0.00000000000E+00 -0.00000000000E+00 -0.52487832152E+03  0.52487832152E+03  0.00000000000E+00 0. -1.
         23    2    1    2    0    0 -0.75389272835E+01 -0.13837564380E+02 -0.29725144041E+03  0.31165774023E+03  0.92324507090E+02 0.  0.
          5    1    1    2  502    0 -0.18226209621E+02 -0.46335085815E+02 -0.13702076563E+03  0.14584682893E+03  0.41800000000E+01 0.  1.
         -5    1    1    2    0  502  0.25765136904E+02  0.60172650195E+02 -0.65374077132E+02  0.92605790705E+02  0.41800000000E+01 0.  1.
        -11    1    3    3    0    0 -0.42395422577E+02  0.73575418492E+01 -0.82303707763E+02  0.92873061698E+02  0.00000000000E+00 0.  1.
         11    1    3    3    0    0  0.34856495294E+02 -0.21195106229E+02 -0.21494773264E+03  0.21878467853E+03  0.00000000000E+00 0. -1.
</event>
<event>
 7    1  0.6145388E-006  0.7713863E+02  0.7561462E-02  0.1337373E+00
          2   -1    0    0  501    0  0.00000000000E+00  0.00000000000E+00  0.21876615498E+03  0.21876615498E+03  0.00000000000E+00 0. -1.
         -2   -1    0    0    0  501 -0.00000000000E+00 -0.00000000000E+00 -0.72367792268E+02  0.72367792268E+02  0.00000000000E+00 0.  1.
         23    2    1    2    0    0  0.67977219025E+02 -0.10583428414E+02  0.49740206164E+02  0.11873161285E+03  0.83007207630E+02 0.  0.
          5    1    1    2  502    0 -0.10756966815E+02 -0.14771367234E+02 -0.27510433399E+02  0.33289667628E+02  0.41800000000E+01 0. -1.
         -5    1    1    2    0  502 -0.57220252210E+02  0.25354795648E+02  0.12416858995E+03  0.13911266677E+03  0.41800000000E+01 0. -1.
        -11    1    3    3    0    0  0.38180027664E+02 -0.17834191430E+02  0.70192573122E+02  0.81870447769E+02  0.00000000000E+00 0. -1.
         11    1    3    3    0    0  0.29797191360E+02  0.72507630163E+01 -0.20452366958E+02  0.36861165085E+02  0.00000000000E+00 0.  1.
</event>
<event>
 7    1  0.6145388E-006  0.1199914E+03  0.7561462E-02  0.1243111E+00
         -3   -1    0    0    0  501 -0.00000000000E+00  0.00000000000E+00  0.12580320222E+03  0.12580320222E+03  0.00000000000E+00 0.  1.
          3   -1    0    0  501    0  0.00000000000E+00 -0.00000000000E+00 -0.12581596955E+03  0.12581596955E+03  0.00000000000E+00 0. -1.
         23    2    1    2    0    0 -0.10001885799E+02 -0.52010874532E+02 -0.36025022587E+02  0.11108434525E+03  0.90756601517E+02 0.  0.
          5    1    1    2  502    0  0.30811581475E+02  0.88372223959E+02  0.26715451222E+02  0.97417612650E+02  0.41800000000E+01 0. -1.
         -5    1    1    2    0  502 -0.20809695675E+02 -0.36361349427E+02  0.92968040384E+01  0.43117213866E+02  0.41800000000E+01 0. -1.
        -11    1    3    3    0    0  0.23188019671E+02 -0.64649379118E+02 -0.30470782698E+02  0.75137840499E+02  0.00000000000E+00 0.  1.
         11    1    3    3    0    0 -0.33189905470E+02  0.12638504586E+02 -0.55542398889E+01  0.35946504754E+02  0.00000000000E+00 0. -1.
</event>
<event>
 7    1  0.6145388E-006  0.1634465E+03  0.7561462E-02  0.1184860E+00
         -1   -1    0    0    0  501 -0.00000000000E+00  0.00000000000E+00  0.30410072355E+03  0.30410072355E+03  0.00000000000E+00 0.  1.
          1   -1    0    0  501    0  0.00000000000E+00 -0.00000000000E+00 -0.17177102910E+03  0.17177102910E+03  0.00000000000E+00 0. -1.
         23    2    1    2    0    0  0.15501646124E+03 -0.48362664264E+02 -0.58710041412E+02  0.19567367005E+03  0.92044910998E+02 0.  0.
          5    1    1    2  502    0 -0.73354885125E+02  0.34893898568E+02  0.17879603845E+03  0.19642815250E+03  0.41800000000E+01 0.  1.
         -5    1    1    2    0  502 -0.81661576111E+02  0.13468765697E+02  0.12243697407E+02  0.83769930097E+02  0.41800000000E+01 0.  1.
        -11    1    3    3    0    0  0.10441179995E+03 -0.27702492961E+02  0.92965706021E+01  0.10842360587E+03  0.00000000000E+00 0. -1.
         11    1    3    3    0    0  0.50604661286E+02 -0.20660171303E+02 -0.68006612015E+02  0.87250064182E+02  0.00000000000E+00 0.  1.
</event>
<event>
 7    1  0.6145388E-006  0.1152837E+03  0.7561462E-02  0.1251087E+00
          2   -1    0    0  501    0  0.00000000000E+00  0.00000000000E+00  0.37077183064E+03  0.37077183064E+03  0.00000000000E+00 0.  1.
         -2   -1    0    0    0  501 -0.00000000000E+00 -0.00000000000E+00 -0.56933954806E+02  0.56933954806E+02  0.00000000000E+00 0. -1.
         23    2    1    2    0    0  0.56255573934E+02 -0.68579872498E+02  0.19510419939E+03  0.23376800444E+03  0.93348501705E+02 0.  0.
          5    1    1    2  502    0 -0.56732042533E+02  0.51667656009E+01 -0.23725316755E+01  0.57169234937E+02  0.41800000000E+01 0.  1.
         -5    1    1    2    0  502  0.47646859890E+00  0.63413106897E+02  0.12110620812E+03  0.13676854607E+03  0.41800000000E+01 0.  1.
        -11    1    3    3    0    0 -0.14781325341E+02 -0.10394137157E+02 -0.71970494531E-01  0.18070164521E+02  0.00000000000E+00 0. -1.
         11    1    3    3    0    0  0.71036899274E+02 -0.58185735340E+02  0.19517616988E+03  0.21569783992E+03  0.00000000000E+00 0.  1.
</event>
<event>
 7    1  0.6145388E-006  0.2579199E+03  0.7561462E-02  0.1108399E+00
          1   -1    0    0  501    0  0.00000000000E+00  0.00000000000E+00  0.18389812074E+03  0.18389812074E+03  0.00000000000E+00 0. -1.
         -1   -1    0    0    0  501 -0.00000000000E+00 -0.00000000000E+00 -0.39414849069E+03  0.39414849069E+03  0.00000000000E+00 0.  1.
         23    2    1    2    0    0 -0.24306880953E+03 -0.27089167862E+02 -0.74640508678E+02  0.27168981433E+03  0.91803488453E+02 0.  0.
          5    1    1    2  502    0  0.23211500017E+03  0.47259520590E+01 -0.15081713957E+03  0.27688082259E+03  0.41800000000E+01 0.  1.
         -5    1    1    2    0  502  0.10953809352E+02  0.22363215803E+02  0.15207278300E+02  0.29475974516E+02  0.41800000000E+01 0.  1.
        -11    1    3    3    0    0 -0.15201025060E+03 -0.57297362110E+02 -0.66060361118E+02  0.17536839882E+03  0.00000000000E+00 0.  1.
         11    1    3    3    0    0 -0.91058558926E+02  0.30208194248E+02 -0.85801475605E+01  0.96321415509E+02  0.00000000000E+00 0. -1.
</event>
<event>
 7    1  0.6145388E-006  0.7903465E+02  0.7561462E-02  0.1331813E+00
         -2   -1    0    0    0  501 -0.00000000000E+00  0.00000000000E+00  0.89933482282E+02  0.89933482282E+02  0.00000000000E+00 0.  1.
          2   -1    0    0  501    0  0.00000000000E+00 -0.00000000000E+00 -0.17365756697E+03  0.17365756697E+03  0.00000000000E+00 0. -1.
         23    2    1    2    0    0 -0.50720529273E+01 -0.73861350184E+01 -0.54388575649E+02  0.10409177327E+03  0.88298920661E+02 0.  0.
          5    1    1    2  502    0 -0.28918052732E+02 -0.16012463528E+02 -0.84297674969E+02  0.90643384575E+02  0.41800000000E+01 0. -1.
         -5    1    1    2    0  502  0.33990105660E+02  0.23398598546E+02  0.54962165934E+02  0.68855891402E+02  0.41800000000E+01 0.  1.
        -11    1    3    3    0    0 -0.28779596528E+02  0.28344470340E+02 -0.44474227938E+02  0.60080205774E+02  0.00000000000E+00 0.  1.
         11    1    3    3    0    0  0.23707543600E+02 -0.35730605359E+02 -0.99143477105E+01  0.44011567495E+02  0.00000000000E+00 0. -1.
</event>
<event>
 7    1  0.6145388E-006  0.1083437E+03  0.7561462E-02  0.1263668E+00
         -2   -1    0    0    0  501 -0.00000000000E+00  0.00000000000E+00  0.36976409056E+03  0.36976409056E+03  0.00000000000E+00 0.  1.
          2   -1    0    0  501    0  0.00000000000E+00 -0.00000000000E+00 -0.95775207550E+02  0.95775207550E+02  0.00000000000E+00 0. -1.
         23    2    1    2    0    0  0.14362641760E+02  0.31880502418E+00 -0.53276292329E+02  0.11316467745E+03  0.98800272184E+02 0.  0.
          5    1    1    2  502    0  0.39546933216E+02 -0.45045968631E+02  0.16431215624E+03  0.17495444066E+03  0.41800000000E+01 0. -1.
         -5    1    1    2    0  502 -0.53909574976E+02  0.44727163606E+02  0.16295301910E+03  0.17742018000E+03  0.41800000000E+01 0.  1.
        -11    1    3    3    0    0 -0.13827635103E+01 -0.41612979280E+02  0.24036374479E+01  0.41705270080E+02  0.00000000000E+00 0.  1.
         11    1    3    3    0    0  0.15745405270E+02  0.41931784304E+02 -0.55679929777E+02  0.71459407372E+02  0.00000000000E+00 0. -1.
</event>
<event>
 7    1  0.6145388E-006  0.1008167E+03  0.7561462E-02  0.1278588E+00
          2   -1    0    0  501    0  0.00000000000E+00  0.00000000000E+00  0.19322852995E+02  0.19322852995E+02  0.00000000000E+00 0. -1.
         -2   -1    0    0    0  501 -0.00000000000E+00 -0.00000000000E+00 -0.12731807046E+04  0.12731807046E+04  0.00000000000E+00 0.  1.
         23    2    1    2    0    0  0.51600212027E+02  0.39691936798E+02 -0.22904664139E+03  0.25803531165E+03  0.99407375971E+02 0.  0.
          5    1    1    2  502    0 -0.10225006758E+02  0.38250495367E+02 -0.14951238077E+03  0.15472257612E+03  0.41800000000E+01 0.  1.
         -5    1    1    2    0  502 -0.41375205270E+02 -0.77942432165E+02 -0.87529882947E+03  0.87974566985E+03  0.41800000000E+01 0.  1.
        -11    1    3    3    0    0  0.52577666611E+02  0.24071094279E+02 -0.23445116995E+03  0.24147707903E+03  0.00000000000E+00 0.  1.
         11    1    3    3    0    0 -0.97745458331E+00  0.15620842519E+02  0.54045285608E+01  0.16558232618E+02  0.00000000000E+00 0. -1.
</event>
<event>
 7    1  0.6145388E-006  0.1003076E+03  0.7561462E-02  0.1279650E+00
         -1   -1    0    0    0  501 -0.00000000000E+00  0.00000000000E+00  0.27633268480E+02  0.27633268480E+02  0.00000000000E+00 0.  1.
          1   -1    0    0  501    0  0.00000000000E+00 -0.00000000000E+00 -0.47312130413E+03  0.47312130413E+03  0.00000000000E+00 0. -1.
         23    2    1    2    0    0  0.33267484103E+02  0.14357121755E+02 -0.19177005645E+03  0.21556584352E+03  0.91542481376E+02 0.  0.
          5    1    1    2  502    0 -0.65875939212E+02 -0.21720778979E+02 -0.23813984862E+03  0.24807154514E+03  0.41800000000E+01 0. -1.
         -5    1    1    2    0  502  0.32608455109E+02  0.73636572239E+01 -0.15578130579E+02  0.37117183954E+02  0.41800000000E+01 0. -1.
        -11    1    3    3    0    0 -0.30196171814E+02 -0.59995569735E+01 -0.75712670008E+02  0.81732563130E+02  0.00000000000E+00 0.  1.
         11    1    3    3    0    0  0.63463655917E+02  0.20356678729E+02 -0.11605738644E+03  0.13383328039E+03  0.00000000000E+00 0. -1.
</event>
<event>
 7    1  0.6145388E-006  0.1810592E+03  0.7561462E-02  0.1166782E+00
          1   -1    0    0  501    0  0.00000000000E+00  0.00000000000E+00  0.60497281305E+02  0.60497281305E+02  0.00000000000E+00 0. -1.
         -1   -1    0    0    0  501 -0.00000000000E+00 -0.00000000000E+00 -0.59335787830E+03  0.59335787830E+03  0.00000000000E+00 0.  1.
         23    2    1    2    0    0  0.15228951457E+03 -0.16783508851E+02 -0.20858475092E+03  0.27401864044E+03  0.90026854737E+02 0.  0.
          5    1    1    2  502    0  0.11342059254E+02  0.26824589008E+02 -0.83377733655E+02  0.88416739100E+02  0.41800000000E+01 0.  1.
         -5    1    1    2    0  502 -0.16363157383E+03 -0.10041080158E+02 -0.24089811242E+03  0.29141978006E+03  0.41800000000E+01 0.  1.
        -11    1    3    3    0    0  0.13701117915E+03 -0.38346574909E+02 -0.20148384126E+03  0.24665413297E+03  0.00000000000E+00 0. -1.
         11    1    3    3    0    0  0.15278335422E+02  0.21563066059E+02 -0.71009096523E+01  0.27364507469E+02  0.00000000000E+00 0.  1.
</event>
<event>
 7    1  0.6145388E-006  0.1429129E+03  0.7561462E-02  0.1209462E+00
         -4   -1    0    0    0  501 -0.00000000000E+00  0.00000000000E+00  0.23649302121E+02  0.23649302121E+02  0.00000000000E+00 0.  1.
          4   -1    0    0  501    0  0.00000000000E+00 -0.00000000000E+00 -0.10443848687E+04  0.10443848687E+04  0.00000000000E+00 0. -1.
         23    2    1    2    0    0  0.60227968797E+02  0.74957083518E+02 -0.52755343918E+03  0.55022955774E+03  0.12326379205E+03 0.  0.
          5    1    1    2  502    0 -0.27285949872E+02 -0.93609852779E+02 -0.44894637370E+03  0.45943187358E+03  0.41800000000E+01 0.  1.
         -5    1    1    2    0  502 -0.32942018925E+02  0.18652769261E+02 -0.44235753708E+02  0.58372739511E+02  0.41800000000E+01 0.  1.
        -11    1    3    3    0    0  0.77368596007E+02  0.43546595701E+01 -0.19501343994E+03  0.20984542993E+03  0.00000000000E+00 0.  1.
         11    1    3    3    0    0 -0.17140627210E+02  0.70602423947E+02 -0.33253999924E+03  0.34038412781E+03  0.00000000000E+00 0. -1.
</event>
<event>
 7    1  0.6145388E-006  0.6762705E+02  0.7561462E-02  0.1368353E+00
          2   -1    0    0  501    0  0.00000000000E+00  0.00000000000E+00  0.17695578564E+03  0.17695578564E+03  0.00000000000E+00 0. -1.
         -2   -1    0    0    0  501 -0.00000000000E+00 -0.00000000000E+00 -0.92149406755E+02  0.92149406755E+02  0.00000000000E+00 0.  1.
         23    2    1    2    0    0 -0.46047702472E+02  0.25390787385E+01  0.91403262134E+02  0.13562652244E+03  0.88955940992E+02 0.  0.
          5    1    1    2  502    0  0.54352182682E+02  0.79057007862E+01 -0.58129688360E+02  0.80082413401E+02  0.41800000000E+01 0. -1.
         -5    1    1    2    0  502 -0.83044802101E+01 -0.10444779525E+02  0.51532805108E+02  0.53396256546E+02  0.41800000000E+01 0. -1.
        -11    1    3    3    0    0 -0.36642088680E+02 -0.20014336388E+02  0.77218012805E+00  0.41758982100E+02  0.00000000000E+00 0.  1.
         11    1    3    3    0    0 -0.94056137922E+01  0.22553415126E+02  0.90631082006E+02  0.93867540344E+02  0.00000000000E+00 0. -1.
</event>
<event>
 7    1  0.6145388E-006  0.1434905E+03  0.7561462E-02  0.1208708E+00
          2   -1    0    0  501    0  0.00000000000E+00  0.00000000000E+00  0.35102221914E+03  0.35102221914E+03  0.00000000000E+00 0. -1.
         -2   -1    0    0    0  501 -0.00000000000E+00 -0.00000000000E+00 -0.70394080847E+02  0.70394080847E+02  0.00000000000E+00 0.  1.
         23    2    1    2    0    0 -0.10349352370E+03  0.31977405316E+02  0.17879414642E+03  0.22712000333E+03  0.88784487505E+02 0.  0.
          5    1    1    2  502    0  0.11993902977E+03  0.97686464562E+01  0.74202010126E+02  0.14143623306E+03  0.41800000000E+01 0.  1.
         -5    1    1    2    0  502 -0.16445506071E+02 -0.41746051772E+02  0.27631981754E+02  0.52860063603E+02  0.41800000000E+01 0.  1.
        -11    1    3    3    0    0 -0.10690069182E+03  0.19614099368E+02  0.10130605325E+03  0.14857788271E+03  0.00000000000E+00 0.  1.
         11    1    3    3    0    0  0.34071681256E+01  0.12363305948E+02  0.77488093164E+02  0.78542120616E+02  0.00000000000E+00 0. -1.
</event>
<event>
 7    1  0.6145388E-006  0.6723178E+02  0.7561462E-02  0.1369768E+00
          1   -1    0    0  501    0  0.00000000000E+00  0.00000000000E+00  0.20080931472E+03  0.20080931472E+03  0.00000000000E+00 0. -1.
         -1   -1    0    0    0  501 -0.00000000000E+00 -0.00000000000E+00 -0.65801088943E+02  0.65801088943E+02  0.00000000000E+00 0.  1.
         23    2    1    2    0    0  0.14368743807E+02  0.53131371570E+01  0.17002833941E+02  0.93962439251E+02  0.91132614375E+02 0.  0.
          5    1    1    2  502    0 -0.40235682710E+02  0.26118590842E+02  0.12236240619E+03  0.13149571019E+03  0.41800000000E+01 0. -1.
         -5    1    1    2    0  502  0.25866938903E+02 -0.31431727999E+02 -0.43570143545E+01  0.41152254218E+02  0.41800000000E+01 0. -1.
        -11    1    3    3    0    0  0.17922093167E+02 -0.15853878718E+02 -0.32295855437E+02  0.40194143508E+02  0.00000000000E+00 0.  1.
         11    1    3    3    0    0 -0.35533493604E+01  0.21167015875E+02  0.49298689378E+02  0.53768295743E+02  0.00000000000E+00 0. -1.
</event>
<event>
 7    1  0.6145388E-006  0.9853653E+02  0.7561462E-02  0.1283404E+00
          1   -1    0    0  501    0  0.00000000000E+00  0.00000000000E+00  0.35508385320E+03  0.35508385320E+03  0.00000000000E+00 0. -1.
         -1   -1    0    0    0  501 -0.00000000000E+00 -0.00000000000E+00 -0.39106851406E+02  0.39106851406E+02  0.00000000000E+00 0.  1.
         23    2    1    2    0    0 -0.13856191360E+02  0.18671726850E+02  0.20094505616E+03  0.22266884266E+03  0.93069170369E+02 0.  0.
          5    1    1    2  502    0  0.16252803199E+02 -0.71756435873E+02  0.71849343463E+02  0.10292201056E+03  0.41800000000E+01 0.  1.
         -5    1    1    2    0  502 -0.23966118395E+01  0.53084709022E+02  0.43182602166E+02  0.68599851385E+02  0.41800000000E+01 0.  1.
        -11    1    3    3    0    0  0.59113671367E+01  0.40326261690E+02  0.33734654483E+02  0.52907263740E+02  0.00000000000E+00 0.  1.
         11    1    3    3    0    0 -0.19767558496E+02 -0.21654534840E+02  0.16721040168E+03  0.16976157892E+03  0.00000000000E+00 0. -1.
</event>
<event>
 7    1  0.6145388E-006  0.9678499E+02  0.7561462E-02  0.1287206E+00
          1   -1    0    0  501    0  0.00000000000E+00  0.00000000000E+00  0.18660381590E+03  0.18660381590E+03  0.00000000000E+00 0. -1.
         -1   -1    0    0    0  501 -0.00000000000E+00 -0.00000000000E+00 -0.89833979341E+02  0.89833979341E+02  0.00000000000E+00 0.  1.
         23    2    1    2    0    0  0.51831001998E+01  0.70358351467E+02  0.58463316381E+02  0.12780603277E+03  0.89102528034E+02 0.  0.
          5    1    1    2  502    0 -0.15689769723E+02  0.78876538961E+01 -0.35912407383E+02  0.40193996591E+02  0.41800000000E+01 0. -1.
         -5    1    1    2    0  502  0.10506669523E+02 -0.78246005364E+02  0.74218927559E+02  0.10843776587E+03  0.41800000000E+01 0. -1.
        -11    1    3    3    0    0 -0.86309335476E-01  0.82877074496E+02  0.17574108620E+02  0.84719928117E+02  0.00000000000E+00 0.  1.
         11    1    3    3    0    0  0.52694095353E+01 -0.12518723029E+02  0.40889207761E+02  0.43086104656E+02  0.00000000000E+00 0. -1.
</event>
<event>
 7    1  0.6145388E-006  0.7119506E+02  0.7561462E-02  0.1356076E+00
          2   -1    0    0  501    0  0.00000000000E+00  0.00000000000E+00  0.90899352955E+02  0.90899352955E+02  0.00000000000E+00 0. -1.
         -2   -1    0    0    0  501 -0.00000000000E+00 -0.00000000000E+00 -0.18312320165E+03  0.18312320165E+03  0.00000000000E+00 0.  1.
         23    2    1    2    0    0 -0.33963961016E+02 -0.36348593322E+02  0.11666011913E+02  0.10398215550E+03  0.90561702412E+02 0.  0.
          5    1    1    2  502    0  0.29822409334E+02 -0.21257180068E+01 -0.12302107963E+03  0.12667104329E+03  0.41800000000E+01 0. -1.
         -5    1    1    2    0  502  0.41415516820E+01  0.38474311329E+02  0.19131219021E+02  0.43369355815E+02  0.41800000000E+01 0. -1.
        -11    1    3    3    0    0 -0.34575152104E+02  0.22761528175E+01  0.42300058691E+02  0.54680133320E+02  0.00000000000E+00 0. -1.
         11    1    3    3    0    0  0.61119108858E+00 -0.38624746139E+02 -0.30634046778E+02  0.49302022178E+02  0.00000000000E+00 0.  1.
</event>
<event>
 7    1  0.6145388E-006  0.9901930E+02  0.7561462E-02  0.1282372E+00
          2   -1    0    0  501    0  0.00000000000E+00  0.00000000000E+00  0.38084934589E+03  0.38084934589E+03  0.00000000000E+00 0.  1.
         -2   -1    0    0    0  501 -0.00000000000E+00 -0.00000000000E+00 -0.57345464580E+02  0.57345464580E+02  0.00000000000E+00 0. -1.
         23    2    1    2    0    0  0.82483023507E+02  0.30188724368E+02  0.21987031081E+03  0.25352436127E+03  0.90646786695E+02 0.  0.
          5    1    1    2  502    0 -0.33646431419E+02 -0.41999894231E+02  0.12006672410E+03  0.13164180224E+03  0.41800000000E+01 0.  1.
         -5    1    1    2    0  502 -0.48836592089E+02  0.11811169863E+02 -0.16433153598E+02  0.53028646952E+02  0.41800000000E+01 0.  1.
        -11    1    3    3    0    0  0.53065390007E+02  0.23126488397E+01  0.20264095327E+03  0.20948661032E+03  0.00000000000E+00 0.  1.
         11    1    3    3    0    0  0.29417633501E+02  0.27876075528E+02  0.17229357535E+02  0.44037750950E+02  0.00000000000E+00 0. -1.
</event>
<event>
 7    1  0.6145388E-006  0.1202639E+03  0.7561462E-02  0.1242662E+00
         -2   -1    0    0    0  501 -0.00000000000E+00  0.00000000000E+00  0.91399653608E+02  0.91399653608E+02  0.00000000000E+00 0.  1.
          2   -1    0    0  501    0  0.00000000000E+00 -0.00000000000E+00 -0.18199628140E+03  0.18199628140E+03  0.00000000000E+00 0. -1.
         23    2    1    2    0    0 -0.58549228237E+02 -0.34887663365E+02 -0.51745503695E+02  0.12573841553E+03  0.92127036229E+02 0.  0.
          5    1    1    2  502    0  0.87189048909E+02  0.58139139014E+02 -0.33792376526E+02  0.11018841521E+03  0.41800000000E+01 0. -1.
         -5    1    1    2    0  502 -0.28639820671E+02 -0.23251475649E+02 -0.50587475700E+01  0.37469104272E+02  0.41800000000E+01 0. -1.
        -11    1    3    3    0    0 -0.72460439299E+02 -0.41080614544E+02 -0.13252731302E+02  0.84343150532E+02  0.00000000000E+00 0.  1.
         11    1    3    3    0    0  0.13911211062E+02  0.61929511791E+01 -0.38492772393E+02  0.41395264995E+02  0.00000000000E+00 0. -1.
</event>
<event>
 7    1  0.6145388E-006  0.1206298E+03  0.7561462E-02  0.1242062E+00
         -1   -1    0    0    0  501 -0.00000000000E+00  0.00000000000E+00  0.83039627028E+02  0.83039627028E+02  0.00000000000E+00 0.  1.
          1   -1    0    0  501    0  0.00000000000E+00 -0.00000000000E+00 -0.23764016978E+03  0.23764016978E+03  0.00000000000E+00 0. -1.
         23    2    1    2    0    0  0.64931844701E+02 -0.59662395048E+02 -0.75337796985E+02  0.14832796983E+03  0.92464356047E+02 0.  0.
          5    1    1    2  502    0  0.12923796706E+02  0.36538023652E+02  0.20175676088E+02  0.43892846790E+02  0.41800000000E+01 0. -1.
         -5    1    1    2    0  502 -0.77855641407E+02  0.23124371396E+02 -0.99438421857E+02  0.12845898019E+03  0.41800000000E+01 0. -1.
        -11    1    3    3    0    0 -0.38887403860E+01  0.17286832507E+02  0.39560894910E+01  0.18155096364E+02  0.00000000000E+00 0.  1.
         11    1    3    3    0    0  0.68820585087E+02 -0.76949227555E+02 -0.79293886476E+02  0.13017287346E+03  0.00000000000E+00 0. -1.
</event>
<event>
 7    1  0.6145388E-006  0.1002863E+03  0.7561462E-02  0.1279695E+00
         -4   -1    0    0    0  501 -0.00000000000E+00  0.00000000000E+00  0.18068389340E+03  0.18068389340E+03  0.00000000000E+00 0.  1.
          4   -1    0    0  501    0  0.00000000000E+00 -0.00000000000E+00 -0.90193549227E+02  0.90193549227E+02  0.00000000000E+00 0. -1.
         23    2    1    2    0    0  0.10185805904E+02  0.16248877547E+02 -0.28358856932E+02  0.97273412892E+02  0.91050070981E+02 0.  0.
          5    1    1    2  502    0  0.24262504754E+02  0.40210765628E+02  0.89427251632E+02  0.10109540318E+03  0.41800000000E+01 0.  1.
         -5    1    1    2    0  502 -0.34448310659E+02 -0.56459643174E+02  0.29421949477E+02  0.72508626560E+02  0.41800000000E+01 0.  1.
        -11    1    3    3    0    0 -0.21435323919E+02  0.41484973643E+02  0.19286992728E+01  0.46735383069E+02  0.00000000000E+00 0.  1.
         11    1    3    3    0    0  0.31621129824E+02 -0.25236096097E+02 -0.30287556205E+02  0.50538029823E+02  0.00000000000E+00 0. -1.
</event>
<event>
 7    1  0.6145388E-006  0.8884675E+02  0.7561462E-02  0.1305669E+00
          2   -1    0    0  501    0  0.00000000000E+00  0.00000000000E+00  0.64026194607E+03  0.64026194607E+03  0.00000000000E+00 0. -1.
         -2   -1    0    0    0  501 -0.00000000000E+00 -0.00000000000E+00 -0.24761311327E+02  0.24761311327E+02  0.00000000000E+00 0.  1.
         23    2    1    2    0    0  0.63593087374E+02 -0.49837733733E+01  0.28922075619E+03  0.30981230126E+03  0.90918080917E+02 0.  0.
          5    1    1    2  502    0 -0.36573044959E+02 -0.15126857377E+02  0.31772576397E+03  0.32020859283E+03  0.41800000000E+01 0. -1.
         -5    1    1    2    0  502 -0.27020042415E+02  0.20110630750E+02  0.85541145815E+01  0.35002363314E+02  0.41800000000E+01 0. -1.
        -11    1    3    3    0    0  0.78855864315E+02  0.13479236598E+02  0.25999041483E+03  0.27202013337E+03  0.00000000000E+00 0. -1.
         11    1    3    3    0    0 -0.15262776941E+02 -0.18463009971E+02  0.29230341363E+02  0.37792167883E+02  0.00000000000E+00 0.  1.
</event>
<event>
 7    1  0.6145388E-006  0.1849819E+03  0.7561462E-02  0.1163067E+00
         -2   -1    0    0    0  501 -0.00000000000E+00  0.00000000000E+00  0.36390783391E+03  0.36390783391E+03  0.00000000000E+00 0.  1.
          2   -1    0    0  501    0  0.00000000000E+00 -0.00000000000E+00 -0.11591903997E+03  0.11591903997E+03  0.00000000000E+00 0. -1.
         23    2    1    2    0    0 -0.94304398823E+02  0.14233075729E+03  0.91204595423E+02  0.21639610751E+03  0.96734859342E+02 0.  0.
          5    1    1    2  502    0  0.74674900799E+02 -0.13106918552E+03  0.17714129990E+03  0.23270579007E+03  0.41800000000E+01 0.  1.
         -5    1    1    2    0  502  0.19629498023E+02 -0.11261571772E+02 -0.20357101392E+02  0.30724976298E+02  0.41800000000E+01 0.  1.
        -11    1    3    3    0    0  0.54917342357E+01  0.76035969202E+02  0.30799104833E+02  0.82220512136E+02  0.00000000000E+00 0. -1.
         11    1    3    3    0    0 -0.99796133058E+02  0.66294788089E+02  0.60405490589E+02  0.13417559538E+03  0.00000000000E+00 0.  1.
</event>
<event>
 7    1  0.6145388E-006  0.1655611E+03  0.7561462E-02  0.1182558E+00
          1   -1    0    0  501    0  0.00000000000E+00  0.00000000000E+00  0.77993225999E+03  0.77993225999E+03  0.00000000000E+00 0. -1.
         -1   -1    0    0    0  501 -0.00000000000E+00 -0.00000000000E+00 -0.46428607632E+02  0.46428607632E+02  0.00000000000E+00 0.  1.
         23    2    1    2    0    0  0.56326603289E+02 -0.13963220119E+03  0.43743065778E+03  0.47143001022E+03  0.90723956729E+02 0.  0.
          5    1    1    2  502    0 -0.34278376076E+02  0.38111089565E+02  0.12540010973E+02  0.52935682573E+02  0.41800000000E+01 0.  1.
         -5    1    1    2    0  502 -0.22048227213E+02  0.10152111162E+03  0.28353298360E+03  0.30199517483E+03  0.41800000000E+01 0.  1.
        -11    1    3    3    0    0  0.70550211974E+01  0.13296062563E+02  0.34029668579E+02  0.37209903888E+02  0.00000000000E+00 0.  1.
         11    1    3    3    0    0  0.49271582092E+02 -0.15292826375E+03  0.40340098921E+03  0.43422010634E+03  0.00000000000E+00 0. -1.
</event>
<event>
 7    1  0.6145388E-006  0.1296250E+03  0.7561462E-02  0.1228013E+00
          2   -1    0    0  501    0  0.00000000000E+00  0.00000000000E+00  0.85100875379E+03  0.85100875379E+03  0.00000000000E+00 0. -1.
         -2   -1    0    0    0  501 -0.00000000000E+00 -0.00000000000E+00 -0.23904713862E+02  0.23904713862E+02  0.00000000000E+00 0.  1.
         23    2    1    2    0    0 -0.47551918192E+02  0.52503563922E+02  0.55071516928E+03  0.56336882955E+03  0.95286049807E+02 0.  0.
          5    1    1    2  502    0  0.83252488512E+02 -0.41221706186E+01  0.15701592484E+03  0.17781856536E+03  0.41800000000E+01 0. -1.
         -5    1    1    2    0  502 -0.35700570320E+02 -0.48381393304E+02  0.11937294582E+03  0.13372607275E+03  0.41800000000E+01 0. -1.
        -11    1    3    3    0    0  0.27336810613E+02  0.83552940580E+01  0.87013222366E+02  0.91588279926E+02  0.00000000000E+00 0. -1.
         11    1    3    3    0    0 -0.74888728805E+02  0.44148269864E+02  0.46370194691E+03  0.47178054962E+03  0.00000000000E+00 0.  1.
</event>
<event>
 7    1  0.6145388E-006  0.1423918E+03  0.7561462E-02  0.1210146E+00
         -1   -1    0    0    0  501 -0.00000000000E+00  0.00000000000E+00  0.39203102097E+02  0.39203102097E+02  0.00000000000E+00 0.  1.
          1   -1    0    0  501    0  0.00000000000E+00 -0.00000000000E+00 -0.75147392786E+03  0.75147392786E+03  0.00000000000E+00 0. -1.
         23    2    1    2    0    0 -0.55108654188E+01 -0.12241664383E+03 -0.41297721763E+03  0.44391846208E+03  0.10722506407E+03 0.  0.
          5    1    1    2  502    0  0.13305571228E+02  0.10637472344E+03 -0.10012229598E+03  0.14674660666E+03  0.41800000000E+01 0. -1.
         -5    1    1    2    0  502 -0.77947058088E+01  0.16041920388E+02 -0.19917131215E+03  0.20001196122E+03  0.41800000000E+01 0. -1.
        -11    1    3    3    0    0  0.48084329128E+02 -0.55008725496E+02 -0.14372372959E+03  0.16122832579E+03  0.00000000000E+00 0. -1.
         11    1    3    3    0    0 -0.53595194547E+02 -0.67407918333E+02 -0.26925348804E+03  0.28269013629E+03  0.00000000000E+00 0.  1.
</event>
<event>
 7    1  0.6145388E-006  0.2153663E+03  0.7561462E-02  0.1137386E+00
         -2   -1    0    0    0  501 -0.00000000000E+00  0.00000000000E+00  0.25911420203E+03  0.25911420203E+03  0.00000000000E+00 0.  1.
          2   -1    0    0  501    0  0.00000000000E+00 -0.00000000000E+00 -0.19521072969E+03  0.19521072969E+03  0.00000000000E+00 0. -1.
         23    2    1    2    0    0  0.34919955088E+01 -0.19639922266E+03  0.31722228700E+02  0.21923449459E+03  0.92046809441E+02 0.  0.
          5    1    1    2  502    0 -0.11777565680E+02 -0.11357220460E+02  0.20832761780E+02  0.26817417350E+02  0.41800000000E+01 0. -1.
         -5    1    1    2    0  502  0.82855701712E+01  0.20775644312E+03  0.11348481858E+02  0.20827301979E+03  0.41800000000E+01 0. -1.
        -11    1    3    3    0    0 -0.28262653408E+02 -0.68535871892E+02  0.45155172537E+02  0.86803991386E+02  0.00000000000E+00 0.  1.
         11    1    3    3    0    0  0.31754648917E+02 -0.12786335077E+03 -0.13432943837E+02  0.13243050320E+03  0.00000000000E+00 0. -1.
</event>
<event>
 7    1  0.6145388E-006  0.9481649E+02  0.7561462E-02  0.1291590E+00
          2   -1    0    0  501    0  0.00000000000E+00  0.00000000000E+00  0.76839411752E+03  0.76839411752E+03  0.00000000000E+00 0. -1.
         -2   -1    0    0    0  501 -0.00000000000E+00 -0.00000000000E+00 -0.15930087149E+02  0.15930087149E+02  0.00000000000E+00 0.  1.
         23    2    1    2    0    0 -0.19092962289E+01 -0.11204577714E+02  0.39058190554E+03  0.40126298048E+03  0.91260980692E+02 0.  0.
          5    1    1    2  502    0  0.48239440407E+02 -0.48975847287E+01  0.30032035556E+03  0.30423809477E+03  0.41800000000E+01 0.  1.
         -5    1    1    2    0  502 -0.46330144178E+02  0.16102162443E+02  0.61561769272E+02  0.78823129415E+02  0.41800000000E+01 0.  1.
        -11    1    3    3    0    0  0.43529387628E+02 -0.15244121296E+02  0.18227989923E+03  0.18802434014E+03  0.00000000000E+00 0.  1.
         11    1    3    3    0    0 -0.45438683857E+02  0.40395435822E+01  0.20830200631E+03  0.21323864035E+03  0.00000000000E+00 0. -1.
</event>
<event>
 7    1  0.6145388E-006  0.1242302E+03  0.7561462E-02  0.1236277E+00
          4   -1    0    0  501    0  0.00000000000E+00  0.00000000000E+00  0.24784269688E+03  0.24784269688E+03  0.00000000000E+00 0. -1.
         -4   -1    0    0    0  501 -0.00000000000E+00 -0.00000000000E+00 -0.76081810448E+02  0.76081810448E+02  0.00000000000E+00 0.  1.
         23    2    1    2    0    0  0.72916985074E+01  0.17689315231E+01  0.12159501971E+03  0.15091444186E+03  0.89070320297E+02 0.  0.
          5    1    1    2  502    0 -0.84205232862E+02  0.16516815997E+02  0.32800410538E+02  0.91960131489E+02  0.41800000000E+01 0. -1.
         -5    1    1    2    0  502  0.76913534354E+02 -0.18285747520E+02  0.17365456183E+02  0.81049933977E+02  0.41800000000E+01 0.  1.
        -11    1    3    3    0    0 -0.29433515437E+02 -0.24444366466E+02  0.83554487059E+02  0.91897830174E+02  0.00000000000E+00 0. -1.
         11    1    3    3    0    0  0.36725213944E+02  0.26213297989E+02  0.38040532652E+02  0.59016611688E+02  0.00000000000E+00 0.  1.
</event>
<event>
 7    1  0.6145388E-006  0.4923457E+02  0.7561462E-02  0.1449514E+00
         -2   -1    0    0    0  501 -0.00000000000E+00  0.00000000000E+00  0.31192104537E+03  0.31192104537E+03  0.00000000000E+00 0.  1.
          2   -1    0    0  501    0  0.00000000000E+00 -0.00000000000E+00 -0.62152679701E+02  0.62152679701E+02  0.00000000000E+00 0. -1.
         23    2    1    2    0    0  0.18459423474E+02 -0.18769853657E+01  0.10961319580E+00  0.94215047054E+02  0.92369852697E+02 0.  0.
          5    1    1    2  502    0 -0.15999715882E+00  0.75660254030E+01 -0.13466833241E+02  0.16003072737E+02  0.41800000000E+01 0. -1.
         -5    1    1    2    0  502 -0.18299426315E+02 -0.56890400374E+01  0.26312558572E+03  0.26385560528E+03  0.41800000000E+01 0. -1.
        -11    1    3    3    0    0  0.15102300658E+02 -0.34371140520E+02 -0.31313763413E+02  0.48887693389E+02  0.00000000000E+00 0. -1.
         11    1    3    3    0    0  0.33571228155E+01  0.32494155154E+02  0.31423376609E+02  0.45327353665E+02  0.00000000000E+00 0.  1.
</event>
<event>
 7    1  0.6145388E-006  0.1404089E+03  0.7561462E-02  0.1212780E+00
         -4   -1    0    0    0  501 -0.00000000000E+00  0.00000000000E+00  0.84827939786E+02  0.84827939786E+02  0.00000000000E+00 0.  1.
          4   -1    0    0  501    0  0.00000000000E+00 -0.00000000000E+00 -0.34847617928E+03  0.34847617928E+03  0.00000000000E+00 0. -1.
         23    2    1    2    0    0 -0.26646074445E+02  0.87583841348E+02 -0.24643429838E+03  0.27734132252E+03  0.88359511156E+02 0.  0.
          5    1    1    2  502    0  0.12199833131E+02  0.31914154251E+02 -0.66702308733E+01  0.35061567990E+02  0.41800000000E+01 0.  1.
         -5    1    1    2    0  502  0.14446241314E+02 -0.11949799560E+03 -0.10543710243E+02  0.12090122856E+03  0.41800000000E+01 0.  1.
        -11    1    3    3    0    0 -0.39740001031E+02  0.24439582936E+01 -0.60548392060E+02  0.72466187945E+02  0.00000000000E+00 0.  1.
         11    1    3    3    0    0  0.13093926586E+02  0.85139883055E+02 -0.18588590632E+03  0.20487513457E+03  0.00000000000E+00 0. -1.
</event>
<event>
 7    1  0.6145388E-006  0.1052827E+03  0.7561462E-02  0.1269564E+00
         -1   -1    0    0    0  501 -0.00000000000E+00  0.00000000000E+00  0.30377619094E+02  0.30377619094E+02  0.00000000000E+00 0.  1.
          1   -1    0    0  501    0  0.00000000000E+00 -0.00000000000E+00 -0.47980840157E+03  0.47980840157E+03  0.00000000000E+00 0. -1.
         23    2    1    2    0    0  0.23005551711E+02  0.32480243758E+02 -0.26886238033E+03  0.28694497968E+03  0.92012065311E+02 0.  0.
          5    1    1    2  502    0 -0.62427639713E+02 -0.60147052429E+00 -0.41297200858E+02  0.74970015110E+02  0.41800000000E+01 0. -1.
         -5    1    1    2    0  502  0.39422088002E+02 -0.31878773233E+02 -0.13927120128E+03  0.14827102587E+03  0.41800000000E+01 0. -1.
        -11    1    3    3    0    0  0.54566063145E+02  0.35994782300E+02 -0.14459957695E+03  0.15868874331E+03  0.00000000000E+00 0.  1.
         11    1    3    3    0    0 -0.31560511434E+02 -0.35145385427E+01 -0.12426280339E+03  0.12825623637E+03  0.00000000000E+00 0. -1.
</event>
<event>
 7    1  0.6145388E-006  0.9843245E+02  0.7561462E-02  0.1283627E+00
         -2   -1    0    0    0  501 -0.00000000000E+00  0.00000000000E+00  0.89715944037E+02  0.89715944037E+02  0.00000000000E+00 0.  1.
          2   -1    0    0  501    0  0.00000000000E+00 -0.00000000000E+00 -0.12745147360E+03  0.12745147360E+03  0.00000000000E+00 0. -1.
         23    2    1    2    0    0  0.11451135814E+02 -0.15264467291E+01 -0.22722858432E+02  0.90652009611E+02  0.86994252684E+02 0.  0.
          5    1    1    2  502    0  0.25823735643E+02  0.51092314304E+02  0.12165467122E+02  0.58675044898E+02  0.41800000000E+01 0.  1.
         -5    1    1    2    0  502 -0.37274871457E+02 -0.49565867575E+02 -0.27178138255E+02  0.67840363130E+02  0.41800000000E+01 0.  1.
        -11    1    3    3    0    0 -0.18292343971E+02  0.29254686717E+02 -0.31770991979E+02  0.46902478337E+02  0.00000000000E+00 0. -1.
         11    1    3    3    0    0  0.29743479786E+02 -0.30781133446E+02  0.90481335470E+01  0.43749531274E+02  0.00000000000E+00 0.  1.
</event>
<event>
 7    1  0.6145388E-006  0.1266370E+03  0.7561462E-02  0.1232533E+00
          1   -1    0    0  501    0  0.00000000000E+00  0.00000000000E+00  0.19321033984E+03  0.19321033984E+03  0.00000000000E+00 0. -1.
         -1   -1    0    0    0  501 -0.00000000000E+00 -0.00000000000E+00 -0.10180706425E+03  0.10180706425E+03  0.00000000000E+00 0.  1.
         23    2    1    2    0    0  0.70676253268E+02 -0.93066405335E+01  0.10025999402E+03  0.15078494097E+03  0.87191087204E+02 0.  0.
          5    1    1    2  502    0 -0.10627931564E+03 -0.15522412478E+01 -0.38429561522E+01  0.10644220544E+03  0.41800000000E+01 0.  1.
         -5    1    1    2    0  502  0.35603062375E+02  0.10858881781E+02 -0.50137622740E+01  0.37790257689E+02  0.41800000000E+01 0.  1.
        -11    1    3    3    0    0  0.82017207791E+01 -0.39297830722E+02  0.20340053165E+02  0.45003394160E+02  0.00000000000E+00 0.  1.
         11    1    3    3    0    0  0.62474532489E+02  0.29991190189E+02  0.79919940854E+02  0.10578154681E+03  0.00000000000E+00 0. -1.
</event>
<event>
 7    1  0.6145388E-006  0.1443493E+03  0.7561462E-02  0.1207594E+00
         -3   -1    0    0    0  501 -0.00000000000E+00  0.00000000000E+00  0.38658879881E+03  0.38658879881E+03  0.00000000000E+00 0.  1.
          3   -1    0    0  501    0  0.00000000000E+00 -0.00000000000E+00 -0.82282397759E+02  0.82282397759E+02  0.00000000000E+00 0. -1.
         23    2    1    2    0    0 -0.79237580793E+02 -0.10290937949E+03  0.70122441873E+02  0.17330543929E+03  0.90822265089E+02 0.  0.
          5    1    1    2  502    0  0.58651542422E+02  0.76835481176E+02  0.51047961700E+02  0.10939406469E+03  0.41800000000E+01 0. -1.
         -5    1    1    2    0  502  0.20586038371E+02  0.26073898314E+02  0.18313599748E+03  0.18617169259E+03  0.41800000000E+01 0. -1.
        -11    1    3    3    0    0 -0.95333494252E+02 -0.60023388339E+02  0.48516954554E+02  0.12265878343E+03  0.00000000000E+00 0. -1.
         11    1    3    3    0    0  0.16095913459E+02 -0.42885991151E+02  0.21605487318E+02  0.50646655855E+02  0.00000000000E+00 0.  1.
</event>
<event>
 6    1  0.6145388E-006  0.7678337E+02  0.7561462E-02  0.1338436E+00
          2   -1    0    0  501    0  0.00000000000E+00  0.00000000000E+00  0.62027543390E+03  0.62027543390E+03  0.00000000000E+00 0. -1.
         -2   -1    0    0    0  501 -0.00000000000E+00 -0.00000000000E+00 -0.18382871930E+02  0.18382871930E+02  0.00000000000E+00 0.  1.
          5    1    1    2  502    0  0.38018789064E+02  0.44571283451E+02  0.37973503181E+03  0.38425017165E+03  0.41800000000E+01 0. -1.
         -5    1    1    2    0  502  0.19977342540E+02 -0.77709935253E+00  0.86152483772E+00  0.20442913770E+02  0.41800000000E+01 0.  1.
        -11    1    1    2    0    0 -0.22276845438E+02 -0.26811740428E+02  0.80582576669E+02  0.87799082740E+02  0.00000000000E+00 0. -1.
         11    1    1    2    0    0 -0.35719286167E+02 -0.16982443670E+02  0.14071342865E+03  0.14616613767E+03  0.00000000000E+00 0.  1.
</event>
<event>
 6    1  0.6145388E-006  0.6301792E+02  0.7561462E-02  0.1385586E+00
         -2   -1    0    0    0  501 -0.00000000000E+00  0.00000000000E+00  0.21614569154E+02  0.21614569154E+02  0.00000000000E+00 0.  1.
          2   -1    0    0  501    0  0.00000000000E+00 -0.00000000000E+00 -0.40272673538E+03  0.40272673538E+03  0.00000000000E+00 0. -1.
          5    1    1    2  502    0 -0.33955287266E+02 -0.18287234630E+02 -0.21790093830E+03  0.22132707877E+03  0.41800000000E+01 0.  1.
         -5    1    1    2    0  502 -0.56921348227E+01  0.39970142703E+02 -0.88377484657E+01  0.41540232359E+02  0.41800000000E+01 0.  1.
        -11    1    1    2    0    0  0.28983722044E+02 -0.95854184045E+01 -0.87109107231E+02  0.92303482881E+02  0.00000000000E+00 0.  1.
         11    1    1    2    0    0  0.10663700044E+02 -0.12097489669E+02 -0.67264372227E+02  0.69170510523E+02  0.00000000000E+00 0. -1.
</event>
<event>
 7    1  0.6145388E-006  0.9085891E+02  0.7561462E-02  0.1300785E+00
          1   -1    0    0  501    0  0.00000000000E+00  0.00000000000E+00  0.28264357650E+03  0.28264357650E+03  0.00000000000E+00 0. -1.
         -1   -1    0    0    0  501 -0.00000000000E+00 -0.00000000000E+00 -0.48378772513E+02  0.48378772513E+02  0.00000000000E+00 0.  1.
         23    2    1    2    0    0 -0.29328837834E+02 -0.12501577876E+02  0.14572568853E+03  0.17448281885E+03  0.90508605112E+02 0.  0.
          5    1    1    2  502    0  0.89367145948E+01  0.45651923030E+02 -0.12359851255E+02  0.48313572287E+02  0.41800000000E+01 0.  1.
         -5    1    1    2    0  502  0.20392123239E+02 -0.33150345153E+02  0.10089896672E+03  0.10822595788E+03  0.41800000000E+01 0.  1.
        -11    1    3    3    0    0  0.32647716446E+02 -0.23557934254E-01  0.46054025597E+02  0.56452167521E+02  0.00000000000E+00 0.  1.
         11    1    3    3    0    0 -0.61976554280E+02 -0.12478019942E+02  0.99671662930E+02  0.11803065133E+03  0.00000000000E+00 0. -1.
</event>
<event>
 7    1  0.6145388E-006  0.2078584E+03  0.7561462E-02  0.1143273E+00
         -4   -1    0    0    0  501 -0.00000000000E+00  0.00000000000E+00  0.15195653889E+03  0.15195653889E+03  0.00000000000E+00 0.  1.
          4   -1    0    0  501    0  0.00000000000E+00 -0.00000000000E+00 -0.35379350512E+03  0.35379350512E+03  0.00000000000E+00 0. -1.
         23    2    1    2    0    0  0.84753036370E+02  0.17367872879E+03 -0.17056552531E+03  0.27342867718E+03  0.91231930125E+02 0.  0.
          5    1    1    2  502    0 -0.27703153344E+02 -0.15709008592E+03  0.99649959816E+01  0.15987974651E+03  0.41800000000E+01 0. -1.
         -5    1    1    2    0  502 -0.57049883025E+02 -0.16588642869E+02 -0.41236436909E+02  0.72441620319E+02  0.41800000000E+01 0. -1.
        -11    1    3    3    0    0  0.79994457709E+02  0.12992452300E+03 -0.78955876435E+02  0.17179500972E+03  0.00000000000E+00 0.  1.
         11    1    3    3    0    0  0.47585786608E+01  0.43754205788E+02 -0.91609648875E+02  0.10163366746E+03  0.00000000000E+00 0. -1.
</event>
<event>
 7    1  0.6145388E-006  0.8059168E+02  0.7561462E-02  0.1327381E+00
          2   -1    0    0  501    0  0.00000000000E+00  0.00000000000E+00  0.26473749552E+03  0.26473749552E+03  0.00000000000E+00 0. -1.
         -2   -1    0    0    0  501 -0.00000000000E+00 -0.00000000000E+00 -0.66663330936E+02  0.66663330936E+02  0.00000000000E+00 0.  1.
         23    2    1    2    0    0 -0.52542504357E+02  0.20261942225E+02  0.15165718395E+03  0.18658053498E+03  0.92957697507E+02 0.  0.
          5    1    1    2  502    0  0.35965120568E+01 -0.18395582830E+02  0.81945682624E+02  0.84165905611E+02  0.41800000000E+01 0.  1.
         -5    1    1    2    0  502  0.48945992301E+02 -0.18663593948E+01 -0.35528701984E+02  0.60654385862E+02  0.41800000000E+01 0.  1.
        -11    1    3    3    0    0 -0.17682234111E+02 -0.28101564775E+02  0.13011391555E+02  0.35660281212E+02  0.00000000000E+00 0.  1.
         11    1    3    3    0    0 -0.34860270246E+02  0.48363507000E+02  0.13864579239E+03  0.15092025377E+03  0.00000000000E+00 0. -1.
</event>
<event>
 7    1  0.6145388E-006  0.9250036E+02  0.7561462E-02  0.1296907E+00
          1   -1    0    0  501    0  0.00000000000E+00  0.00000000000E+00  0.96728928766E+02  0.96728928766E+02  0.00000000000E+00 0. -1.
         -1   -1    0    0    0  501 -0.00000000000E+00 -0.00000000000E+00 -0.16911537571E+03  0.16911537571E+03  0.00000000000E+00 0.  1.
         23    2    1    2    0    0 -0.45391816497E+02  0.23926425233E+02  0.24212819620E+02  0.99671253836E+02  0.81946368912E+02 0.  0.
          5    1    1    2  502    0 -0.13049228457E+01 -0.48862741323E+02  0.71951067168E+01  0.49583387075E+02  0.41800000000E+01 0. -1.
         -5    1    1    2    0  502  0.46696739343E+02  0.24936316090E+02 -0.10379437328E+03  0.11658966357E+03  0.41800000000E+01 0. -1.
        -11    1    3    3    0    0  0.16823826567E+02  0.79377064858E+01  0.29866132793E+02  0.35185710347E+02  0.00000000000E+00 0. -1.
         11    1    3    3    0    0 -0.62215643065E+02  0.15988718747E+02 -0.56533131729E+01  0.64485543488E+02  0.00000000000E+00 0.  1.
</event>
<event>
 7    1  0.6145388E-006  0.8174682E+02  0.7561462E-02  0.1324166E+00
          1   -1    0    0  501    0  0.00000000000E+00  0.00000000000E+00  0.44934413827E+03  0.44934413827E+03  0.00000000000E+00 0. -1.
         -1   -1    0    0    0  501 -0.00000000000E+00 -0.00000000000E+00 -0.26218079382E+02  0.26218079382E+02  0.00000000000E+00 0.  1.
         23    2    1    2    0    0  0.76351526547E+01  0.18500281491E+02  0.21049109069E+03  0.22805198848E+03  0.85443865871E+02 0.  0.
          5    1    1    2  502    0  0.37306308842E+02 -0.11627381692E+02  0.11054823971E+02  0.40824480615E+02  0.41800000000E+01 0. -1.
         -5    1    1    2    0  502 -0.44941461497E+02 -0.68728997987E+01  0.20158014422E+03  0.20668574856E+03  0.41800000000E+01 0. -1.
        -11    1    3    3    0    0  0.40032583910E+02 -0.21995253100E+01  0.15787654422E+03  0.16288784147E+03  0.00000000000E+00 0. -1.
         11    1    3    3    0    0 -0.32397431256E+02  0.20699806801E+02  0.52614546478E+02  0.65164147003E+02  0.00000000000E+00 0.  1.
</event>
<event>
 7    1  0.6145388E-006  0.1760616E+03  0.7561462E-02  0.1171670E+00
         -1   -1    0    0    0  501 -0.00000000000E+00  0.00000000000E+00  0.10538397061E+03  0.10538397061E+03  0.00000000000E+00 0.  1.
          1   -1    0    0  501    0  0.00000000000E+00 -0.00000000000E+00 -0.35785484508E+03  0.35785484508E+03  0.00000000000E+00 0. -1.
         23    2    1    2    0    0 -0.54108012144E+02 -0.15687468874E+03 -0.12198450794E+03  0.21785940309E+03  0.71029250271E+02 0.  0.
          5    1    1    2  502    0  0.10267720451E+02  0.11394115213E+03 -0.16234003829E+02  0.11562451087E+03  0.41800000000E+01 0.  1.
         -5    1    1    2    0  502  0.43840291693E+02  0.42933536604E+02 -0.11425236269E+03  0.12975490173E+03  0.41800000000E+01 0.  1.
        -11    1    3    3    0    0 -0.65411600092E+02 -0.11051383936E+03 -0.66300701709E+02  0.14452601553E+03  0.00000000000E+00 0.  1.
         11    1    3    3    0    0  0.11303587949E+02 -0.46360849373E+02 -0.55683806234E+02  0.73333387565E+02  0.00000000000E+00 0. -1.
</event>
<event>
 7    1  0.6145388E-006  0.1225696E+03  0.7561462E-02  0.1238917E+00
         -3   -1    0    0    0  501 -0.00000000000E+00  0.00000000000E+00  0.78157752305E+02  0.78157752305E+02  0.00000000000E+00 0.  1.
          3   -1    0    0  501    0  0.00000000000E+00 -0.00000000000E+00 -0.23826245793E+03  0.23826245793E+03  0.00000000000E+00 0. -1.
         23    2    1    2    0    0 -0.86105034340E+01 -0.30700344531E+02 -0.11996029309E+03  0.15449497473E+03  0.91986810886E+02 0.  0.
          5    1    1    2  502    0  0.36805997162E+02 -0.51569588858E+02  0.52921197660E+01  0.63714855833E+02  0.41800000000E+01 0. -1.
         -5    1    1    2    0  502 -0.28195493729E+02  0.82269933389E+02 -0.45436532301E+02  0.98210379665E+02  0.41800000000E+01 0.  1.
        -11    1    3    3    0    0  0.10702526861E+02 -0.59194499553E+02 -0.57706113976E+02  0.83357833758E+02  0.00000000000E+00 0. -1.
         11    1    3    3    0    0 -0.19313030295E+02  0.28494155022E+02 -0.62254179109E+02  0.71137140975E+02  0.00000000000E+00 0.  1.
</event>
<event>
 7    1  0.6145388E-006  0.1054088E+03  0.7561462E-02  0.1269316E+00
          2   -1    0    0  501    0  0.00000000000E+00  0.00000000000E+00  0.17929379419E+03  0.17929379419E+03  0.00000000000E+00 0. -1.
         -2   -1    0    0    0  501 -0.00000000000E+00 -0.00000000000E+00 -0.11498720119E+03  0.11498720119E+03  0.00000000000E+00 0.  1.
         23    2    1    2    0    0  0.48631553656E+02 -0.27115665103E+02  0.10936148524E+03  0.15013317030E+03  0.86485530971E+02 0.  0.
          5    1    1    2  502    0 -0.74281224769E+02  0.36375253582E+02 -0.68864159564E+02  0.10770610149E+03  0.41800000000E+01 0.  1.
         -5    1    1    2    0  502  0.25649671112E+02 -0.92595884780E+01  0.23809267324E+02  0.36441723579E+02  0.41800000000E+01 0.  1.
        -11    1    3    3    0    0 -0.21478819502E+02 -0.20997887797E+02  0.48712323935E+02  0.57228851835E+02  0.00000000000E+00 0.  1.
         11    1    3    3    0    0  0.70110373158E+02 -0.61177773060E+01  0.60649161301E+02  0.92904318469E+02  0.00000000000E+00 0. -1.
</event>
<event>
 7    1  0.6145388E-006  0.5736123E+02  0.7561462E-02  0.1409251E+00
         -2   -1    0    0    0  501 -0.00000000000E+00  0.00000000000E+00  0.21716101701E+02  0.21716101701E+02  0.00000000000E+00 0.  1.
          2   -1    0    0  501    0  0.00000000000E+00 -0.00000000000E+00 -0.58078645855E+03  0.58078645855E+03  0.00000000000E+00 0. -1.
         23    2    1    2    0    0 -0.26043437208E+02  0.13258464015E+02 -0.20541753171E+03  0.22624051177E+03  0.90190683241E+02 0.  0.
          5    1    1    2  502    0  0.22683995146E+02 -0.53680579428E+01 -0.12343463406E+01  0.23714461680E+02  0.41800000000E+01 0.  1.
         -5    1    1    2    0  502  0.33594420617E+01 -0.78904060721E+01 -0.35241847880E+03  0.35254758680E+03  0.41800000000E+01 0.  1.
        -11    1    3    3    0    0  0.25508919802E+02 -0.64448930737E+01 -0.20767216897E+02  0.33518933960E+02  0.00000000000E+00 0.  1.
         11    1    3    3    0    0 -0.51552357010E+02  0.19703357089E+02 -0.18465031481E+03  0.19272157781E+03  0.00000000000E+00 0. -1.
</event>
<event>
 7    1  0.6145388E-006  0.1272030E+03  0.7561462E-02  0.1231666E+00
          1   -1    0    0  501    0  0.00000000000E+00  0.00000000000E+00  0.48732766043E+03  0.48732766043E+03  0.00000000000E+00 0. -1.
         -1   -1    0    0    0  501 -0.00000000000E+00 -0.00000000000E+00 -0.33529870591E+02  0.33529870591E+02  0.00000000000E+00 0.  1.
         23    2    1    2    0    0 -0.56127875138E+02  0.30628458689E+02  0.22530359306E+03  0.25263129574E+03  0.94722867836E+02 0.  0.
          5    1    1    2  502    0  0.93420440039E+02 -0.25685846988E+01  0.15640810627E+03  0.18224967586E+03  0.41800000000E+01 0. -1.
         -5    1    1    2    0  502 -0.37292564901E+02 -0.28059873990E+02  0.72086090506E+02  0.85976559420E+02  0.41800000000E+01 0. -1.
        -11    1    3    3    0    0 -0.74493997406E+02 -0.42142902530E+01  0.15575587745E+03  0.17270497750E+03  0.00000000000E+00 0.  1.
         11    1    3    3    0    0  0.18366122268E+02  0.34842748942E+02  0.69547715610E+02  0.79926318241E+02  0.00000000000E+00 0. -1.
</event>
<event>
 7    1  0.6145388E-006  0.1004448E+03  0.7561462E-02  0.1279363E+00
          2   -1    0    0  501    0  0.00000000000E+00  0.00000000000E+00  0.56742508413E+03  0.56742508413E+03  0.00000000000E+00 0. -1.
         -2   -1    0    0    0  501 -0.00000000000E+00 -0.00000000000E+00 -0.19930859179E+02  0.19930859179E+02  0.00000000000E+00 0.  1.
         23    2    1    2    0    0 -0.92990399029E+01  0.10305080235E+02  0.25205325729E+03  0.26622469808E+03  0.84569962373E+02 0.  0.
          5    1    1    2  502    0 -0.32252124638E+02 -0.53163671996E+02  0.18915951392E+03  0.19916166717E+03  0.41800000000E+01 0.  1.
         -5    1    1    2    0  502  0.41551164541E+02  0.42858591762E+02  0.10628145374E+03  0.12196957806E+03  0.41800000000E+01 0.  1.
        -11    1    3    3    0    0 -0.15884720400E+02 -0.32099326546E+02  0.16885446369E+03  0.17261089483E+03  0.00000000000E+00 0. -1.
         11    1    3    3    0    0  0.65856804971E+01  0.42404406781E+02  0.83198793597E+02  0.93613803245E+02  0.00000000000E+00 0.  1.
</event>
<event>
 7    1  0.6145388E-006  0.1169959E+03  0.7561462E-02  0.1248137E+00
         -1   -1    0    0    0  501 -0.00000000000E+00  0.00000000000E+00  0.81712755089E+02  0.81712755089E+02  0.00000000000E+00 0.  1.
          1   -1    0    0  501    0  0.00000000000E+00 -0.00000000000E+00 -0.30237939239E+03  0.30237939239E+03  0.00000000000E+00 0. -1.
         23    2    1    2    0    0 -0.22182656254E+02 -0.11178791570E+03 -0.11270182971E+03  0.18336308724E+03  0.89060153879E+02 0.  0.
          5    1    1    2  502    0 -0.57460405071E+01  0.54837290579E+02  0.19221913900E+02  0.58541436552E+02  0.41800000000E+01 0.  1.
         -5    1    1    2    0  502  0.27928696761E+02  0.56950625122E+02 -0.12718672149E+03  0.14218762368E+03  0.41800000000E+01 0.  1.
        -11    1    3    3    0    0 -0.24156650684E+02 -0.87898369424E+02 -0.28039016844E+02  0.95372184547E+02  0.00000000000E+00 0.  1.
         11    1    3    3    0    0  0.19739944307E+01 -0.23889546277E+02 -0.84662812865E+02  0.87990902698E+02  0.00000000000E+00 0. -1.
</event>
<event>
 7    1  0.6145388E-006  0.1101347E+03  0.7561462E-02  0.1260321E+00
          4   -1    0    0  501    0  0.00000000000E+00  0.00000000000E+00  0.10458287498E+03  0.10458287498E+03  0.00000000000E+00 0. -1.
         -4   -1    0    0    0  501 -0.00000000000E+00 -0.00000000000E+00 -0.14575609462E+03  0.14575609462E+03  0.00000000000E+00 0.  1.
         23    2    1    2    0    0 -0.55454898255E+02  0.12793280456E+02 -0.28729006978E+01  0.10767728668E+03  0.91363180458E+02 0.  0.
          5    1    1    2  502    0  0.24770962432E+02 -0.60723994906E+02  0.11750859602E+02  0.66757465789E+02  0.41800000000E+01 0. -1.
         -5    1    1    2    0  502  0.30683935823E+02  0.47930714450E+02 -0.50051178540E+02  0.75904217133E+02  0.41800000000E+01 0. -1.
        -11    1    3    3    0    0 -0.70088981442E+02  0.28823846646E+02 -0.21822379715E+02  0.78863779465E+02  0.00000000000E+00 0.  1.
         11    1    3    3    0    0  0.14634083187E+02 -0.16030566190E+02  0.18949479017E+02  0.28813507217E+02  0.00000000000E+00 0. -1.
</event>
<event>
 7    1  0.6145388E-006  0.1309666E+03  0.7561462E-02  0.1226029E+00
          1   -1    0    0  501    0  0.00000000000E+00  0.00000000000E+00  0.45337210128E+03  0.45337210128E+03  0.00000000000E+00 0. -1.
         -1   -1    0    0    0  501 -0.00000000000E+00 -0.00000000000E+00 -0.49081746593E+02  0.49081746593E+02  0.00000000000E+00 0.  1.
         23    2    1    2    0    0 -0.33753083858E+01 -0.10659007540E+03  0.20105506936E+03  0.24107541397E+03  0.79507090405E+02 0.  0.
          5    1    1    2  502    0  0.37832607613E+02  0.11227719459E+03  0.10998262322E+03  0.16171309296E+03  0.41800000000E+01 0. -1.
         -5    1    1    2    0  502 -0.34457299227E+02 -0.56871191887E+01  0.93252662111E+02  0.99665340944E+02  0.41800000000E+01 0. -1.
        -11    1    3    3    0    0 -0.10616782123E+02 -0.77752039428E+02  0.65260714877E+02  0.10206398289E+03  0.00000000000E+00 0.  1.
         11    1    3    3    0    0  0.72414737375E+01 -0.28838035975E+02  0.13579435448E+03  0.13901143107E+03  0.00000000000E+00 0. -1.
</event>
<event>
 7    1  0.6145388E-006  0.1143022E+03  0.7561462E-02  0.1252804E+00
          4   -1    0    0  501    0  0.00000000000E+00  0.00000000000E+00  0.12996303462E+03  0.12996303462E+03  0.00000000000E+00 0. -1.
         -4   -1    0    0    0  501 -0.00000000000E+00 -0.00000000000E+00 -0.16283019991E+03  0.16283019991E+03  0.00000000000E+00 0.  1.
         23    2    1    2    0    0 -0.49318667733E+02 -0.82823435555E+02 -0.62223381807E+01  0.13264012711E+03  0.90899028400E+02 0.  0.
          5    1    1    2  502    0  0.33726116671E+02  0.65513144574E+02 -0.75677070663E+02  0.10570673811E+03  0.41800000000E+01 0. -1.
         -5    1    1    2    0  502  0.15592551062E+02  0.17310290981E+02  0.49032243551E+02  0.54446369301E+02  0.41800000000E+01 0. -1.
        -11    1    3    3    0    0  0.19400694981E+02 -0.52592689114E+02 -0.12056609228E+02  0.57338815300E+02  0.00000000000E+00 0. -1.
         11    1    3    3    0    0 -0.68719362713E+02 -0.30230746441E+02  0.58342710478E+01  0.75301311813E+02  0.00000000000E+00 0.  1.
</event>
<event>
 7    1  0.6145388E-006  0.1195669E+03  0.7561462E-02  0.1243813E+00
          2   -1    0    0  501    0  0.00000000000E+00  0.00000000000E+00  0.75335094809E+03  0.75335094809E+03  0.00000000000E+00 0. -1.
         -2   -1    0    0    0  501 -0.00000000000E+00 -0.00000000000E+00 -0.20814957584E+02  0.20814957584E+02  0.00000000000E+00 0.  1.
         23    2    1    2    0    0 -0.42461370821E+02 -0.44358958973E+02  0.43496997242E+03  0.45040422389E+03  0.99470612417E+02 0.  0.
          5    1    1    2  502    0 -0.21283277568E+02 -0.24987192778E+02  0.85566119912E+02  0.91740781464E+02  0.41800000000E+01 0. -1.
         -5    1    1    2    0  502  0.63744648389E+02  0.69346151751E+02  0.21199989818E+03  0.23202090032E+03  0.41800000000E+01 0.  1.
        -11    1    3    3    0    0  0.26293950625E+02  0.54579240920E+01  0.56916967115E+02  0.62934107767E+02  0.00000000000E+00 0.  1.
         11    1    3    3    0    0 -0.68755321446E+02 -0.49816883065E+02  0.37805300531E+03  0.38747011612E+03  0.00000000000E+00 0. -1.
</event>
<event>
 7    1  0.6145388E-006  0.1092159E+03  0.7561462E-02  0.1262029E+00
         -1   -1    0    0    0  501 -0.00000000000E+00  0.00000000000E+00  0.10680172610E+03  0.10680172610E+03  0.00000000000E+00 0.  1.
          1   -1    0    0  501    0  0.00000000000E+00 -0.00000000000E+00 -0.14291263586E+03  0.14291263586E+03  0.00000000000E+00 0. -1.
         23    2    1    2    0    0  0.55461254131E+02 -0.64154471366E+01 -0.28698434140E+02  0.11253191196E+03  0.93395516035E+02 0.  0.
          5    1    1    2  502    0 -0.13551963976E+02 -0.48420500876E+02  0.29864235351E+02  0.58630585754E+02  0.41800000000E+01 0.  1.
         -5    1    1    2    0  502 -0.41909290154E+02  0.54835948013E+02 -0.37276710969E+02  0.78551864245E+02  0.41800000000E+01 0.  1.
        -11    1    3    3    0    0  0.45918305993E+02 -0.41855021366E+02  0.54896076360E+01  0.62373627687E+02  0.00000000000E+00 0.  1.
         11    1    3    3    0    0  0.95429481374E+01  0.35439574229E+02 -0.34188041776E+02  0.50158284272E+02  0.00000000000E+00 0. -1.
</event>
<event>
 7    1  0.6145388E-006  0.2296449E+03  0.7561462E-02  0.1126890E+00
          1   -1    0    0  501    0  0.00000000000E+00  0.00000000000E+00  0.84645866109E+03  0.84645866109E+03  0.00000000000E+00 0. -1.
         -1   -1    0    0    0  501 -0.00000000000E+00 -0.00000000000E+00 -0.69321913472E+02  0.69321913472E+02  0.00000000000E+00 0.  1.
         23    2    1    2    0    0 -0.18692458108E+03  0.10833315906E+03  0.37954869705E+03  0.44631413292E+03  0.91990322589E+02 0.  0.
          5    1    1    2  502    0  0.66306007397E+02 -0.10062195149E+03  0.25793649300E+03  0.28472788863E+03  0.41800000000E+01 0.  1.
         -5    1    1    2    0  502  0.12061857368E+03 -0.77112075696E+01  0.13965155756E+03  0.18473855301E+03  0.41800000000E+01 0.  1.
        -11    1    3    3    0    0 -0.87077273363E+02  0.66287659638E+02  0.27405761479E+03  0.29510012128E+03  0.00000000000E+00 0.  1.
         11    1    3    3    0    0 -0.99847307715E+02  0.42045499421E+02  0.10549108226E+03  0.15121401164E+03  0.00000000000E+00 0. -1.
</event>
<event>
 7    1  0.6145388E-006  0.7913172E+02  0.7561462E-02  0.1331534E+00
          3   -1    0    0  501    0  0.00000000000E+00  0.00000000000E+00  0.26021952494E+03  0.26021952494E+03  0.00000000000E+00 0. -1.
         -3   -1    0    0    0  501 -0.00000000000E+00 -0.00000000000E+00 -0.57512548715E+02  0.57512548715E+02  0.00000000000E+00 0.  1.
         23    2    1    2    0    0  0.55743425607E+01 -0.46919569960E+02  0.52673664227E+02  0.11675942880E+03  0.92874808049E+02 0.  0.
          5    1    1    2  502    0  0.23211807718E+02  0.28749026140E+02  0.16078566221E+03  0.16502968247E+03  0.41800000000E+01 0.  1.
         -5    1    1    2    0  502 -0.28786150278E+02  0.18170543820E+02 -0.10752350211E+02  0.35942962394E+02  0.41800000000E+01 0.  1.
        -11    1    3    3    0    0 -0.25276555271E+02 -0.49747444417E+02  0.62947998857E+02  0.84119932433E+02  0.00000000000E+00 0. -1.
         11    1    3    3    0    0  0.30850897832E+02  0.28278744567E+01 -0.10274334631E+02  0.32639496366E+02  0.00000000000E+00 0.  1.
</event>
<event>
 7    1  0.6145388E-006  0.1069197E+03  0.7561462E-02  0.1266383E+00
         -2   -1    0    0    0  501 -0.00000000000E+00  0.00000000000E+00  0.22240240739E+02  0.22240240739E+02  0.00000000000E+00 0.  1.
          2   -1    0    0  501    0  0.00000000000E+00 -0.00000000000E+00 -0.64832831321E+03  0.64832831321E+03  0.00000000000E+00 0. -1.
         23    2    1    2    0    0 -0.33423257534E+02 -0.33147327848E+02 -0.30943956992E+03  0.32686993729E+03  0.94208539884E+02 0.  0.
          5    1    1    2  502    0  0.85474148767E+01  0.77246987171E+02 -0.14346572596E+03  0.16321777554E+03  0.41800000000E+01 0.  1.
         -5    1    1    2    0  502  0.24875842658E+02 -0.44099659323E+02 -0.17318277659E+03  0.18048084111E+03  0.41800000000E+01 0.  1.
        -11    1    3    3    0    0 -0.36173327894E+02 -0.53547019689E+02 -0.29431757818E+03  0.30132810987E+03  0.00000000000E+00 0. -1.
         11    1    3    3    0    0  0.27500703602E+01  0.20399691841E+02 -0.15121991735E+02  0.25541827426E+02  0.00000000000E+00 0.  1.
</event>
<event>
 7    1  0.6145388E-006  0.1109000E+03  0.7561462E-02  0.1258912E+00
         -2   -1    0    0    0  501 -0.00000000000E+00  0.00000000000E+00  0.80047414275E+02  0.80047414275E+02  0.00000000000E+00 0.  1.
          2   -1    0    0  501    0  0.00000000000E+00 -0.00000000000E+00 -0.20050922795E+03  0.20050922795E+03  0.00000000000E+00 0. -1.
         23    2    1    2    0    0 -0.17392229469E+02 -0.21415748281E+02 -0.11782879153E+03  0.15243492560E+03  0.92691199746E+02 0.  0.
          5    1    1    2  502    0  0.38204207276E+02  0.66862117190E+02 -0.86431508523E+01  0.77603354473E+02  0.41800000000E+01 0. -1.
         -5    1    1    2    0  502 -0.20811977807E+02 -0.45446368909E+02  0.60101287048E+01  0.50518362150E+02  0.41800000000E+01 0. -1.
        -11    1    3    3    0    0  0.26944950960E+02  0.20227710973E+02 -0.27278746303E+02  0.43351132319E+02  0.00000000000E+00 0. -1.
         11    1    3    3    0    0 -0.44337180429E+02 -0.41643459254E+02 -0.90550045226E+02  0.10908379329E+03  0.00000000000E+00 0.  1.
</event>
<event>
 7    1  0.6145388E-006  0.1227472E+03  0.7561462E-02  0.1238633E+00
         -1   -1    0    0    0  501 -0.00000000000E+00  0.00000000000E+00  0.25783670293E+02  0.25783670293E+02  0.00000000000E+00 0.  1.
          1   -1    0    0  501    0  0.00000000000E+00 -0.00000000000E+00 -0.99053274369E+03  0.99053274369E+03  0.00000000000E+00 0. -1.
         23    2    1    2    0    0 -0.10289454572E+03  0.37813999435E+02 -0.57568072241E+03  0.59318760359E+03  0.91902409158E+02 0.  0.
          5    1    1    2  502    0  0.24505892559E+02 -0.78640205597E+01 -0.10255027801E+01  0.26094168801E+02  0.41800000000E+01 0.  1.
         -5    1    1    2    0  502  0.78388653156E+02 -0.29949978875E+02 -0.38804284821E+03  0.39703464159E+03  0.41800000000E+01 0.  1.
        -11    1    3    3    0    0 -0.10697625231E+03  0.10171490163E+02 -0.51882649904E+03  0.52983800721E+03  0.00000000000E+00 0. -1.
         11    1    3    3    0    0  0.40817065952E+01  0.27642509272E+02 -0.56854223367E+02  0.63349596386E+02  0.00000000000E+00 0.  1.
</event>
<event>
 7    1  0.6145388E-006  0.1315229E+03  0.7561462E-02  0.1225213E+00
         -1   -1    0    0    0  501 -0.00000000000E+00  0.00000000000E+00  0.41381908871E+03  0.41381908871E+03  0.00000000000E+00 0.  1.
          1   -1    0    0  501    0  0.00000000000E+00 -0.00000000000E+00 -0.65724022036E+02  0.65724022036E+02  0.00000000000E+00 0. -1.
         23    2    1    2    0    0 -0.93421159632E+02 -0.71258573537E+02  0.10157707987E+03  0.17917093943E+03  0.89325388389E+02 0.  0.
          5    1    1    2  502    0  0.10140748368E+02  0.51407910790E+02  0.19134750998E+03  0.19843626192E+03  0.41800000000E+01 0. -1.
         -5    1    1    2    0  502  0.83280411264E+02  0.19850662747E+02  0.55170476824E+02  0.10193590940E+03  0.41800000000E+01 0. -1.
        -11    1    3    3    0    0 -0.25922172223E+02 -0.45795620687E+02  0.92552359261E+02  0.10646660083E+03  0.00000000000E+00 0.  1.
         11    1    3    3    0    0 -0.67498987409E+02 -0.25462952850E+02  0.90247206072E+01  0.72704338599E+02  0.00000000000E+00 0. -1.
</event>
<event>
 7    1  0.6145388E-006  0.9928927E+02  0.7561462E-02  0.1281798E+00
         -1   -1    0    0    0  501 -0.00000000000E+00  0.00000000000E+00  0.37620949069E+02  0.37620949069E+02  0.00000000000E+00 0.  1.
          1   -1    0    0  501    0  0.00000000000E+00 -0.00000000000E+00 -0.50713045521E+03  0.50713045521E+03  0.00000000000E+00 0. -1.
         23    2    1    2    0    0 -0.13331050114E+02  0.77833245431E+02 -0.27879794495E+03  0.30355307908E+03  0.90445822010E+02 0.  0.
          5    1    1    2  502    0  0.14835517990E+02  0.99458589277E+01 -0.13693963812E+03  0.13816276485E+03  0.41800000000E+01 0.  1.
         -5    1    1    2    0  502 -0.15044678762E+01 -0.87779104359E+02 -0.53771923080E+02  0.10303556035E+03  0.41800000000E+01 0.  1.
        -11    1    3    3    0    0 -0.30796406337E+02  0.59651818798E+02 -0.26773194385E+03  0.27602020195E+03  0.00000000000E+00 0. -1.
         11    1    3    3    0    0  0.17465356224E+02  0.18181426633E+02 -0.11066001098E+02  0.27532877124E+02  0.00000000000E+00 0.  1.
</event>
<event>
 7    1  0.6145388E-006  0.8267967E+02  0.7561462E-02  0.1321614E+00
          2   -1    0    0  501    0  0.00000000000E+00  0.00000000000E+00  0.10549475284E+03  0.10549475284E+03  0.00000000000E+00 0. -1.
         -2   -1    0    0    0  501 -0.00000000000E+00 -0.00000000000E+00 -0.14630096368E+03  0.14630096368E+03  0.00000000000E+00 0.  1.
         23    2    1    2    0    0 -0.97416932256E+01  0.48706623413E+02  0.16156172236E+02  0.10563047045E+03  0.91812518950E+02 0.  0.
          5    1    1    2  502    0  0.76159384138E+01  0.30856650403E+01  0.37346958092E+02  0.38468058508E+02  0.41800000000E+01 0.  1.
         -5    1    1    2    0  502  0.21257548117E+01 -0.51792288453E+02 -0.94309341164E+02  0.10769718756E+03  0.41800000000E+01 0.  1.
        -11    1    3    3    0    0  0.22067768694E+02  0.64823215363E+02  0.14091655930E+02  0.69911447074E+02  0.00000000000E+00 0. -1.
         11    1    3    3    0    0 -0.31809461920E+02 -0.16116591950E+02  0.20645163060E+01  0.35719023381E+02  0.00000000000E+00 0.  1.
</event>
<event>
 7    1  0.6145388E-006  0.2518232E+03  0.7561462E-02  0.1112158E+00
         -2   -1    0    0    0  501 -0.00000000000E+00  0.00000000000E+00  0.53339399282E+02  0.53339399282E+02  0.00000000000E+00 0.  1.
          2   -1    0    0  501    0  0.00000000000E+00 -0.00000000000E+00 -0.13619197952E+04  0.13619197952E+04  0.00000000000E+00 0. -1.
         23    2    1    2    0    0 -0.24578634744E+03 -0.41540914333E+01 -0.68259794313E+03  0.73121096605E+03  0.91111688812E+02 0.  0.
          5    1    1    2  502    0  0.15699791919E+03 -0.31470321120E+02 -0.25688624982E+03  0.30273213487E+03  0.41800000000E+01 0. -1.
         -5    1    1    2    0  502  0.88788428256E+02  0.35624412553E+02 -0.36909620301E+03  0.38131609360E+03  0.41800000000E+01 0. -1.
        -11    1    3    3    0    0 -0.16123953450E+03  0.11805063171E+02 -0.31970953167E+03  0.35826209909E+03  0.00000000000E+00 0.  1.
         11    1    3    3    0    0 -0.84546812944E+02 -0.15959154605E+02 -0.36288841147E+03  0.37294886697E+03  0.00000000000E+00 0. -1.
</event>
<event>
 7    1  0.6145388E-006  0.8479943E+02  0.7561462E-02  0.1315958E+00
          2   -1    0    0  501    0  0.00000000000E+00  0.00000000000E+00  0.60357975743E+03  0.60357975743E+03  0.00000000000E+00 0.  1.
         -2   -1    0    0    0  501 -0.00000000000E+00 -0.00000000000E+00 -0.19608458934E+02  0.19608458934E+02  0.00000000000E+00 0. -1.
         23    2    1    2    0    0 -0.49314236988E+01  0.70878552145E+01  0.25671136542E+03  0.27273243972E+03  0.91693521649E+02 0.  0.
          5    1    1    2  502    0  0.49827647226E+02 -0.16595310924E+02  0.27821087417E+03  0.28315536668E+03  0.41800000000E+01 0. -1.
         -5    1    1    2    0  502 -0.44896223527E+02  0.95074557093E+01  0.49049058911E+02  0.67300409962E+02  0.41800000000E+01 0. -1.
        -11    1    3    3    0    0 -0.14529508844E+02 -0.29565731162E+02  0.36022133966E+02  0.48814272727E+02  0.00000000000E+00 0. -1.
         11    1    3    3    0    0  0.95980851456E+01  0.36653586377E+02  0.22068923145E+03  0.22391816700E+03  0.00000000000E+00 0.  1.
</event>
<event>
 7    1  0.6145388E-006  0.1010359E+03  0.7561462E-02  0.1278133E+00
          1   -1    0    0  501    0  0.00000000000E+00  0.00000000000E+00  0.35805557505E+03  0.35805557505E+03  0.00000000000E+00 0. -1.
         -1   -1    0    0    0  501 -0.00000000000E+00 -0.00000000000E+00 -0.55059933621E+02  0.55059933621E+02  0.00000000000E+00 0.  1.
         23    2    1    2    0    0  0.66107153151E+02  0.64193387542E+01  0.22576017507E+03  0.25179422666E+03  0.89561779367E+02 0.  0.
          5    1    1    2  502    0 -0.45991169221E+02 -0.54341109649E+02  0.40060203606E+01  0.71425936769E+02  0.41800000000E+01 0. -1.
         -5    1    1    2    0  502 -0.20115983930E+02  0.47921770895E+02  0.73229446003E+02  0.89895345247E+02  0.41800000000E+01 0. -1.
        -11    1    3    3    0    0  0.44193832340E+02 -0.16251854085E+02  0.21238823642E+03  0.21754535285E+03  0.00000000000E+00 0. -1.
         11    1    3    3    0    0  0.21913320811E+02  0.22671192839E+02  0.13371938649E+02  0.34248873805E+02  0.00000000000E+00 0.  1.
</event>
<event>
 7    1  0.6145388E-006  0.1763230E+03  0.7561462E-02  0.1171410E+00
         -1   -1    0    0    0  501 -0.00000000000E+00  0.00000000000E+00  0.77409398485E+03  0.77409398485E+03  0.00000000000E+00 0.  1.
          1   -1    0    0  501    0  0.00000000000E+00 -0.00000000000E+00 -0.48387713638E+02  0.48387713638E+02  0.00000000000E+00 0. -1.
         23    2    1    2    0    0  0.76458107528E+02 -0.70135775822E+02  0.39171486254E+03  0.41549015019E+03  0.91796852397E+02 0.  0.
          5    1    1    2  502    0 -0.13287446445E+03  0.95078273386E+02  0.19213385301E+03  0.25224668728E+03  0.41800000000E+01 0. -1.
         -5    1    1    2    0  502  0.56416356922E+02 -0.24942497564E+02  0.14185755566E+03  0.15474486102E+03  0.41800000000E+01 0.  1.
        -11    1    3    3    0    0  0.79709201093E+02 -0.27054209758E+02  0.17110179444E+03  0.19068642076E+03  0.00000000000E+00 0. -1.
         11    1    3    3    0    0 -0.32510935649E+01 -0.43081566064E+02  0.22061306811E+03  0.22480372942E+03  0.00000000000E+00 0.  1.
</event>
<event>
 7    1  0.6145388E-006  0.1748838E+03  0.7561462E-02  0.1172848E+00
         -1   -1    0    0    0  501 -0.00000000000E+00  0.00000000000E+00  0.40058389232E+02  0.40058389232E+02  0.00000000000E+00 0.  1.
          1   -1    0    0  501    0  0.00000000000E+00 -0.00000000000E+00 -0.10277824282E+04  0.10277824282E+04  0.00000000000E+00 0. -1.
         23    2    1    2    0    0 -0.12343091007E+02  0.14261811253E+03 -0.71787854725E+03  0.73775501923E+03  0.91872639438E+02 0.  0.
          5    1    1    2  502    0  0.68660416995E+02 -0.70920142796E+02 -0.14357943711E+03  0.17428840087E+03  0.41800000000E+01 0. -1.
         -5    1    1    2    0  502 -0.56317325988E+02 -0.71697969733E+02 -0.12626605460E+03  0.15579739733E+03  0.41800000000E+01 0. -1.
        -11    1    3    3    0    0  0.27602932378E+02  0.86642954182E+02 -0.52875583146E+03  0.53651808235E+03  0.00000000000E+00 0. -1.
         11    1    3    3    0    0 -0.39946023386E+02  0.55975158347E+02 -0.18912271579E+03  0.20123693688E+03  0.00000000000E+00 0.  1.
</event>
<event>
 7    1  0.6145388E-006  0.1103918E+03  0.7561462E-02  0.1259846E+00
          2   -1    0    0  501    0  0.00000000000E+00  0.00000000000E+00  0.50686554139E+03  0.50686554139E+03  0.00000000000E+00 0.  1.
         -2   -1    0    0    0  501 -0.00000000000E+00 -0.00000000000E+00 -0.31162318764E+02  0.31162318764E+02  0.00000000000E+00 0. -1.
         23    2    1    2    0    0 -0.33402815265E+02 -0.20989753318E+01  0.32469726731E+03  0.33910410906E+03  0.91886493126E+02 0.  0.
          5    1    1    2  502    0  0.51222190335E+02  0.51260794522E+02  0.11235996138E+03  0.13376701820E+03  0.41800000000E+01 0.  1.
         -5    1    1    2    0  502 -0.17819375070E+02 -0.49161819190E+02  0.38645993947E+02  0.65156732899E+02  0.41800000000E+01 0.  1.
        -11    1    3    3    0    0  0.15810292819E+02  0.32118300442E+02  0.15660892753E+03  0.16064839484E+03  0.00000000000E+00 0.  1.
         11    1    3    3    0    0 -0.49213108084E+02 -0.34217275774E+02  0.16808833977E+03  0.17845571421E+03  0.00000000000E+00 0. -1.
</event>
<event>
 7    1  0.6145388E-006  0.1014530E+03  0.7561462E-02  0.1277270E+00
          2   -1    0    0  501    0  0.00000000000E+00  0.00000000000E+00  0.75155510140E+03  0.75155510140E+03  0.00000000000E+00 0. -1.
         -2   -1    0    0    0  501 -0.00000000000E+00 -0.00000000000E+00 -0.18327051175E+02  0.18327051175E+02  0.00000000000E+00 0.  1.
         23    2    1    2    0    0 -0.18694934810E+02  0.41984099444E+02  0.43108843967E+03  0.43965882094E+03  0.73146912616E+02 0.  0.
          5    1    1    2  502    0  0.34142938975E+02  0.28686876320E+02  0.20023372587E+03  0.20518210090E+03  0.41800000000E+01 0. -1.
         -5    1    1    2    0  502 -0.15448004165E+02 -0.70670975765E+02  0.10190588469E+03  0.12504123073E+03  0.41800000000E+01 0. -1.
        -11    1    3    3    0    0  0.15572459150E+02  0.48355309473E+02  0.22694945830E+03  0.23256567688E+03  0.00000000000E+00 0.  1.
         11    1    3    3    0    0 -0.34267393961E+02 -0.63712100292E+01  0.20413898137E+03  0.20709314407E+03  0.00000000000E+00 0. -1.
</event>
<event>
 7    1  0.6145388E-006  0.1445133E+03  0.7561462E-02  0.1207382E+00
          1   -1    0    0  501    0  0.00000000000E+00  0.00000000000E+00  0.56075604673E+03  0.56075604673E+03  0.00000000000E+00 0. -1.
         -1   -1    0    0    0  501 -0.00000000000E+00 -0.00000000000E+00 -0.47475555918E+02  0.47475555918E+02  0.00000000000E+00 0.  1.
         23    2    1    2    0    0 -0.58675202321E+02  0.84203097800E+02  0.36072489804E+03  0.38582797404E+03  0.90597088477E+02 0.  0.
          5    1    1    2  502    0 -0.31460102625E+02 -0.41670243727E+02  0.91546059799E+02  0.10547180066E+03  0.41800000000E+01 0.  1.
         -5    1    1    2    0  502  0.90135304947E+02 -0.42532854073E+02  0.61009532972E+02  0.11693182795E+03  0.41800000000E+01 0.  1.
        -11    1    3    3    0    0 -0.37863293714E+02 -0.11010077588E+02  0.10254929679E+03  0.10986905430E+03  0.00000000000E+00 0.  1.
         11    1    3    3    0    0 -0.20811908607E+02  0.95213175388E+02  0.25817560124E+03  0.27595891974E+03  0.00000000000E+00 0. -1.
</event>
<event>
 7    1  0.6145388E-006  0.6268195E+02  0.7561462E-02  0.1386909E+00
         -4   -1    0    0    0  501 -0.00000000000E+00  0.00000000000E+00  0.24899885839E+03  0.24899885839E+03  0.00000000000E+00 0. -1.
          4   -1    0    0  501    0  0.00000000000E+00 -0.00000000000E+00 -0.78205417929E+02  0.78205417929E+02  0.00000000000E+00 0.  1.
         23    2    1    2    0    0 -0.22819446327E+02 -0.15809713881E+02 -0.18713527551E+02  0.98441756598E+02  0.92573803773E+02 0.  0.
          5    1    1    2  502    0  0.24499096555E+02  0.33692621732E+02  0.20212615250E+03  0.20641669606E+03  0.41800000000E+01 0. -1.
         -5    1    1    2    0  502 -0.16796502281E+01 -0.17882907851E+02 -0.12619184481E+02  0.22345823660E+02  0.41800000000E+01 0. -1.
        -11    1    3    3    0    0 -0.36761170987E+02  0.78529660466E+01  0.26183376634E+02  0.45810719051E+02  0.00000000000E+00 0. -1.
         11    1    3    3    0    0  0.13941724660E+02 -0.23662679927E+02 -0.44896904185E+02  0.52631037547E+02  0.00000000000E+00 0.  1.
</event>
<event>
 7    1  0.6145388E-006  0.1357909E+03  0.7561462E-02  0.1219107E+00
          1   -1    0    0  501    0  0.00000000000E+00  0.00000000000E+00  0.53213845521E+02  0.53213845521E+02  0.00000000000E+00 0. -1.
         -1   -1    0    0    0  501 -0.00000000000E+00 -0.00000000000E+00 -0.39676659975E+03  0.39676659975E+03  0.00000000000E+00 0.  1.
         23    2    1    2    0    0 -0.77803332748E+02  0.31815206396E+02 -0.84331888899E+02  0.15012116673E+03  0.91427191091E+02 0.  0.
          5    1    1    2  502    0  0.11106855553E+03 -0.26985139529E+02 -0.22060476941E+03  0.24849216983E+03  0.41800000000E+01 0. -1.
         -5    1    1    2    0  502 -0.33265222781E+02 -0.48300668675E+01 -0.38616095921E+02  0.51367108706E+02  0.41800000000E+01 0. -1.
        -11    1    3    3    0    0 -0.11556204162E+02  0.52636933624E+02 -0.28160922578E+02  0.60804853395E+02  0.00000000000E+00 0. -1.
         11    1    3    3    0    0 -0.66247128586E+02 -0.20821727227E+02 -0.56170966321E+02  0.89316313337E+02  0.00000000000E+00 0.  1.
</event>
<event>
 7    1  0.6145388E-006  0.1788472E+03  0.7561462E-02  0.1168923E+00
          2   -1    0    0  501    0  0.00000000000E+00  0.00000000000E+00  0.79756575897E+03  0.79756575897E+03  0.00000000000E+00 0. -1.
         -2   -1    0    0    0  501 -0.00000000000E+00 -0.00000000000E+00 -0.41683217996E+02  0.41683217996E+02  0.00000000000E+00 0.  1.
         23    2    1    2    0    0 -0.31789168451E+02  0.14147474268E+03  0.38677400647E+03  0.42341881085E+03  0.93079016153E+02 0.  0.
          5    1    1    2  502    0  0.61227014825E+02 -0.14321425348E+03  0.26366557085E+03  0.30626144941E+03  0.41800000000E+01 0. -1.
         -5    1    1    2    0  502 -0.29437846374E+02  0.17395107986E+01  0.10544296366E+03  0.10956871671E+03  0.41800000000E+01 0. -1.
        -11    1    3    3    0    0 -0.47013110791E+02  0.22435175003E+02  0.10776393077E+03  0.11969391981E+03  0.00000000000E+00 0.  1.
         11    1    3    3    0    0  0.15223942340E+02  0.11903956768E+03  0.27901007570E+03  0.30372489104E+03  0.00000000000E+00 0. -1.
</event>
<event>
 7    1  0.6145388E-006  0.1101657E+03  0.7561462E-02  0.1260263E+00
          2   -1    0    0  501    0  0.00000000000E+00  0.00000000000E+00  0.14393634063E+03  0.14393634063E+03  0.00000000000E+00 0. -1.
         -2   -1    0    0    0  501 -0.00000000000E+00 -0.00000000000E+00 -0.11866945695E+03  0.11866945695E+03  0.00000000000E+00 0.  1.
         23    2    1    2    0    0 -0.61199301361E+02  0.27180155615E+01  0.51903427251E+02  0.12079576684E+03  0.90249151968E+02 0.  0.
          5    1    1    2  502    0  0.48208256400E+02  0.52042893023E+02  0.13790075773E+02  0.72388792566E+02  0.41800000000E+01 0. -1.
         -5    1    1    2    0  502  0.12991044961E+02 -0.54760908584E+02 -0.40426619348E+02  0.69421238177E+02  0.41800000000E+01 0. -1.
        -11    1    3    3    0    0 -0.22419037537E+02  0.35544531253E+02 -0.74352788830E+01  0.42676812418E+02  0.00000000000E+00 0.  1.
         11    1    3    3    0    0 -0.38780263824E+02 -0.32826515692E+02  0.59338706134E+02  0.78118954424E+02  0.00000000000E+00 0. -1.
</event>
<event>
 7    1  0.6145388E-006  0.1408208E+03  0.7561462E-02  0.1212229E+00
          1   -1    0    0  501    0  0.00000000000E+00  0.00000000000E+00  0.60053663406E+02  0.60053663406E+02  0.00000000000E+00 0. -1.
         -1   -1    0    0    0  501 -0.00000000000E+00 -0.00000000000E+00 -0.42755198670E+03  0.42755198670E+03  0.00000000000E+00 0.  1.
         23    2    1    2    0    0 -0.75478532747E+02 -0.85255535643E+02 -0.12956031768E+03  0.19566436340E+03  0.92375061169E+02 0.  0.
          5    1    1    2  502    0 -0.59906508768E+01 -0.25712692036E+02 -0.17282091243E+02  0.31830386542E+02  0.41800000000E+01 0.  1.
         -5    1    1    2    0  502  0.81469183624E+02  0.11096822768E+03 -0.22065591437E+03  0.26011090016E+03  0.41800000000E+01 0.  1.
        -11    1    3    3    0    0 -0.54158320034E+02 -0.77393851775E+02 -0.14139361224E+03  0.17004436334E+03  0.00000000000E+00 0.  1.
         11    1    3    3    0    0 -0.21320212713E+02 -0.78616838679E+01  0.11833294557E+02  0.25620000068E+02  0.00000000000E+00 0. -1.
</event>
<event>
 6    1  0.6145388E-006  0.7453093E+02  0.7561462E-02  0.1345330E+00
          1   -1    0    0  501    0  0.00000000000E+00  0.00000000000E+00  0.35805341492E+02  0.35805341492E+02  0.00000000000E+00 0. -1.
         -1   -1    0    0    0  501 -0.00000000000E+00 -0.00000000000E+00 -0.28626079988E+03  0.28626079988E+03  0.00000000000E+00 0.  1.
          5    1    1    2  502    0  0.55904657047E+02 -0.11500843057E+02 -0.17929458136E+03  0.18820632130E+03  0.41800000000E+01 0. -1.
         -5    1    1    2    0  502 -0.59268602836E+02 -0.23106386815E+01 -0.76507971572E+02  0.96897102368E+02  0.41800000000E+01 0. -1.
        -11    1    1    2    0    0 -0.12912365159E+02  0.73751794444E+01  0.11080890835E+02  0.18544772512E+02  0.00000000000E+00 0. -1.
         11    1    1    2    0    0  0.16276310948E+02  0.64363022945E+01 -0.57337962893E+01  0.18417945195E+02  0.00000000000E+00 0.  1.
</event>
<event>
 7    1  0.6145388E-006  0.1068901E+03  0.7561462E-02  0.1266440E+00
          1   -1    0    0  501    0  0.00000000000E+00  0.00000000000E+00  0.79311388979E+03  0.79311388979E+03  0.00000000000E+00 0. -1.
         -1   -1    0    0    0  501 -0.00000000000E+00 -0.00000000000E+00 -0.15796576198E+02  0.15796576198E+02  0.00000000000E+00 0.  1.
         23    2    1    2    0    0  0.56587934581E+01 -0.18552800866E+02  0.40398479215E+03  0.41470123764E+03  0.91636105617E+02 0.  0.
          5    1    1    2  502    0  0.53975248701E+02  0.33688096461E+02  0.21629777461E+03  0.22550036589E+03  0.41800000000E+01 0.  1.
         -5    1    1    2    0  502 -0.59634042159E+02 -0.15135295595E+02  0.15703474683E+03  0.16870886245E+03  0.41800000000E+01 0.  1.
        -11    1    3    3    0    0 -0.29905722066E+02 -0.37571370031E+02  0.28626056222E+03  0.29026034786E+03  0.00000000000E+00 0. -1.
         11    1    3    3    0    0  0.35564515524E+02  0.19018569164E+02  0.11772422993E+03  0.12444088978E+03  0.00000000000E+00 0.  1.
</event>
<event>
 7    1  0.6145388E-006  0.8361496E+02  0.7561462E-02  0.1319095E+00
          2   -1    0    0  501    0  0.00000000000E+00  0.00000000000E+00  0.11604920593E+03  0.11604920593E+03  0.00000000000E+00 0. -1.
         -2   -1    0    0    0  501 -0.00000000000E+00 -0.00000000000E+00 -0.14398954583E+03  0.14398954583E+03  0.00000000000E+00 0.  1.
         23    2    1    2    0    0 -0.47410062855E+02 -0.22024742610E+02  0.51842149211E+02  0.10273225475E+03  0.71648477897E+02 0.  0.
          5    1    1    2  502    0  0.61789702662E+02  0.85891907700E+01  0.11724901944E+02  0.63613577786E+02  0.41800000000E+01 0.  1.
         -5    1    1    2    0  502 -0.14379639807E+02  0.13435551840E+02 -0.91507391058E+02  0.93692919223E+02  0.41800000000E+01 0.  1.
        -11    1    3    3    0    0 -0.33723773292E+02 -0.45966119432E+02  0.19554809175E+02  0.60270785481E+02  0.00000000000E+00 0.  1.
         11    1    3    3    0    0 -0.13686289563E+02  0.23941376822E+02  0.32287340036E+02  0.42461469272E+02  0.00000000000E+00 0. -1.
</event>
<event>
 6    1  0.6145388E-006  0.1039679E+03  0.7561462E-02  0.1272166E+00
         -1   -1    0    0    0  501 -0.00000000000E+00  0.00000000000E+00  0.10450403194E+03  0.10450403194E+03  0.00000000000E+00 0.  1.
          1   -1    0    0  501    0  0.00000000000E+00 -0.00000000000E+00 -0.20139317223E+03  0.20139317223E+03  0.00000000000E+00 0. -1.
          5    1    1    2  502    0 -0.11522462242E+02  0.54305994390E+02 -0.10109118611E+02  0.56582460550E+02  0.41800000000E+01 0. -1.
         -5    1    1    2    0  502  0.58062739470E+01 -0.62525415849E+02  0.32734177476E+02  0.70937572691E+02  0.41800000000E+01 0. -1.
        -11    1    1    2    0    0  0.77952893908E+00  0.48621537618E+02  0.35493939320E+01  0.48757151096E+02  0.00000000000E+00 0.  1.
         11    1    1    2    0    0  0.49366593559E+01 -0.40402116159E+02 -0.12306359310E+03  0.12962001983E+03  0.00000000000E+00 0. -1.
</event>
<event>
 7    1  0.6145388E-006  0.1602199E+03  0.7561462E-02  0.1188449E+00
          1   -1    0    0  501    0  0.00000000000E+00  0.00000000000E+00  0.72402691649E+03  0.72402691649E+03  0.00000000000E+00 0. -1.
         -1   -1    0    0    0  501 -0.00000000000E+00 -0.00000000000E+00 -0.36751468437E+02  0.36751468437E+02  0.00000000000E+00 0.  1.
         23    2    1    2    0    0 -0.10993133453E+02 -0.11934177281E+03  0.36669513554E+03  0.39638116646E+03  0.91046136535E+02 0.  0.
          5    1    1    2  502    0  0.26519242625E+02 -0.17984880948E+02  0.88959909589E+02  0.94647050066E+02  0.41800000000E+01 0.  1.
         -5    1    1    2    0  502 -0.15526109172E+02  0.13732665376E+03  0.23162040293E+03  0.26975016840E+03  0.41800000000E+01 0.  1.
        -11    1    3    3    0    0  0.39412076509E+02 -0.62505934178E+02  0.19919115485E+03  0.21245568892E+03  0.00000000000E+00 0. -1.
         11    1    3    3    0    0 -0.50405209961E+02 -0.56835838634E+02  0.16750398069E+03  0.18392547755E+03  0.00000000000E+00 0.  1.
</event>
<event>
 7    1  0.6145388E-006  0.8594113E+02  0.7561462E-02  0.1312990E+00
          1   -1    0    0  501    0  0.00000000000E+00  0.00000000000E+00  0.49427580307E+02  0.49427580307E+02  0.00000000000E+00 0. -1.
         -1   -1    0    0    0  501 -0.00000000000E+00 -0.00000000000E+00 -0.33886824378E+03  0.33886824378E+03  0.00000000000E+00 0.  1.
         23    2    1    2    0    0 -0.12516413309E+02 -0.32282121858E+02 -0.39036121139E+02  0.10625179102E+03  0.92557162590E+02 0.  0.
          5    1    1    2  502    0 -0.22165866535E+02 -0.53688832191E+01 -0.22228190254E+03  0.22348795749E+03  0.41800000000E+01 0. -1.
         -5    1    1    2    0  502  0.34682279844E+02  0.37651005077E+02 -0.28122639795E+02  0.58556075582E+02  0.41800000000E+01 0. -1.
        -11    1    3    3    0    0  0.31849305472E+02 -0.41206588733E+02 -0.30003697127E+02  0.60104767326E+02  0.00000000000E+00 0.  1.
         11    1    3    3    0    0 -0.44365718780E+02  0.89244668748E+01 -0.90324240117E+01  0.46147023690E+02  0.00000000000E+00 0. -1.
</event>
<event>
 7    1  0.6145388E-006  0.1497472E+03  0.7561462E-02  0.1200784E+00
          2   -1    0    0  501    0  0.00000000000E+00  0.00000000000E+00  0.31879006424E+02  0.31879006424E+02  0.00000000000E+00 0. -1.
         -2   -1    0    0    0  501 -0.00000000000E+00 -0.00000000000E+00 -0.85487173886E+03  0.85487173886E+03  0.00000000000E+00 0.  1.
         23    2    1    2    0    0  0.80110474504E+02 -0.91907570069E+02 -0.32361476821E+03  0.35770312949E+03  0.91434791401E+02 0.  0.
          5    1    1    2  502    0 -0.13653108477E+02  0.78771119477E+02 -0.12409470947E+03  0.14767622000E+03  0.41800000000E+01 0.  1.
         -5    1    1    2    0  502 -0.66457366027E+02  0.13136450593E+02 -0.37528325475E+03  0.38137139580E+03  0.41800000000E+01 0.  1.
        -11    1    3    3    0    0  0.12242638897E+02 -0.82084601251E+02 -0.19558860943E+03  0.21246804020E+03  0.00000000000E+00 0.  1.
         11    1    3    3    0    0  0.67867835607E+02 -0.98229688189E+01 -0.12802615878E+03  0.14523508928E+03  0.00000000000E+00 0. -1.
</event>
<event>
 7    1  0.6145388E-006  0.2552206E+03  0.7561462E-02  0.1110049E+00
          2   -1    0    0  501    0  0.00000000000E+00  0.00000000000E+00  0.77860360647E+03  0.77860360647E+03  0.00000000000E+00 0.  1.
         -2   -1    0    0    0  501 -0.00000000000E+00 -0.00000000000E+00 -0.10094865501E+03  0.10094865501E+03  0.00000000000E+00 0. -1.
         23    2    1    2    0    0 -0.39019859835E+02  0.25076414621E+03  0.40645521376E+03  0.48763155239E+03  0.90407320518E+02 0.  0.
          5    1    1    2  502    0  0.26406011330E+02 -0.79284212547E+02  0.17709447644E+03  0.19586523372E+03  0.41800000000E+01 0.  1.
         -5    1    1    2    0  502  0.12613848505E+02 -0.17147993367E+03  0.94105261263E+02  0.19605547537E+03  0.41800000000E+01 0.  1.
        -11    1    3    3    0    0 -0.31282043659E+02  0.12792586596E+03  0.28857887296E+03  0.31720870000E+03  0.00000000000E+00 0.  1.
         11    1    3    3    0    0 -0.77378161759E+01  0.12283828026E+03  0.11787634080E+03  0.17042285238E+03  0.00000000000E+00 0. -1.
</event>
<event>
 7    1  0.6145388E-006  0.1333990E+03  0.7561462E-02  0.1222498E+00
         -1   -1    0    0    0  501 -0.00000000000E+00  0.00000000000E+00  0.24235718751E+03  0.24235718751E+03  0.00000000000E+00 0.  1.
          1   -1    0    0  501    0  0.00000000000E+00 -0.00000000000E+00 -0.17989118520E+03  0.17989118520E+03  0.00000000000E+00 0. -1.
         23    2    1    2    0    0  0.21617845945E+02  0.83609086345E+02 -0.12772173107E+03  0.17877704396E+03  0.90501824713E+02 0.  0.
          5    1    1    2  502    0  0.37370090787E+02 -0.84437442873E+02  0.12484890490E+03  0.15534132386E+03  0.41800000000E+01 0.  1.
         -5    1    1    2    0  502 -0.58987936732E+02  0.82835652789E+00  0.65338828483E+02  0.88130004891E+02  0.41800000000E+01 0.  1.
        -11    1    3    3    0    0 -0.25710790646E+02  0.97399603028E+01 -0.50360985030E+01  0.27951276723E+02  0.00000000000E+00 0.  1.
         11    1    3    3    0    0  0.47328636591E+02  0.73869126042E+02 -0.12268563257E+03  0.15082576724E+03  0.00000000000E+00 0. -1.
</event>
<event>
 7    1  0.6145388E-006  0.1061645E+03  0.7561462E-02  0.1267842E+00
         -1   -1    0    0    0  501 -0.00000000000E+00  0.00000000000E+00  0.59736472307E+02  0.59736472307E+02  0.00000000000E+00 0.  1.
          1   -1    0    0  501    0  0.00000000000E+00 -0.00000000000E+00 -0.35865404888E+03  0.35865404888E+03  0.00000000000E+00 0. -1.
         23    2    1    2    0    0  0.59215709576E+02 -0.67291408512E+01 -0.24682733016E+03  0.27035079819E+03  0.92811861155E+02 0.  0.
          5    1    1    2  502    0  0.27566831618E+02 -0.17807797438E+02 -0.47181678029E+02  0.57624916457E+02  0.41800000000E+01 0. -1.
         -5    1    1    2    0  502 -0.86782541194E+02  0.24536938289E+02 -0.49085683749E+01  0.90414806531E+02  0.41800000000E+01 0. -1.
        -11    1    3    3    0    0 -0.10885675574E+02 -0.14829748544E+02 -0.59271547719E+01  0.19327455556E+02  0.00000000000E+00 0. -1.
         11    1    3    3    0    0  0.70101385150E+02  0.81006076931E+01 -0.24090017539E+03  0.25102334264E+03  0.00000000000E+00 0.  1.
</event>
<event>
 7    1  0.6145388E-006  0.1054535E+03  0.7561462E-02  0.1269229E+00
          2   -1    0    0  501    0  0.00000000000E+00  0.00000000000E+00  0.22215888473E+03  0.22215888473E+03  0.00000000000E+00 0. -1.
         -2   -1    0    0    0  501 -0.00000000000E+00 -0.00000000000E+00 -0.67514725393E+02  0.67514725393E+02  0.00000000000E+00 0.  1.
         23    2    1    2    0    0  0.17502276292E+02 -0.18154006199E+02  0.14228084808E+03  0.17167383278E+03  0.92693945404E+02 0.  0.
          5    1    1    2  502    0 -0.54856708379E+02 -0.24613195482E+02  0.34522727492E+01  0.60369350114E+02  0.41800000000E+01 0. -1.
         -5    1    1    2    0  502  0.37354432087E+02  0.42767201681E+02  0.89110385178E+01  0.57630427238E+02  0.41800000000E+01 0.  1.
        -11    1    3    3    0    0  0.37795159265E+02  0.25476789262E+02  0.50388798707E+02  0.67945359592E+02  0.00000000000E+00 0.  1.
         11    1    3    3    0    0 -0.20292882973E+02 -0.43630795461E+02  0.91892049368E+02  0.10372847318E+03  0.00000000000E+00 0. -1.
</event>
<event>
 7    1  0.6145388E-006  0.1287103E+03  0.7561462E-02  0.1229382E+00
         -2   -1    0    0    0  501 -0.00000000000E+00  0.00000000000E+00  0.20095031577E+02  0.20095031577E+02  0.00000000000E+00 0.  1.
          2   -1    0    0  501    0  0.00000000000E+00 -0.00000000000E+00 -0.93133236219E+03  0.93133236219E+03  0.00000000000E+00 0. -1.
         23    2    1    2    0    0 -0.45038127367E+02 -0.38349953943E+02 -0.46790001493E+03  0.48033997579E+03  0.91087411226E+02 0.  0.
          5    1    1    2  502    0  0.94130507069E+02  0.35843648948E+02 -0.21471846145E+03  0.23720625966E+03  0.41800000000E+01 0. -1.
         -5    1    1    2    0  502 -0.49092379702E+02  0.25063049952E+01 -0.22861885423E+03  0.23388115832E+03  0.41800000000E+01 0.  1.
        -11    1    3    3    0    0 -0.58450447550E+02 -0.58742578852E+02 -0.38995044466E+03  0.39865836838E+03  0.00000000000E+00 0.  1.
         11    1    3    3    0    0  0.13412320183E+02  0.20392624909E+02 -0.77949570265E+02  0.81681607403E+02  0.00000000000E+00 0. -1.
</event>
<event>
 7    1  0.6145388E-006  0.8442190E+02  0.7561462E-02  0.1316951E+00
          4   -1    0    0  501    0  0.00000000000E+00  0.00000000000E+00  0.10089540858E+03  0.10089540858E+03  0.00000000000E+00 0. -1.
         -4   -1    0    0    0  501 -0.00000000000E+00 -0.00000000000E+00 -0.11938408307E+03  0.11938408307E+03  0.00000000000E+00 0.  1.
         23    2    1    2    0    0 -0.20757671842E+02 -0.41315724580E+01 -0.39216612928E+01  0.92571728672E+02  0.90034408371E+02 0.  0.
          5    1    1    2  502    0  0.27196085292E+02 -0.50646719051E+02 -0.36478977688E+02  0.68212208724E+02  0.41800000000E+01 0. -1.
         -5    1    1    2    0  502 -0.64384134505E+01  0.54778291509E+02  0.21911964484E+02  0.59495554254E+02  0.41800000000E+01 0. -1.
        -11    1    3    3    0    0  0.17481498533E+02 -0.19602579835E+01  0.34246320533E+02  0.38500076264E+02  0.00000000000E+00 0. -1.
         11    1    3    3    0    0 -0.38239170374E+02 -0.21713144745E+01 -0.38167981826E+02  0.54071652408E+02  0.00000000000E+00 0.  1.
</event>
<event>
 7    1  0.6145388E-006  0.1111979E+03  0.7561462E-02  0.1258367E+00
          2   -1    0    0  501    0  0.00000000000E+00  0.00000000000E+00  0.19986126901E+02  0.19986126901E+02  0.00000000000E+00 0. -1.
         -2   -1    0    0    0  501 -0.00000000000E+00 -0.00000000000E+00 -0.78878383953E+03  0.78878383953E+03  0.00000000000E+00 0.  1.
         23    2    1    2    0    0 -0.43469811775E+02  0.44166787066E+02 -0.28917795477E+03  0.30924786932E+03  0.90388193598E+02 0.  0.
          5    1    1    2  502    0  0.53881691494E+02  0.30421201988E+02 -0.26061388314E+03  0.26789131134E+03  0.41800000000E+01 0. -1.
         -5    1    1    2    0  502 -0.10411879719E+02 -0.74587989054E+02 -0.21900587472E+03  0.23163078576E+03  0.41800000000E+01 0. -1.
        -11    1    3    3    0    0 -0.55106700331E+02  0.20900280741E+02 -0.27143254297E+03  0.27775744011E+03  0.00000000000E+00 0.  1.
         11    1    3    3    0    0  0.11636888556E+02  0.23266506326E+02 -0.17745411800E+02  0.31490429210E+02  0.00000000000E+00 0. -1.
</event>
<event>
 7    1  0.6145388E-006  0.8069631E+02  0.7561462E-02  0.1327087E+00
          2   -1    0    0  501    0  0.00000000000E+00  0.00000000000E+00  0.33972527671E+03  0.33972527671E+03  0.00000000000E+00 0. -1.
         -2   -1    0    0    0  501 -0.00000000000E+00 -0.00000000000E+00 -0.33887727147E+02  0.33887727147E+02  0.00000000000E+00 0.  1.
         23    2    1    2    0    0  0.12327424647E+01 -0.13432196682E+01  0.11661453208E+03  0.14677474782E+03  0.89109784058E+02 0.  0.
          5    1    1    2  502    0 -0.35563434818E+02  0.34082680656E+02  0.16722698322E+03  0.17438097182E+03  0.41800000000E+01 0. -1.
         -5    1    1    2    0  502  0.34330692354E+02 -0.32739460988E+02  0.21996034268E+02  0.52457284211E+02  0.41800000000E+01 0. -1.
        -11    1    3    3    0    0  0.29579613843E+02 -0.14662428619E+02  0.83261290264E+01  0.34047977806E+02  0.00000000000E+00 0.  1.
         11    1    3    3    0    0 -0.28346871378E+02  0.13319208951E+02  0.10828840305E+03  0.11272677002E+03  0.00000000000E+00 0. -1.
</event>
<event>
 7    1  0.6145388E-006  0.1394126E+03  0.7561462E-02  0.1214121E+00
         -4   -1    0    0    0  501 -0.00000000000E+00  0.00000000000E+00  0.39139183980E+03  0.39139183980E+03  0.00000000000E+00 0.  1.
          4   -1    0    0  501    0  0.00000000000E+00 -0.00000000000E+00 -0.73663682832E+02  0.73663682832E+02  0.00000000000E+00 0. -1.
         23    2    1    2    0    0  0.10442958149E+03 -0.52472722717E+01  0.44030457254E+02  0.14648248276E+03  0.92657245983E+02 0.  0.
          5    1    1    2  502    0 -0.11981823502E+03  0.21562801643E+02  0.26897770529E+03  0.29527587473E+03  0.41800000000E+01 0. -1.
         -5    1    1    2    0  502  0.15388653528E+02 -0.16315529371E+02  0.47199944253E+01  0.23297165138E+02  0.41800000000E+01 0. -1.
        -11    1    3    3    0    0 -0.11697372381E+02 -0.13395639454E+02  0.21513388530E+02  0.27912319199E+02  0.00000000000E+00 0.  1.
         11    1    3    3    0    0  0.11612695387E+03  0.81483671826E+01  0.22517068725E+02  0.11857016356E+03  0.00000000000E+00 0. -1.
</event>
<event>
 7    1  0.6145388E-006  0.9475825E+02  0.7561462E-02  0.1291722E+00
          1   -1    0    0  501    0  0.00000000000E+00  0.00000000000E+00  0.40357240802E+02  0.40357240802E+02  0.00000000000E+00 0. -1.
         -1   -1    0    0    0  501 -0.00000000000E+00 -0.00000000000E+00 -0.38031384010E+03  0.38031384010E+03  0.00000000000E+00 0.  1.
         23    2    1    2    0    0 -0.38636315491E+02 -0.13525695866E+02 -0.70812270845E+02  0.12106822335E+03  0.89260448575E+02 0.  0.
          5    1    1    2  502    0  0.52961969250E+02  0.53342969525E+02 -0.22925284895E+03  0.24129812211E+03  0.41800000000E+01 0. -1.
         -5    1    1    2    0  502 -0.14325653759E+02 -0.39817273659E+02 -0.39891479502E+02  0.58304735435E+02  0.41800000000E+01 0. -1.
        -11    1    3    3    0    0  0.10753391656E+02 -0.19188022123E+02 -0.67783267540E+02  0.71262802243E+02  0.00000000000E+00 0.  1.
         11    1    3    3    0    0 -0.49389707147E+02  0.56623262573E+01 -0.30290033049E+01  0.49805421108E+02  0.00000000000E+00 0. -1.
</event>
<event>
 7    1  0.6145388E-006  0.1245539E+03  0.7561462E-02  0.1235768E+00
          2   -1    0    0  501    0  0.00000000000E+00  0.00000000000E+00  0.61542256816E+03  0.61542256816E+03  0.00000000000E+00 0. -1.
         -2   -1    0    0    0  501 -0.00000000000E+00 -0.00000000000E+00 -0.27358515493E+02  0.27358515493E+02  0.00000000000E+00 0.  1.
         23    2    1    2    0    0  0.25897975500E+02 -0.43283778516E+02  0.35790781937E+03  0.37601608319E+03  0.10366241860E+03 0.  0.
          5    1    1    2  502    0 -0.63567367759E+02 -0.14645571813E+02  0.10314645341E+03  0.12211456207E+03  0.41800000000E+01 0. -1.
         -5    1    1    2    0  502  0.37669392259E+02  0.57929350329E+02  0.12700977988E+03  0.14465043840E+03  0.41800000000E+01 0. -1.
        -11    1    3    3    0    0 -0.32880510581E+02  0.10832076527E+02  0.89220133976E+02  0.95701066685E+02  0.00000000000E+00 0.  1.
         11    1    3    3    0    0  0.58778486080E+02 -0.54115855043E+02  0.26868768539E+03  0.28031501650E+03  0.00000000000E+00 0. -1.
</event>
<event>
 7    1  0.6145388E-006  0.1239485E+03  0.7561462E-02  0.1236722E+00
         -2   -1    0    0    0  501 -0.00000000000E+00  0.00000000000E+00  0.53768006208E+02  0.53768006208E+02  0.00000000000E+00 0.  1.
          2   -1    0    0  501    0  0.00000000000E+00 -0.00000000000E+00 -0.74233772127E+03  0.74233772127E+03  0.00000000000E+00 0. -1.
         23    2    1    2    0    0  0.28227772330E+02 -0.11485617089E+03 -0.56496540982E+03  0.58424519867E+03  0.90375830561E+02 0.  0.
          5    1    1    2  502    0 -0.24876982749E+02  0.37518384616E+02  0.19398603835E+02  0.49196256825E+02  0.41800000000E+01 0.  1.
         -5    1    1    2    0  502 -0.33507895817E+01  0.77337786273E+02 -0.14300290908E+03  0.16266427199E+03  0.41800000000E+01 0.  1.
        -11    1    3    3    0    0 -0.10593169597E+02 -0.19165776059E+02 -0.20244699177E+02  0.29822643391E+02  0.00000000000E+00 0.  1.
         11    1    3    3    0    0  0.38820941927E+02 -0.95690394830E+02 -0.54472071064E+03  0.55442255527E+03  0.00000000000E+00 0. -1.
</event>
<event>
 7    1  0.6145388E-006  0.6921713E+02  0.7561462E-02  0.1362776E+00
         -1   -1    0    0    0  501 -0.00000000000E+00  0.00000000000E+00  0.25600553680E+03  0.25600553680E+03  0.00000000000E+00 0.  1.
          1   -1    0    0  501    0  0.00000000000E+00 -0.00000000000E+00 -0.65024261607E+02  0.65024261607E+02  0.00000000000E+00 0. -1.
         23    2    1    2    0    0  0.11116216951E+02  0.32659180881E+02  0.91641291728E+01  0.97656358582E+02  0.90898793902E+02 0.  0.
          5    1    1    2  502    0  0.14402417323E+01  0.33284155079E+02  0.14045968665E+03  0.14441712242E+03  0.41800000000E+01 0. -1.
         -5    1    1    2    0  502 -0.12556458684E+02 -0.65943335960E+02  0.41357459373E+02  0.78956317404E+02  0.41800000000E+01 0. -1.
        -11    1    3    3    0    0 -0.24766663899E+01  0.15559995266E+02 -0.40469616966E+02  0.43428530098E+02  0.00000000000E+00 0. -1.
         11    1    3    3    0    0  0.13592883341E+02  0.17099185615E+02  0.49633746139E+02  0.54227828484E+02  0.00000000000E+00 0.  1.
</event>
<event>
 7    1  0.6145388E-006  0.9972743E+02  0.7561462E-02  0.1280870E+00
          2   -1    0    0  501    0  0.00000000000E+00  0.00000000000E+00  0.60454774258E+03  0.60454774258E+03  0.00000000000E+00 0. -1.
         -2   -1    0    0    0  501 -0.00000000000E+00 -0.00000000000E+00 -0.32447805082E+02  0.32447805082E+02  0.00000000000E+00 0.  1.
         23    2    1    2    0    0 -0.68626905113E+02  0.45193256191E+02  0.33471160614E+03  0.35636667327E+03  0.90627060093E+02 0.  0.
          5    1    1    2  502    0  0.34838139446E+02 -0.13809791191E+02  0.23079801260E+03  0.23385807942E+03  0.41800000000E+01 0.  1.
         -5    1    1    2    0  502  0.33788765667E+02 -0.31383465000E+02  0.65903187610E+01  0.46770794970E+02  0.41800000000E+01 0.  1.
        -11    1    3    3    0    0 -0.87796762262E+01 -0.23055582165E+02  0.32412532416E+02  0.40733460953E+02  0.00000000000E+00 0.  1.
         11    1    3    3    0    0 -0.59847228887E+02  0.68248838355E+02  0.30229907372E+03  0.31563321231E+03  0.00000000000E+00 0. -1.
</event>
<event>
 7    1  0.6145388E-006  0.1348055E+03  0.7561462E-02  0.1220495E+00
          2   -1    0    0  501    0  0.00000000000E+00  0.00000000000E+00  0.28981391744E+03  0.28981391744E+03  0.00000000000E+00 0.  1.
         -2   -1    0    0    0  501 -0.00000000000E+00 -0.00000000000E+00 -0.87565078297E+02  0.87565078297E+02  0.00000000000E+00 0. -1.
         23    2    1    2    0    0  0.61525260056E+02 -0.69893931677E+02  0.17643747995E+03  0.21931681508E+03  0.91099735111E+02 0.  0.
          5    1    1    2  502    0 -0.93169027768E+02  0.41196130435E+02 -0.96142166523E+01  0.10240846869E+03  0.41800000000E+01 0.  1.
         -5    1    1    2    0  502  0.31643767713E+02  0.28697801242E+02  0.35425575853E+02  0.55653711967E+02  0.41800000000E+01 0.  1.
        -11    1    3    3    0    0  0.30811568856E+02  0.15133465360E+02  0.80403236589E+02  0.87424567503E+02  0.00000000000E+00 0.  1.
         11    1    3    3    0    0  0.30713691200E+02 -0.85027397037E+02  0.96034243359E+02  0.13189224758E+03  0.00000000000E+00 0. -1.
</event>
<event>
 7    1  0.6145388E-006  0.1517198E+03  0.7561462E-02  0.1198375E+00
         -2   -1    0    0    0  501 -0.00000000000E+00  0.00000000000E+00  0.22010897902E+03  0.22010897902E+03  0.00000000000E+00 0.  1.
          2   -1    0    0  501    0  0.00000000000E+00 -0.00000000000E+00 -0.14842582073E+03  0.14842582073E+03  0.00000000000E+00 0. -1.
         23    2    1    2    0    0  0.13496579206E+03 -0.12224760396E+02 -0.41426825918E+01  0.16912798574E+03  0.10110343193E+03 0.  0.
          5    1    1    2  502    0 -0.55672878413E+02 -0.18221834299E+02  0.95507336837E+02  0.11211881388E+03  0.41800000000E+01 0. -1.
         -5    1    1    2    0  502 -0.79292913650E+02  0.30446594694E+02 -0.19681495952E+02  0.87288000128E+02  0.41800000000E+01 0. -1.
        -11    1    3    3    0    0  0.76752155237E+02 -0.48770974373E+02 -0.29899229218E+02  0.95725990111E+02  0.00000000000E+00 0. -1.
         11    1    3    3    0    0  0.58213636826E+02  0.36546213977E+02  0.25756546626E+02  0.73401995631E+02  0.00000000000E+00 0.  1.
</event>
<event>
 7    1  0.6145388E-006  0.1598642E+03  0.7561462E-02  0.1188850E+00
          4   -1    0    0  501    0  0.00000000000E+00  0.00000000000E+00  0.10197639940E+04  0.10197639940E+04  0.00000000000E+00 0. -1.
         -4   -1    0    0    0  501 -0.00000000000E+00 -0.00000000000E+00 -0.34194339104E+02  0.34194339104E+02  0.00000000000E+00 0.  1.
         23    2    1    2    0    0 -0.48211207540E+01  0.14634980873E+03  0.57987046978E+03  0.60486964402E+03  0.90421318343E+02 0.  0.
          5    1    1    2  502    0 -0.29424953150E+02 -0.89918627058E+01  0.17016121169E+02  0.35407657963E+02  0.41800000000E+01 0. -1.
         -5    1    1    2    0  502  0.34246073904E+02 -0.13735794603E+03  0.38868306398E+03  0.41368103116E+03  0.41800000000E+01 0. -1.
        -11    1    3    3    0    0 -0.95928356747E+01  0.97748327147E+02  0.51152926364E+03  0.52087325283E+03  0.00000000000E+00 0. -1.
         11    1    3    3    0    0  0.47717149207E+01  0.48601481584E+02  0.68341206137E+02  0.83996391183E+02  0.00000000000E+00 0.  1.
</event>
<event>
 7    1  0.6145388E-006  0.1298999E+03  0.7561462E-02  0.1227604E+00
         -1   -1    0    0    0  501 -0.00000000000E+00  0.00000000000E+00  0.35039075498E+03  0.35039075498E+03  0.00000000000E+00 0.  1.
          1   -1    0    0  501    0  0.00000000000E+00 -0.00000000000E+00 -0.13456234835E+03  0.13456234835E+03  0.00000000000E+00 0. -1.
         23    2    1    2    0    0 -0.98550033056E+02 -0.23441981107E+02 -0.72601175865E+02  0.15458192839E+03  0.91449474330E+02 0.  0.
          5    1    1    2  502    0 -0.13107353429E+02  0.42126017815E+02  0.52873065838E+02  0.68988677201E+02  0.41800000000E+01 0. -1.
         -5    1    1    2    0  502  0.11165738649E+03 -0.18684036708E+02  0.23555651666E+03  0.26138249774E+03  0.41800000000E+01 0. -1.
        -11    1    3    3    0    0 -0.71900686475E+02 -0.10821579025E+02  0.36764076180E+01  0.72803373968E+02  0.00000000000E+00 0.  1.
         11    1    3    3    0    0 -0.26649346582E+02 -0.12620402082E+02 -0.76277583483E+02  0.81778554426E+02  0.00000000000E+00 0. -1.
</event>
<event>
 7    1  0.6145388E-006  0.1267855E+03  0.7561462E-02  0.1232305E+00
         -4   -1    0    0    0  501 -0.00000000000E+00  0.00000000000E+00  0.41516085292E+02  0.41516085292E+02  0.00000000000E+00 0.  1.
          4   -1    0    0  501    0  0.00000000000E+00 -0.00000000000E+00 -0.44265954062E+03  0.44265954062E+03  0.00000000000E+00 0. -1.
         23    2    1    2    0    0  0.23250304548E+02 -0.74744693274E+02 -0.21674642928E+03  0.24799549675E+03  0.91626447978E+02 0.  0.
          5    1    1    2  502    0 -0.15802847934E+02 -0.33587141903E+02 -0.33146588093E+02  0.49939911957E+02  0.41800000000E+01 0. -1.
         -5    1    1    2    0  502 -0.74474566141E+01  0.10833183518E+03 -0.15125043796E+03  0.18624021721E+03  0.41800000000E+01 0. -1.
        -11    1    3    3    0    0 -0.20589460302E+02 -0.56373619539E+02 -0.62750661041E+02  0.86830618543E+02  0.00000000000E+00 0.  1.
         11    1    3    3    0    0  0.43839764851E+02 -0.18371073735E+02 -0.15399576824E+03  0.16116487821E+03  0.00000000000E+00 0. -1.
</event>
<event>
 7    1  0.6145388E-006  0.1199911E+03  0.7561462E-02  0.1243112E+00
         -3   -1    0    0    0  501 -0.00000000000E+00  0.00000000000E+00  0.62982602192E+03  0.62982602192E+03  0.00000000000E+00 0.  1.
          3   -1    0    0  501    0  0.00000000000E+00 -0.00000000000E+00 -0.32430339776E+02  0.32430339776E+02  0.00000000000E+00 0. -1.
         23    2    1    2    0    0  0.28821049810E+02 -0.46858493216E+02  0.99902002521E+02  0.14633585046E+03  0.91691873810E+02 0.  0.
          5    1    1    2  502    0 -0.75312430410E+02  0.12139758440E+02  0.23698942118E+03  0.24899958647E+03  0.41800000000E+01 0. -1.
         -5    1    1    2    0  502  0.46491380600E+02  0.34718734776E+02  0.26050425844E+03  0.26692092477E+03  0.41800000000E+01 0. -1.
        -11    1    3    3    0    0  0.50641668595E+02 -0.61094635189E+02  0.63837514606E+02  0.10184479033E+03  0.00000000000E+00 0.  1.
         11    1    3    3    0    0 -0.21820618785E+02  0.14236141973E+02  0.36064487915E+02  0.44491060124E+02  0.00000000000E+00 0. -1.
</event>
<event>
 7    1  0.6145388E-006  0.1037758E+03  0.7561462E-02  0.1272551E+00
         -1   -1    0    0    0  501 -0.00000000000E+00  0.00000000000E+00  0.32452292765E+02  0.32452292765E+02  0.00000000000E+00 0.  1.
          1   -1    0    0  501    0  0.00000000000E+00 -0.00000000000E+00 -0.42251375051E+03  0.42251375051E+03  0.00000000000E+00 0. -1.
         23    2    1    2    0    0 -0.19309351589E+02  0.68646615222E+01 -0.24455349197E+03  0.26199055977E+03  0.91720599307E+02 0.  0.
          5    1    1    2  502    0 -0.47036556440E+02  0.24441366979E+02 -0.64950154475E+02  0.83939341359E+02  0.41800000000E+01 0.  1.
         -5    1    1    2    0  502  0.66345908028E+02 -0.31306028501E+02 -0.80557811303E+02  0.10903614215E+03  0.41800000000E+01 0.  1.
        -11    1    3    3    0    0 -0.45582384035E+02  0.21962120293E+02 -0.79909054318E+02  0.94580893546E+02  0.00000000000E+00 0.  1.
         11    1    3    3    0    0  0.26273032446E+02 -0.15097458771E+02 -0.16464443765E+03  0.16740966622E+03  0.00000000000E+00 0. -1.
</event>
<event>
 7    1  0.6145388E-006  0.1684826E+03  0.7561462E-02  0.1179440E+00
          4   -1    0    0  501    0  0.00000000000E+00  0.00000000000E+00  0.50186076166E+03  0.50186076166E+03  0.00000000000E+00 0. -1.
         -4   -1    0    0    0  501 -0.00000000000E+00 -0.00000000000E+00 -0.70752839288E+02  0.70752839288E+02  0.00000000000E+00 0.  1.
         23    2    1    2    0    0 -0.13075895478E+03  0.63150240259E+02  0.27225768491E+03  0.32368233202E+03  0.97776009161E+02 0.  0.
          5    1    1    2  502    0  0.10829460766E+03  0.11171634902E+02  0.11976156468E+03  0.16190377466E+03  0.41800000000E+01 0. -1.
         -5    1    1    2    0  502  0.22464347115E+02 -0.74321875161E+02  0.39088672780E+02  0.87027494267E+02  0.41800000000E+01 0. -1.
        -11    1    3    3    0    0 -0.63055047857E+02  0.92683715413E+01  0.38582522865E+02  0.74501361342E+02  0.00000000000E+00 0.  1.
         11    1    3    3    0    0 -0.67703906921E+02  0.53881868717E+02  0.23367516205E+03  0.24918097068E+03  0.00000000000E+00 0. -1.
</event>
<event>
 7    1  0.6145388E-006  0.1269975E+03  0.7561462E-02  0.1231980E+00
         -2   -1    0    0    0  501 -0.00000000000E+00  0.00000000000E+00  0.15558255542E+03  0.15558255542E+03  0.00000000000E+00 0.  1.
          2   -1    0    0  501    0  0.00000000000E+00 -0.00000000000E+00 -0.11671895981E+03  0.11671895981E+03  0.00000000000E+00 0. -1.
         23    2    1    2    0    0  0.43975637687E+01  0.74668664705E+02 -0.59721741013E+01  0.11981416357E+03  0.93407809490E+02 0.  0.
          5    1    1    2  502    0  0.37749458113E+02 -0.83850181356E+02  0.55984650012E+02  0.10773870214E+03  0.41800000000E+01 0. -1.
         -5    1    1    2    0  502 -0.42147021882E+02  0.91815166505E+01 -0.11148880307E+02  0.44748649517E+02  0.41800000000E+01 0. -1.
        -11    1    3    3    0    0  0.31100646839E+02 -0.76815734481E+01 -0.87141615557E+01  0.33199298427E+02  0.00000000000E+00 0.  1.
         11    1    3    3    0    0 -0.26703083070E+02  0.82350238154E+02  0.27419874545E+01  0.86614865148E+02  0.00000000000E+00 0. -1.
</event>
<event>
 7    1  0.6145388E-006  0.1153273E+03  0.7561462E-02  0.1251011E+00
         -1   -1    0    0    0  501 -0.00000000000E+00  0.00000000000E+00  0.30267439656E+03  0.30267439656E+03  0.00000000000E+00 0.  1.
          1   -1    0    0  501    0  0.00000000000E+00 -0.00000000000E+00 -0.72044090095E+02  0.72044090095E+02  0.00000000000E+00 0. -1.
         23    2    1    2    0    0  0.54713075480E+01 -0.10006187513E+03  0.11252585162E+03  0.17562421457E+03  0.90219085565E+02 0.  0.
          5    1    1    2  502    0 -0.21800832687E+02  0.34814770765E+02 -0.19659779715E+02  0.45730995044E+02  0.41800000000E+01 0. -1.
         -5    1    1    2    0  502  0.16329525139E+02  0.65247104368E+02  0.13776423456E+03  0.15336327704E+03  0.41800000000E+01 0. -1.
        -11    1    3    3    0    0  0.24049860088E+02 -0.43032834268E+01 -0.27844630678E+01  0.24589982779E+02  0.00000000000E+00 0. -1.
         11    1    3    3    0    0 -0.18578552540E+02 -0.95758591707E+02  0.11531031469E+03  0.15103423179E+03  0.00000000000E+00 0.  1.
</event>
<event>
 7    1  0.6145388E-006  0.1171597E+03  0.7561462E-02  0.1247857E+00
          2   -1    0    0  501    0  0.00000000000E+00  0.00000000000E+00  0.74127007062E+03  0.74127007062E+03  0.00000000000E+00 0. -1.
         -2   -1    0    0    0  501 -0.00000000000E+00 -0.00000000000E+00 -0.21747445991E+02  0.21747445991E+02  0.00000000000E+00 0.  1.
         23    2    1    2    0    0 -0.54088080724E+02  0.36519457083E+02  0.34727708006E+03  0.36492978341E+03  0.91176670635E+02 0.  0.
          5    1    1    2  502    0  0.15199909436E+02 -0.70187851092E+02  0.11447013314E+03  0.13519709860E+03  0.41800000000E+01 0. -1.
         -5    1    1    2    0  502  0.38888171288E+02  0.33668394009E+02  0.25777541144E+03  0.26289063460E+03  0.41800000000E+01 0. -1.
        -11    1    3    3    0    0 -0.74157017776E+02  0.47336425915E+02  0.25038073058E+03  0.26538747285E+03  0.00000000000E+00 0. -1.
         11    1    3    3    0    0  0.20068937052E+02 -0.10816968832E+02  0.96896349479E+02  0.99542310559E+02  0.00000000000E+00 0.  1.
</event>
<event>
 7    1  0.6145388E-006  0.1216954E+03  0.7561462E-02  0.1240326E+00
         -2   -1    0    0    0  501 -0.00000000000E+00  0.00000000000E+00  0.10119181697E+03  0.10119181697E+03  0.00000000000E+00 0. -1.
          2   -1    0    0  501    0  0.00000000000E+00 -0.00000000000E+00 -0.15245667909E+03  0.15245667909E+03  0.00000000000E+00 0.  1.
         23    2    1    2    0    0 -0.31593973476E+02 -0.50271727169E+02 -0.40467631711E+02  0.11476083536E+03  0.89481810467E+02 0.  0.
          5    1    1    2  502    0  0.67280417188E+02  0.68214911909E+02  0.42564710955E+01  0.95997493144E+02  0.41800000000E+01 0. -1.
         -5    1    1    2    0  502 -0.35686443712E+02 -0.17943184740E+02 -0.15053701502E+02  0.42890167549E+02  0.41800000000E+01 0. -1.
        -11    1    3    3    0    0  0.21481491015E+01 -0.68798648180E+02 -0.24060573274E+02  0.72916251428E+02  0.00000000000E+00 0.  1.
         11    1    3    3    0    0 -0.33742122577E+02  0.18526921012E+02 -0.16407058438E+02  0.41844583936E+02  0.00000000000E+00 0. -1.
</event>
<event>
 7    1  0.6145388E-006  0.9511040E+02  0.7561462E-02  0.1290928E+00
          1   -1    0    0  501    0  0.00000000000E+00  0.00000000000E+00  0.24366437379E+02  0.24366437379E+02  0.00000000000E+00 0. -1.
         -1   -1    0    0    0  501 -0.00000000000E+00 -0.00000000000E+00 -0.58006037323E+03  0.58006037323E+03  0.00000000000E+00 0.  1.
         23    2    1    2    0    0 -0.22065001954E+02  0.36086140918E+02 -0.22210450071E+03  0.24565330771E+03  0.96052404839E+02 0.  0.
          5    1    1    2  502    0 -0.30554850146E+02 -0.57895496475E+01 -0.26590261735E+03  0.26774762757E+03  0.41800000000E+01 0.  1.
         -5    1    1    2    0  502  0.52619852100E+02 -0.30296591271E+02 -0.67686817784E+02  0.91025875329E+02  0.41800000000E+01 0.  1.
        -11    1    3    3    0    0  0.34330202863E+02  0.94237121866E+01 -0.12716322994E+03  0.13205247529E+03  0.00000000000E+00 0.  1.
         11    1    3    3    0    0 -0.56395204817E+02  0.26662428732E+02 -0.94941270771E+02  0.11360083243E+03  0.00000000000E+00 0. -1.
</event>
<event>
 7    1  0.6510358E-006  0.2043960E+03  0.7561462E-02  0.1146082E+00
         -1   -1    0    0    0  501 -0.00000000000E+00  0.00000000000E+00  0.59088265428E+02  0.59088265428E+02  0.00000000000E+00 0.  1.
          1   -1    0    0  501    0  0.00000000000E+00 -0.00000000000E+00 -0.95261490974E+03  0.95261490974E+03  0.00000000000E+00 0. -1.
         23    2    1    2    0    0 -0.11324116498E+03 -0.15851189840E+03 -0.60283806971E+03  0.64008920506E+03  0.91383087911E+02 0.  0.
          5    1    1    2  502    0 -0.13894851651E+02  0.28436287672E+02 -0.11254477497E+03  0.11698499105E+03  0.41800000000E+01 0. -1.
         -5    1    1    2    0  502  0.12713601663E+03  0.13007561073E+03 -0.17814379963E+03  0.25462897906E+03  0.41800000000E+01 0. -1.
        -11    1    3    3    0    0 -0.32164303135E+02 -0.50567716137E+02 -0.79145313986E+02  0.99275460399E+02  0.00000000000E+00 0.  1.
         11    1    3    3    0    0 -0.81076861841E+02 -0.10794418226E+03 -0.52369275573E+03  0.54081374466E+03  0.00000000000E+00 0. -1.
</event>
<event>
 7    1  0.6145388E-006  0.1265038E+03  0.7561462E-02  0.1232738E+00
          2   -1    0    0  501    0  0.00000000000E+00  0.00000000000E+00  0.15338715228E+03  0.15338715228E+03  0.00000000000E+00 0. -1.
         -2   -1    0    0    0  501 -0.00000000000E+00 -0.00000000000E+00 -0.28021378101E+03  0.28021378101E+03  0.00000000000E+00 0.  1.
         23    2    1    2    0    0  0.88955137426E+02 -0.12910842911E+02  0.94449060867E+02  0.16398996484E+03  0.99460429971E+02 0.  0.
          5    1    1    2  502    0 -0.86163673132E+02 -0.25171025199E+02 -0.21175944149E+03  0.23003758940E+03  0.41800000000E+01 0.  1.
         -5    1    1    2    0  502 -0.27914642938E+01  0.38081868110E+02 -0.95162481134E+01  0.39573379055E+02  0.41800000000E+01 0.  1.
        -11    1    3    3    0    0  0.11995290049E+02  0.33004723022E+02  0.19079609000E+01  0.35168722466E+02  0.00000000000E+00 0. -1.
         11    1    3    3    0    0  0.76959847377E+02 -0.45915565933E+02  0.92541099967E+02  0.12882124237E+03  0.00000000000E+00 0.  1.
</event>
<event>
 7    1  0.6145388E-006  0.1098341E+03  0.7561462E-02  0.1260877E+00
          1   -1    0    0  501    0  0.00000000000E+00  0.00000000000E+00  0.69255907130E+03  0.69255907130E+03  0.00000000000E+00 0. -1.
         -1   -1    0    0    0  501 -0.00000000000E+00 -0.00000000000E+00 -0.39757845975E+02  0.39757845975E+02  0.00000000000E+00 0.  1.
         23    2    1    2    0    0 -0.31420811915E+02  0.94023732316E+02  0.47103070221E+03  0.49041569123E+03  0.93861057531E+02 0.  0.
          5    1    1    2  502    0  0.21086870160E+02 -0.12362357620E+02  0.15240197759E+03  0.15440634427E+03  0.41800000000E+01 0.  1.
         -5    1    1    2    0  502  0.10333941755E+02 -0.81661374696E+02  0.29368545525E+02  0.87494881768E+02  0.41800000000E+01 0.  1.
        -11    1    3    3    0    0 -0.24516937318E+02  0.74800825977E+01  0.24277375070E+02  0.35304713445E+02  0.00000000000E+00 0. -1.
         11    1    3    3    0    0 -0.69038745977E+01  0.86543649718E+02  0.44675332714E+03  0.45511097779E+03  0.00000000000E+00 0.  1.
</event>
<event>
 7    1  0.6145388E-006  0.1025691E+03  0.7561462E-02  0.1274984E+00
          1   -1    0    0  501    0  0.00000000000E+00  0.00000000000E+00  0.14852392958E+02  0.14852392958E+02  0.00000000000E+00 0. -1.
         -1   -1    0    0    0  501 -0.00000000000E+00 -0.00000000000E+00 -0.10239179224E+04  0.10239179224E+04  0.00000000000E+00 0.  1.
         23    2    1    2    0    0  0.25061339592E+02  0.45605362732E+02 -0.35675828467E+03  0.37191825186E+03  0.91316989310E+02 0.  0.
          5    1    1    2  502    0 -0.51267835918E+02 -0.13867391844E-01 -0.10412400910E+03  0.11613644072E+03  0.41800000000E+01 0. -1.
         -5    1    1    2    0  502  0.26206496326E+02 -0.45591495341E+02 -0.54818323570E+03  0.55071562281E+03  0.41800000000E+01 0.  1.
        -11    1    3    3    0    0  0.47832927916E+01 -0.26046233427E+02 -0.14622549221E+03  0.14860410741E+03  0.00000000000E+00 0.  1.
         11    1    3    3    0    0  0.20278046800E+02  0.71651596159E+02 -0.21053279246E+03  0.22331414445E+03  0.00000000000E+00 0. -1.
</event>
<event>
 7    1  0.6145388E-006  0.1356224E+03  0.7561462E-02  0.1219344E+00
          2   -1    0    0  501    0  0.00000000000E+00  0.00000000000E+00  0.77977554679E+02  0.77977554679E+02  0.00000000000E+00 0. -1.
         -2   -1    0    0    0  501 -0.00000000000E+00 -0.00000000000E+00 -0.40419441294E+03  0.40419441294E+03  0.00000000000E+00 0.  1.
         23    2    1    2    0    0  0.11684416864E+03  0.54138652266E+02 -0.79948341082E+02  0.17741148834E+03  0.92192979879E+02 0.  0.
          5    1    1    2  502    0 -0.89250511299E+02 -0.63132068668E+02 -0.25214460887E+03  0.27485575862E+03  0.41800000000E+01 0.  1.
         -5    1    1    2    0  502 -0.27593657345E+02  0.89934164015E+01  0.58760916916E+01  0.29904720661E+02  0.41800000000E+01 0.  1.
        -11    1    3    3    0    0  0.40471575588E+02  0.29465690058E+01 -0.75075254444E+02  0.85340052317E+02  0.00000000000E+00 0.  1.
         11    1    3    3    0    0  0.76372593056E+02  0.51192083260E+02 -0.48730866375E+01  0.92071436026E+02  0.00000000000E+00 0. -1.
</event>
<event>
 7    1  0.6145388E-006  0.1726175E+03  0.7561462E-02  0.1175145E+00
          2   -1    0    0  501    0  0.00000000000E+00  0.00000000000E+00  0.11937828863E+04  0.11937828863E+04  0.00000000000E+00 0. -1.
         -2   -1    0    0    0  501 -0.00000000000E+00 -0.00000000000E+00 -0.26986675962E+02  0.26986675962E+02  0.00000000000E+00 0.  1.
         23    2    1    2    0    0  0.14403417459E+03  0.17267685668E+02  0.59994969922E+03  0.62243284646E+03  0.80243319598E+02 0.  0.
          5    1    1    2  502    0 -0.25686314914E+02  0.45037334673E+02  0.10037566728E+03  0.11305262169E+03  0.41800000000E+01 0.  1.
         -5    1    1    2    0  502 -0.11834785968E+03 -0.62305020341E+02  0.46647084379E+03  0.48528409407E+03  0.41800000000E+01 0.  1.
        -11    1    3    3    0    0  0.21437353978E+02  0.29207976042E+02  0.75934648204E+02  0.84135229291E+02  0.00000000000E+00 0.  1.
         11    1    3    3    0    0  0.12259682061E+03 -0.11940290373E+02  0.52401505102E+03  0.53829761717E+03  0.00000000000E+00 0. -1.
</event>
<event>
 7    1  0.6145388E-006  0.1074345E+03  0.7561462E-02  0.1265396E+00
          2   -1    0    0  501    0  0.00000000000E+00  0.00000000000E+00  0.40373894374E+02  0.40373894374E+02  0.00000000000E+00 0. -1.
         -2   -1    0    0    0  501 -0.00000000000E+00 -0.00000000000E+00 -0.31179924237E+03  0.31179924237E+03  0.00000000000E+00 0.  1.
         23    2    1    2    0    0 -0.23241348680E+02 -0.15691537815E+02 -0.10884871612E+03  0.14513285122E+03  0.91810221956E+02 0.  0.
          5    1    1    2  502    0  0.16074783154E+02 -0.51395113472E+02 -0.40544487948E+02  0.67536540074E+02  0.41800000000E+01 0. -1.
         -5    1    1    2    0  502  0.71665655266E+01  0.67086651286E+02 -0.12203214392E+03  0.13950374544E+03  0.41800000000E+01 0. -1.
        -11    1    3    3    0    0  0.33700998869E+02 -0.13409727419E+02 -0.59817547871E+02  0.69955108087E+02  0.00000000000E+00 0.  1.
         11    1    3    3    0    0 -0.56942347549E+02 -0.22818103958E+01 -0.49031168252E+02  0.75177743137E+02  0.00000000000E+00 0. -1.
</event>
<event>
 7    1  0.6145388E-006  0.8945981E+02  0.7561462E-02  0.1304165E+00
          3   -1    0    0  501    0  0.00000000000E+00  0.00000000000E+00  0.23998699834E+03  0.23998699834E+03  0.00000000000E+00 0.  1.
         -3   -1    0    0    0  501 -0.00000000000E+00 -0.00000000000E+00 -0.51960428958E+02  0.51960428958E+02  0.00000000000E+00 0. -1.
         23    2    1    2    0    0 -0.75694842295E+01 -0.83631586862E+01  0.11476987476E+03  0.14654833403E+03  0.90427045401E+02 0.  0.
          5    1    1    2  502    0 -0.82807507402E+01 -0.42036174708E+02  0.81106959633E+02  0.91822775594E+02  0.41800000000E+01 0.  1.
         -5    1    1    2    0  502  0.15850234970E+02  0.50399333394E+02 -0.78502650070E+01  0.53576317677E+02  0.41800000000E+01 0.  1.
        -11    1    3    3    0    0 -0.11834296394E+02 -0.44724393603E+02  0.32612420401E+02  0.56602932068E+02  0.00000000000E+00 0.  1.
         11    1    3    3    0    0  0.42648121642E+01  0.36361234917E+02  0.82157454358E+02  0.89945401962E+02  0.00000000000E+00 0. -1.
</event>
<event>
 7    1  0.6145388E-006  0.1152006E+03  0.7561462E-02  0.1251231E+00
         -2   -1    0    0    0  501 -0.00000000000E+00  0.00000000000E+00  0.93767009697E+02  0.93767009697E+02  0.00000000000E+00 0.  1.
          2   -1    0    0  501    0  0.00000000000E+00 -0.00000000000E+00 -0.17888126080E+03  0.17888126080E+03  0.00000000000E+00 0. -1.
         23    2    1    2    0    0 -0.70469770540E+02  0.12191321503E+02 -0.41612223212E+02  0.12213587990E+03  0.89838628438E+02 0.  0.
          5    1    1    2  502    0  0.82712556920E+02  0.16573657742E+02  0.13339077796E+02  0.85507055847E+02  0.41800000000E+01 0. -1.
         -5    1    1    2    0  502 -0.12242786380E+02 -0.28764979245E+02 -0.56841105685E+02  0.65005334741E+02  0.41800000000E+01 0. -1.
        -11    1    3    3    0    0 -0.77332503490E+02  0.39082763645E+02 -0.35958534851E+02  0.93812551073E+02  0.00000000000E+00 0. -1.
         11    1    3    3    0    0  0.68627329502E+01 -0.26891442142E+02 -0.56536883607E+01  0.28323328832E+02  0.00000000000E+00 0.  1.
</event>
<event>
 7    1  0.6145388E-006  0.1555136E+03  0.7561462E-02  0.1193857E+00
          2   -1    0    0  501    0  0.00000000000E+00  0.00000000000E+00  0.92271598079E+03  0.92271598079E+03  0.00000000000E+00 0. -1.
         -2   -1    0    0    0  501 -0.00000000000E+00 -0.00000000000E+00 -0.30497701031E+02  0.30497701031E+02  0.00000000000E+00 0.  1.
         23    2    1    2    0    0  0.10157832627E+03  0.70686116215E+02  0.56247537788E+03  0.58312239402E+03  0.91315345365E+02 0.  0.
          5    1    1    2  502    0  0.15383894919E+02  0.15842589687E+02  0.42495204844E+02  0.48072515075E+02  0.41800000000E+01 0. -1.
         -5    1    1    2    0  502 -0.11696222119E+03 -0.86528705903E+02  0.28724769703E+03  0.32201877272E+03  0.41800000000E+01 0.  1.
        -11    1    3    3    0    0  0.36010073003E+02  0.68510508814E+02  0.40827479746E+03  0.41554629756E+03  0.00000000000E+00 0.  1.
         11    1    3    3    0    0  0.65568253272E+02  0.21756074008E+01  0.15420058042E+03  0.16757609647E+03  0.00000000000E+00 0. -1.
</event>
<event>
 7    1  0.6145388E-006  0.1119678E+03  0.7561462E-02  0.1256969E+00
          2   -1    0    0  501    0  0.00000000000E+00  0.00000000000E+00  0.59505273815E+03  0.59505273815E+03  0.00000000000E+00 0. -1.
         -2   -1    0    0    0  501 -0.00000000000E+00 -0.00000000000E+00 -0.29519804648E+02  0.29519804648E+02  0.00000000000E+00 0.  1.
         23    2    1    2    0    0  0.43336943752E+02 -0.32350227156E+02  0.38468413833E+03  0.39812407693E+03  0.87156562901E+02 0.  0.
          5    1    1    2  502    0 -0.27932676254E+02  0.77934313982E+02  0.14217131944E+03  0.16457262278E+03  0.41800000000E+01 0. -1.
         -5    1    1    2    0  502 -0.15404267499E+02 -0.45584086826E+02  0.38677475739E+02  0.61875843093E+02  0.41800000000E+01 0. -1.
        -11    1    3    3    0    0 -0.13739120334E+00  0.22642031559E+02  0.36495910501E+02  0.42949178720E+02  0.00000000000E+00 0.  1.
         11    1    3    3    0    0  0.43474334956E+02 -0.54992258715E+02  0.34818822783E+03  0.35517489821E+03  0.00000000000E+00 0. -1.
</event>
<event>
 7    1  0.6145388E-006  0.8494424E+02  0.7561462E-02  0.1315578E+00
          2   -1    0    0  501    0  0.00000000000E+00  0.00000000000E+00  0.34440209918E+03  0.34440209918E+03  0.00000000000E+00 0.  1.
         -2   -1    0    0    0  501 -0.00000000000E+00 -0.00000000000E+00 -0.37574513467E+02  0.37574513467E+02  0.00000000000E+00 0. -1.
         23    2    1    2    0    0 -0.16993676167E+01 -0.34628266329E+02  0.15115363593E+03  0.17928275457E+03  0.89960434361E+02 0.  0.
          5    1    1    2  502    0  0.48815015410E+01 -0.34879047648E+02  0.39020753645E+01  0.35680185177E+02  0.41800000000E+01 0.  1.
         -5    1    1    2    0  502 -0.31821339243E+01  0.69507313977E+02  0.15177187442E+03  0.16701367290E+03  0.41800000000E+01 0.  1.
        -11    1    3    3    0    0  0.25851419091E+02 -0.98556401310E+01  0.45106857022E+01  0.28031692723E+02  0.00000000000E+00 0. -1.
         11    1    3    3    0    0 -0.27550786707E+02 -0.24772626198E+02  0.14664295023E+03  0.15125106185E+03  0.00000000000E+00 0.  1.
</event>
<event>
 7    1  0.6145388E-006  0.1048842E+03  0.7561462E-02  0.1270348E+00
         -1   -1    0    0    0  501 -0.00000000000E+00  0.00000000000E+00  0.16479826470E+02  0.16479826470E+02  0.00000000000E+00 0.  1.
          1   -1    0    0  501    0  0.00000000000E+00 -0.00000000000E+00 -0.76620566509E+03  0.76620566509E+03  0.00000000000E+00 0. -1.
         23    2    1    2    0    0  0.97817657323E+00 -0.28500041751E+02 -0.30716760534E+03  0.32190284018E+03  0.91958096625E+02 0.  0.
          5    1    1    2  502    0  0.60367953752E+02  0.21442953548E+02 -0.26781932663E+03  0.27540652537E+03  0.41800000000E+01 0. -1.
         -5    1    1    2    0  502 -0.61346130325E+02  0.70570882030E+01 -0.17473890665E+03  0.18537612601E+03  0.41800000000E+01 0. -1.
        -11    1    3    3    0    0 -0.55865689279E+01  0.27110582997E+02 -0.38238199019E+02  0.47205437473E+02  0.00000000000E+00 0.  1.
         11    1    3    3    0    0  0.65647455012E+01 -0.55610624748E+02 -0.26892940632E+03  0.27469740271E+03  0.00000000000E+00 0. -1.
</event>
<event>
 7    1  0.6145388E-006  0.1045553E+03  0.7561462E-02  0.1270998E+00
         -2   -1    0    0    0  501 -0.00000000000E+00  0.00000000000E+00  0.22807713116E+02  0.22807713116E+02  0.00000000000E+00 0.  1.
          2   -1    0    0  501    0  0.00000000000E+00 -0.00000000000E+00 -0.58631091180E+03  0.58631091180E+03  0.00000000000E+00 0. -1.
         23    2    1    2    0    0 -0.22711668345E+02 -0.29366814946E+02 -0.28735012766E+03  0.30368796669E+03  0.90983820245E+02 0.  0.
          5    1    1    2  502    0 -0.39119226049E+02 -0.55914687028E+01 -0.31698154871E+02  0.50831326868E+02  0.41800000000E+01 0. -1.
         -5    1    1    2    0  502  0.61830894394E+02  0.34958283649E+02 -0.24445491615E+03  0.25459933136E+03  0.41800000000E+01 0. -1.
        -11    1    3    3    0    0 -0.45645677124E+02 -0.49764939029E+02 -0.19323870387E+03  0.20469800603E+03  0.00000000000E+00 0. -1.
         11    1    3    3    0    0  0.22934008779E+02  0.20398124083E+02 -0.94111423786E+02  0.98989960662E+02  0.00000000000E+00 0.  1.
</event>
<event>
 7    1  0.6145388E-006  0.6651682E+02  0.7561462E-02  0.1372355E+00
          4   -1    0    0  501    0  0.00000000000E+00  0.00000000000E+00  0.32608271178E+03  0.32608271178E+03  0.00000000000E+00 0. -1.
         -4   -1    0    0    0  501 -0.00000000000E+00 -0.00000000000E+00 -0.55466859555E+02  0.55466859555E+02  0.00000000000E+00 0.  1.
         23    2    1    2    0    0 -0.24035000478E+02  0.12747057599E+02  0.24805374350E+03  0.26521099454E+03  0.89811153192E+02 0.  0.
          5    1    1    2  502    0 -0.19721592908E+02 -0.22205261314E+02 -0.33178317564E+02  0.44724579520E+02  0.41800000000E+01 0. -1.
         -5    1    1    2    0  502  0.43756593386E+02  0.94582037145E+01  0.55740426294E+02  0.71613997275E+02  0.41800000000E+01 0.  1.
        -11    1    3    3    0    0  0.16014133185E+02  0.75187632689E+01  0.43971671781E+01  0.18229628135E+02  0.00000000000E+00 0.  1.
         11    1    3    3    0    0 -0.40049133662E+02  0.52282943304E+01  0.24365657632E+03  0.24698136641E+03  0.00000000000E+00 0. -1.
</event>
<event>
 7    1  0.6145388E-006  0.1044426E+03  0.7561462E-02  0.1271222E+00
         -2   -1    0    0    0  501 -0.00000000000E+00  0.00000000000E+00  0.60532711488E+02  0.60532711488E+02  0.00000000000E+00 0. -1.
          2   -1    0    0  501    0  0.00000000000E+00 -0.00000000000E+00 -0.26724638120E+03  0.26724638120E+03  0.00000000000E+00 0.  1.
         23    2    1    2    0    0 -0.26281529843E+02 -0.30647734609E+02 -0.15799102943E+03  0.18760148709E+03  0.92753167751E+02 0.  0.
          5    1    1    2  502    0  0.54305381056E+02 -0.23367064491E+02 -0.52347540329E+02  0.79074847410E+02  0.41800000000E+01 0.  1.
         -5    1    1    2    0  502 -0.28023851213E+02  0.54014799100E+02  0.36249000478E+01  0.61102758194E+02  0.41800000000E+01 0.  1.
        -11    1    3    3    0    0 -0.54286855041E+02 -0.14075942279E+02 -0.13908692691E+03  0.14996788996E+03  0.00000000000E+00 0.  1.
         11    1    3    3    0    0  0.28005325198E+02 -0.16571792329E+02 -0.18904102522E+02  0.37633597126E+02  0.00000000000E+00 0. -1.
</event>
<event>
 7    1  0.6145388E-006  0.9832374E+02  0.7561462E-02  0.1283861E+00
          4   -1    0    0  501    0  0.00000000000E+00  0.00000000000E+00  0.54599242610E+02  0.54599242610E+02  0.00000000000E+00 0. -1.
         -4   -1    0    0    0  501 -0.00000000000E+00 -0.00000000000E+00 -0.29356308583E+03  0.29356308583E+03  0.00000000000E+00 0.  1.
         23    2    1    2    0    0 -0.34868951405E+02  0.47006162964E+02 -0.64853783162E+02  0.12593177721E+03  0.90704885155E+02 0.  0.
          5    1    1    2  502    0  0.39756018669E+02  0.25292431242E+02 -0.12744238088E+03  0.13593851898E+03  0.41800000000E+01 0.  1.
         -5    1    1    2    0  502 -0.48870672641E+01 -0.72298594206E+02 -0.46667679178E+02  0.86292032254E+02  0.41800000000E+01 0.  1.
        -11    1    3    3    0    0 -0.10787524230E+02 -0.10103208350E+02 -0.62161406526E+02  0.63894334329E+02  0.00000000000E+00 0.  1.
         11    1    3    3    0    0 -0.24081427175E+02  0.57109371314E+02 -0.26923766359E+01  0.62037442877E+02  0.00000000000E+00 0. -1.
</event>
<event>
 7    1  0.6145388E-006  0.1916344E+03  0.7561462E-02  0.1156995E+00
          1   -1    0    0  501    0  0.00000000000E+00  0.00000000000E+00  0.48430121697E+03  0.48430121697E+03  0.00000000000E+00 0. -1.
         -1   -1    0    0    0  501 -0.00000000000E+00 -0.00000000000E+00 -0.10188383907E+03  0.10188383907E+03  0.00000000000E+00 0.  1.
         23    2    1    2    0    0  0.16551897817E+03 -0.74449955595E+02  0.27263900586E+03  0.33993798365E+03  0.91030089504E+02 0.  0.
          5    1    1    2  502    0 -0.85008738990E+02  0.22546653705E+02  0.12107227364E+03  0.14970238857E+03  0.41800000000E+01 0. -1.
         -5    1    1    2    0  502 -0.80510239176E+02  0.51903301890E+02 -0.11293901594E+02  0.96544683813E+02  0.41800000000E+01 0. -1.
        -11    1    3    3    0    0  0.12061343233E+03 -0.10324633893E+02  0.13292808302E+03  0.17978896902E+03  0.00000000000E+00 0. -1.
         11    1    3    3    0    0  0.44905545832E+02 -0.64125321702E+02  0.13971092283E+03  0.16014901464E+03  0.00000000000E+00 0.  1.
</event>
<event>
 7    1  0.6145388E-006  0.7397369E+02  0.7561462E-02  0.1347079E+00
          4   -1    0    0  501    0  0.00000000000E+00  0.00000000000E+00  0.38459498340E+03  0.38459498340E+03  0.00000000000E+00 0. -1.
         -4   -1    0    0    0  501 -0.00000000000E+00 -0.00000000000E+00 -0.10697206956E+03  0.10697206956E+03  0.00000000000E+00 0.  1.
         23    2    1    2    0    0  0.45082166125E+02  0.13076897174E+02  0.33179880600E+03  0.34739443551E+03  0.91591698403E+02 0.  0.
          5    1    1    2  502    0 -0.37334251556E+02  0.14946792305E+01  0.36209144962E+02  0.52198227787E+02  0.41800000000E+01 0.  1.
         -5    1    1    2    0  502 -0.77479145691E+01 -0.14571576405E+02 -0.90385037124E+02  0.91974389669E+02  0.41800000000E+01 0.  1.
        -11    1    3    3    0    0 -0.13871671253E+02  0.29096559884E+02  0.53425950007E+02  0.62396836415E+02  0.00000000000E+00 0.  1.
         11    1    3    3    0    0  0.58953837378E+02 -0.16019662709E+02  0.27837285599E+03  0.28499759909E+03  0.00000000000E+00 0. -1.
</event>
<event>
 7    1  0.6145388E-006  0.2319508E+03  0.7561462E-02  0.1125274E+00
          1   -1    0    0  501    0  0.00000000000E+00  0.00000000000E+00  0.11304103628E+04  0.11304103628E+04  0.00000000000E+00 0. -1.
         -1   -1    0    0    0  501 -0.00000000000E+00 -0.00000000000E+00 -0.54776102631E+02  0.54776102631E+02  0.00000000000E+00 0.  1.
         23    2    1    2    0    0 -0.10807695344E+03  0.19205657246E+03  0.58585077961E+03  0.63373279851E+03  0.99145191708E+02 0.  0.
          5    1    1    2  502    0  0.10757638022E+03 -0.10371124776E+03  0.20820568867E+03  0.25631188363E+03  0.41800000000E+01 0. -1.
         -5    1    1    2    0  502  0.50057322430E+00 -0.88345324696E+02  0.28157779191E+03  0.29514178333E+03  0.41800000000E+01 0. -1.
        -11    1    3    3    0    0 -0.61665901647E+02  0.60178727470E+02  0.12263082534E+03  0.14987488779E+03  0.00000000000E+00 0.  1.
         11    1    3    3    0    0 -0.46411051793E+02  0.13187784499E+03  0.46321995427E+03  0.48385791072E+03  0.00000000000E+00 0. -1.
</event>
<event>
 7    1  0.6145388E-006  0.1402778E+03  0.7561462E-02  0.1212956E+00
         -2   -1    0    0    0  501 -0.00000000000E+00  0.00000000000E+00  0.13439890908E+02  0.13439890908E+02  0.00000000000E+00 0.  1.
          2   -1    0    0  501    0  0.00000000000E+00 -0.00000000000E+00 -0.14678382688E+04  0.14678382688E+04  0.00000000000E+00 0. -1.
         23    2    1    2    0    0  0.65880796321E+02  0.58307628385E+02 -0.63552042529E+03  0.64824191903E+03  0.92689350917E+02 0.  0.
          5    1    1    2  502    0 -0.52273764295E+02 -0.97695779566E+02 -0.61150323309E+03  0.62147460789E+03  0.41800000000E+01 0. -1.
         -5    1    1    2    0  502 -0.13607032026E+02  0.39388151181E+02 -0.20737471951E+03  0.21156163278E+03  0.41800000000E+01 0. -1.
        -11    1    3    3    0    0 -0.78584355142E+01 -0.19240584256E+02 -0.10399982247E+03  0.10605620286E+03  0.00000000000E+00 0.  1.
         11    1    3    3    0    0  0.73739231835E+02  0.77548212641E+02 -0.53152060282E+03  0.54218571617E+03  0.00000000000E+00 0. -1.
</event>
<event>
 7    1  0.6145388E-006  0.1139626E+03  0.7561462E-02  0.1253403E+00
          1   -1    0    0  501    0  0.00000000000E+00  0.00000000000E+00  0.67340583782E+02  0.67340583782E+02  0.00000000000E+00 0. -1.
         -1   -1    0    0    0  501 -0.00000000000E+00 -0.00000000000E+00 -0.20788238860E+03  0.20788238860E+03  0.00000000000E+00 0.  1.
         23    2    1    2    0    0  0.10023056618E+02  0.45132018348E+02 -0.68231695859E+02  0.12352146831E+03  0.92003413359E+02 0.  0.
          5    1    1    2  502    0  0.53068291285E+02 -0.12891788383E+02 -0.57086322980E+02  0.79112340498E+02  0.41800000000E+01 0.  1.
         -5    1    1    2    0  502 -0.63091347902E+02 -0.32240229965E+02 -0.15223785973E+02  0.72589163569E+02  0.41800000000E+01 0.  1.
        -11    1    3    3    0    0  0.22861917913E+02 -0.23247025860E+02 -0.29073594197E+02  0.43684841554E+02  0.00000000000E+00 0.  1.
         11    1    3    3    0    0 -0.12838861296E+02  0.68379044208E+02 -0.39158101662E+02  0.79836626758E+02  0.00000000000E+00 0. -1.
</event>
<event>
 7    1  0.6145388E-006  0.9338510E+02  0.7561462E-02  0.1294855E+00
          1   -1    0    0  501    0  0.00000000000E+00  0.00000000000E+00  0.54332610612E+02  0.54332610612E+02  0.00000000000E+00 0. -1.
         -1   -1    0    0    0  501 -0.00000000000E+00 -0.00000000000E+00 -0.25574680287E+03  0.25574680287E+03  0.00000000000E+00 0.  1.
         23    2    1    2    0    0  0.36701372553E+02  0.70435358351E-01 -0.48333633992E+02  0.10901194893E+03  0.90556441661E+02 0.  0.
          5    1    1    2  502    0 -0.36782546386E+01 -0.41064614302E+02 -0.14090916135E+03  0.14687646598E+03  0.41800000000E+01 0. -1.
         -5    1    1    2    0  502 -0.33023117914E+02  0.40994178944E+02 -0.12171396919E+02  0.54190998579E+02  0.41800000000E+01 0. -1.
        -11    1    3    3    0    0  0.63426813573E+02  0.96011401061E+01 -0.48852553926E+02  0.80633210258E+02  0.00000000000E+00 0.  1.
         11    1    3    3    0    0 -0.26725441020E+02 -0.95307047477E+01  0.51891993408E+00  0.28378738672E+02  0.00000000000E+00 0. -1.
</event>
<event>
 7    1  0.6145388E-006  0.1073883E+03  0.7561462E-02  0.1265484E+00
         -2   -1    0    0    0  501 -0.00000000000E+00  0.00000000000E+00  0.29734494203E+02  0.29734494203E+02  0.00000000000E+00 0.  1.
          2   -1    0    0  501    0  0.00000000000E+00 -0.00000000000E+00 -0.41540784366E+03  0.41540784366E+03  0.00000000000E+00 0. -1.
         23    2    1    2    0    0 -0.95180034700E+01  0.97933047042E+01 -0.20608561305E+03  0.22585999474E+03  0.91405449008E+02 0.  0.
          5    1    1    2  502    0 -0.43665147587E+02 -0.41604994590E+02 -0.11343650335E+03  0.12854156286E+03  0.41800000000E+01 0.  1.
         -5    1    1    2    0  502  0.53183151057E+02  0.31811689886E+02 -0.66151233051E+02  0.90740780269E+02  0.41800000000E+01 0.  1.
        -11    1    3    3    0    0  0.39209478782E+02  0.17387021586E+02 -0.10353639030E+03  0.11206906738E+03  0.00000000000E+00 0.  1.
         11    1    3    3    0    0 -0.48727482252E+02 -0.75937168818E+01 -0.10254922275E+03  0.11379092736E+03  0.00000000000E+00 0. -1.
</event>
<event>
 7    1  0.6145388E-006  0.2426692E+03  0.7561462E-02  0.1118027E+00
         -2   -1    0    0    0  501 -0.00000000000E+00  0.00000000000E+00  0.84568356456E+03  0.84568356456E+03  0.00000000000E+00 0.  1.
          2   -1    0    0  501    0  0.00000000000E+00 -0.00000000000E+00 -0.88194268931E+02  0.88194268931E+02  0.00000000000E+00 0. -1.
         23    2    1    2    0    0  0.15666868772E+02 -0.23816536620E+03  0.23477854044E+03  0.34579346593E+03  0.86509916176E+02 0.  0.
          5    1    1    2  502    0  0.13853720227E+02  0.10140214373E+03  0.35579147918E+03  0.37024231170E+03  0.41800000000E+01 0.  1.
         -5    1    1    2    0  502 -0.29520588999E+02  0.13676322247E+03  0.16691927602E+03  0.21784205586E+03  0.41800000000E+01 0.  1.
        -11    1    3    3    0    0  0.31745989915E+02 -0.16417735793E+03  0.20471119480E+03  0.26432685450E+03  0.00000000000E+00 0.  1.
         11    1    3    3    0    0 -0.16079121144E+02 -0.73988008271E+02  0.30067345634E+02  0.81466611431E+02  0.00000000000E+00 0. -1.
</event>
<event>
 7    1  0.6145388E-006  0.8901177E+02  0.7561462E-02  0.1305263E+00
         -4   -1    0    0    0  501 -0.00000000000E+00  0.00000000000E+00  0.99886873362E+02  0.99886873362E+02  0.00000000000E+00 0.  1.
          4   -1    0    0  501    0  0.00000000000E+00 -0.00000000000E+00 -0.12129465045E+03  0.12129465045E+03  0.00000000000E+00 0. -1.
         23    2    1    2    0    0 -0.19614786834E+02 -0.10367209997E+01 -0.13848518271E+02  0.94324861609E+02  0.91211750374E+02 0.  0.
          5    1    1    2  502    0 -0.41646908533E+02  0.11066094059E+02 -0.37987033125E+02  0.57596966184E+02  0.41800000000E+01 0. -1.
         -5    1    1    2    0  502  0.61261695367E+02 -0.10029373059E+02  0.30427774308E+02  0.69259696018E+02  0.41800000000E+01 0. -1.
        -11    1    3    3    0    0 -0.36633848877E+01 -0.34893424582E+02 -0.36459168597E+02  0.50598838354E+02  0.00000000000E+00 0.  1.
         11    1    3    3    0    0 -0.15951401946E+02  0.33856703583E+02  0.22610650327E+02  0.43726023255E+02  0.00000000000E+00 0. -1.
</event>
<event>
 7    1  0.6145388E-006  0.1257307E+03  0.7561462E-02  0.1233932E+00
          1   -1    0    0  501    0  0.00000000000E+00  0.00000000000E+00  0.14016933599E+02  0.14016933599E+02  0.00000000000E+00 0. -1.
         -1   -1    0    0    0  501 -0.00000000000E+00 -0.00000000000E+00 -0.19199055570E+04  0.19199055570E+04  0.00000000000E+00 0.  1.
         23    2    1    2    0    0  0.66643157812E+02 -0.39286826422E+02 -0.32453055487E+03  0.34629580590E+03  0.92822082106E+02 0.  0.
          5    1    1    2  502    0 -0.69259028519E+01 -0.36964903920E+02 -0.26287156259E+03  0.26558106685E+03  0.41800000000E+01 0.  1.
         -5    1    1    2    0  502 -0.59717254960E+02  0.76251730342E+02 -0.13184865059E+04  0.13220456178E+04  0.41800000000E+01 0.  1.
        -11    1    3    3    0    0 -0.19933225572E+02  0.32841781377E+01 -0.98270747587E+02  0.10032576508E+03  0.00000000000E+00 0.  1.
         11    1    3    3    0    0  0.86576383384E+02 -0.42571004560E+02 -0.22625980729E+03  0.24597004082E+03  0.00000000000E+00 0. -1.
</event>
<event>
 7    1  0.6145388E-006  0.1307144E+03  0.7561462E-02  0.1226399E+00
          2   -1    0    0  501    0  0.00000000000E+00  0.00000000000E+00  0.46047618293E+03  0.46047618293E+03  0.00000000000E+00 0. -1.
         -2   -1    0    0    0  501 -0.00000000000E+00 -0.00000000000E+00 -0.41862293369E+02  0.41862293369E+02  0.00000000000E+00 0.  1.
         23    2    1    2    0    0  0.81623718959E+02  0.19999399877E+01  0.21750797327E+03  0.25182411819E+03  0.97155734822E+02 0.  0.
          5    1    1    2  502    0 -0.52792845112E+02  0.53180202423E+02  0.59518170833E+02  0.95786760484E+02  0.41800000000E+01 0. -1.
         -5    1    1    2    0  502 -0.28830873848E+02 -0.55180142411E+02  0.14158774546E+03  0.15472759763E+03  0.41800000000E+01 0. -1.
        -11    1    3    3    0    0  0.49405866556E+02 -0.45112986410E+02  0.90168570189E+02  0.11227863663E+03  0.00000000000E+00 0.  1.
         11    1    3    3    0    0  0.32217852404E+02  0.47112926397E+02  0.12733940308E+03  0.13954548156E+03  0.00000000000E+00 0. -1.
</event>
<event>
 7    1  0.6145388E-006  0.2031103E+03  0.7561462E-02  0.1147141E+00
         -1   -1    0    0    0  501 -0.00000000000E+00  0.00000000000E+00  0.97138294455E+02  0.97138294455E+02  0.00000000000E+00 0.  1.
          1   -1    0    0  501    0  0.00000000000E+00 -0.00000000000E+00 -0.53452344389E+03  0.53452344389E+03  0.00000000000E+00 0. -1.
         23    2    1    2    0    0  0.14542935373E+03  0.91602134608E+02 -0.35269598874E+03  0.40283676819E+03  0.91336484171E+02 0.  0.
          5    1    1    2  502    0 -0.13737298308E+03 -0.18226977789E+02 -0.54781544813E+02  0.14907061834E+03  0.41800000000E+01 0.  1.
         -5    1    1    2    0  502 -0.80563706535E+01 -0.73375156819E+02 -0.29907615880E+02  0.79754351818E+02  0.41800000000E+01 0.  1.
        -11    1    3    3    0    0  0.43996442260E+02 -0.15013973704E+02 -0.68240836412E+02  0.82570685429E+02  0.00000000000E+00 0.  1.
         11    1    3    3    0    0  0.10143291147E+03  0.10661610831E+03 -0.28445515233E+03  0.32026608276E+03  0.00000000000E+00 0. -1.
</event>
<event>
 7    1  0.6145388E-006  0.1012527E+03  0.7561462E-02  0.1277684E+00
          2   -1    0    0  501    0  0.00000000000E+00  0.00000000000E+00  0.59775291604E+03  0.59775291604E+03  0.00000000000E+00 0. -1.
         -2   -1    0    0    0  501 -0.00000000000E+00 -0.00000000000E+00 -0.26647044154E+02  0.26647044154E+02  0.00000000000E+00 0.  1.
         23    2    1    2    0    0 -0.52851096233E+02 -0.22880090729E+02  0.33532040544E+03  0.35134480086E+03  0.87673587027E+02 0.  0.
          5    1    1    2  502    0 -0.21882210462E+02  0.11260882194E+02 -0.45699317449E+00  0.24966374292E+02  0.41800000000E+01 0. -1.
         -5    1    1    2    0  502  0.74733306695E+02  0.11619208535E+02  0.23624245962E+03  0.24808878504E+03  0.41800000000E+01 0. -1.
        -11    1    3    3    0    0 -0.41257575623E+02 -0.54363449441E+02  0.18146782861E+03  0.19387662315E+03  0.00000000000E+00 0.  1.
         11    1    3    3    0    0 -0.11593520609E+02  0.31483358712E+02  0.15385257683E+03  0.15746817771E+03  0.00000000000E+00 0. -1.
</event>
<event>
 7    1  0.6145388E-006  0.7572057E+02  0.7561462E-02  0.1341654E+00
          2   -1    0    0  501    0  0.00000000000E+00  0.00000000000E+00  0.84884963246E+02  0.84884963246E+02  0.00000000000E+00 0. -1.
         -2   -1    0    0    0  501 -0.00000000000E+00 -0.00000000000E+00 -0.18893679085E+03  0.18893679085E+03  0.00000000000E+00 0.  1.
         23    2    1    2    0    0 -0.46469202070E+02 -0.46082224292E+02 -0.47607916911E+02  0.12177826222E+03  0.90997105780E+02 0.  0.
          5    1    1    2  502    0  0.12588416839E+02  0.26377954535E+02  0.38921691248E+02  0.48853200239E+02  0.41800000000E+01 0.  1.
         -5    1    1    2    0  502  0.33880785231E+02  0.19704269757E+02 -0.95365601935E+02  0.10319029163E+03  0.41800000000E+01 0.  1.
        -11    1    3    3    0    0 -0.71788005988E+00  0.10054840563E+02 -0.48315133539E+02  0.49355519443E+02  0.00000000000E+00 0.  1.
         11    1    3    3    0    0 -0.45751322010E+02 -0.56137064855E+02  0.70721662813E+00  0.72422742779E+02  0.00000000000E+00 0. -1.
</event>
<event>
 7    1  0.6145388E-006  0.1005337E+03  0.7561462E-02  0.1279178E+00
          2   -1    0    0  501    0  0.00000000000E+00  0.00000000000E+00  0.13483487034E+03  0.13483487034E+03  0.00000000000E+00 0.  1.
         -2   -1    0    0    0  501 -0.00000000000E+00 -0.00000000000E+00 -0.99240302314E+02  0.99240302314E+02  0.00000000000E+00 0. -1.
         23    2    1    2    0    0 -0.24494510751E+02 -0.16446342036E+02  0.36627295430E+02  0.10554628548E+03  0.94488075354E+02 0.  0.
          5    1    1    2  502    0  0.53245404823E+02  0.56374103049E+02 -0.10142357074E+02  0.78316361230E+02  0.41800000000E+01 0.  1.
         -5    1    1    2    0  502 -0.28750894072E+02 -0.39927761013E+02  0.91096296726E+01  0.50212525950E+02  0.41800000000E+01 0.  1.
        -11    1    3    3    0    0  0.17110710683E+02 -0.26205298835E+02  0.51528562385E+02  0.60288364123E+02  0.00000000000E+00 0.  1.
         11    1    3    3    0    0 -0.41605221434E+02  0.97589567997E+01 -0.14901266956E+02  0.45257921354E+02  0.00000000000E+00 0. -1.
</event>
<event>
 7    1  0.6145388E-006  0.1157780E+03  0.7561462E-02  0.1250229E+00
          2   -1    0    0  501    0  0.00000000000E+00  0.00000000000E+00  0.79814839976E+03  0.79814839976E+03  0.00000000000E+00 0. -1.
         -2   -1    0    0    0  501 -0.00000000000E+00 -0.00000000000E+00 -0.21696985692E+02  0.21696985692E+02  0.00000000000E+00 0.  1.
         23    2    1    2    0    0 -0.57349145790E+02  0.47493774371E+02  0.33394192153E+03  0.35400538381E+03  0.90873657816E+02 0.  0.
          5    1    1    2  502    0  0.80398669624E+02 -0.36149665535E+02  0.16504904708E+03  0.18716144030E+03  0.41800000000E+01 0. -1.
         -5    1    1    2    0  502 -0.23049523835E+02 -0.11344108837E+02  0.27746044545E+03  0.27867856133E+03  0.41800000000E+01 0. -1.
        -11    1    3    3    0    0  0.18510559490E+02  0.36096893728E+02  0.10569580763E+03  0.11321320727E+03  0.00000000000E+00 0.  1.
         11    1    3    3    0    0 -0.75859705279E+02  0.11396880643E+02  0.22824611390E+03  0.24079217655E+03  0.00000000000E+00 0. -1.
</event>
<event>
 7    1  0.6145388E-006  0.1334619E+03  0.7561462E-02  0.1222407E+00
         -3   -1    0    0    0  501 -0.00000000000E+00  0.00000000000E+00  0.14993912318E+03  0.14993912318E+03  0.00000000000E+00 0.  1.
          3   -1    0    0  501    0  0.00000000000E+00 -0.00000000000E+00 -0.21490455772E+03  0.21490455772E+03  0.00000000000E+00 0. -1.
         23    2    1    2    0    0  0.11940751856E+03  0.96975421563E+00 -0.10908255483E+03  0.18636992439E+03  0.92604800299E+02 0.  0.
          5    1    1    2  502    0 -0.73591692034E+02  0.72782853832E+01  0.87543553508E+02  0.11467369679E+03  0.41800000000E+01 0. -1.
         -5    1    1    2    0  502 -0.45815826526E+02 -0.82480395988E+01 -0.43426433223E+02  0.63800059718E+02  0.41800000000E+01 0. -1.
        -11    1    3    3    0    0  0.17440902275E+02  0.34599093320E+02 -0.51763931750E+02  0.64659005258E+02  0.00000000000E+00 0.  1.
         11    1    3    3    0    0  0.10196661628E+03 -0.33629339104E+02 -0.57318623081E+02  0.12171091914E+03  0.00000000000E+00 0. -1.
</event>
<event>
 7    1  0.6145388E-006  0.8349342E+02  0.7561462E-02  0.1319420E+00
          3   -1    0    0  501    0  0.00000000000E+00  0.00000000000E+00  0.24717850194E+03  0.24717850194E+03  0.00000000000E+00 0. -1.
         -3   -1    0    0    0  501 -0.00000000000E+00 -0.00000000000E+00 -0.52508160107E+02  0.52508160107E+02  0.00000000000E+00 0.  1.
         23    2    1    2    0    0 -0.97344682105E+01 -0.83906572156E+01  0.12671015596E+03  0.15674727964E+03  0.91373316954E+02 0.  0.
          5    1    1    2  502    0 -0.11967593220E+02 -0.47624643721E+02 -0.35995867055E+01  0.49414161953E+02  0.41800000000E+01 0.  1.
         -5    1    1    2    0  502  0.21702061430E+02  0.56015300937E+02  0.71559772576E+02  0.93525220451E+02  0.41800000000E+01 0.  1.
        -11    1    3    3    0    0  0.16996256273E+02 -0.21749970961E+02  0.12366634841E+03  0.12670950909E+03  0.00000000000E+00 0. -1.
         11    1    3    3    0    0 -0.26730724484E+02  0.13359313746E+02  0.30438075466E+01  0.30037770549E+02  0.00000000000E+00 0.  1.
</event>
<event>
 7    1  0.6145388E-006  0.1439115E+03  0.7561462E-02  0.1208161E+00
          1   -1    0    0  501    0  0.00000000000E+00  0.00000000000E+00  0.19914882305E+03  0.19914882305E+03  0.00000000000E+00 0. -1.
         -1   -1    0    0    0  501 -0.00000000000E+00 -0.00000000000E+00 -0.13290194704E+03  0.13290194704E+03  0.00000000000E+00 0.  1.
         23    2    1    2    0    0  0.10144752921E+03 -0.59993159849E+02  0.56707043932E+02  0.15991944659E+03  0.92020433357E+02 0.  0.
          5    1    1    2  502    0 -0.12713184066E+03  0.31207258217E+02  0.18589940567E+02  0.13228551004E+03  0.41800000000E+01 0. -1.
         -5    1    1    2    0  502  0.25684311454E+02  0.28785901632E+02 -0.90501084880E+01  0.39845813472E+02  0.41800000000E+01 0. -1.
        -11    1    3    3    0    0  0.78724948954E+02 -0.43269464421E+02 -0.71408432406E+01  0.90115790965E+02  0.00000000000E+00 0.  1.
         11    1    3    3    0    0  0.22722580253E+02 -0.16723695428E+02  0.63847887173E+02  0.69803655624E+02  0.00000000000E+00 0. -1.
</event>
