<event>
 7    1  0.1068210E-005  0.8238396E+02  0.7561462E-02  0.1322419E+00
          1   -1    0    0  501    0  0.00000000000E+00  0.00000000000E+00  0.88581261924E+03  0.88581261924E+03  0.00000000000E+00 0. -1.
         -1   -1    0    0    0  501 -0.00000000000E+00 -0.00000000000E+00 -0.13823664632E+02  0.13823664632E+02  0.00000000000E+00 0.  1.
         23    2    1    2    0    0  0.11508394321E+01 -0.22977273326E+02  0.46979729071E+03  0.48670913730E+03  0.12508801080E+03 0.  0.
          5    1    3    3  502    0  0.34256986229E+02  0.44558668947E+01  0.33579117634E+02  0.48357268289E+02  0.41800000000E+01 0. -1.
         -5    1    3    3    0  502 -0.33106146797E+02 -0.27433140221E+02  0.43621817308E+03  0.43835186901E+03  0.41800000000E+01 0. -1.
        -11    1    1    2    0    0  0.13678766770E+02 -0.29351767399E+02  0.82246616104E+02  0.88391972319E+02  0.00000000000E+00 0.  1.
         11    1    1    2    0    0 -0.14829606202E+02  0.52329040725E+02  0.31994504779E+03  0.32453517425E+03  0.00000000000E+00 0. -1.
</event>
<event>
 7    1  0.1068210E-005  0.1016691E+03  0.7561462E-02  0.1276825E+00
         -3   -1    0    0    0  501 -0.00000000000E+00  0.00000000000E+00  0.74007056154E+02  0.74007056154E+02  0.00000000000E+00 0.  1.
          3   -1    0    0  501    0  0.00000000000E+00 -0.00000000000E+00 -0.17232430613E+03  0.17232430613E+03  0.00000000000E+00 0. -1.
         23    2    1    2    0    0 -0.16303911071E+02 -0.54227590888E+01 -0.24052503927E+02  0.12853495425E+03  0.12508991840E+03 0.  0.
          5    1    3    3  502    0  0.43803148060E+02 -0.22920545840E+02  0.18250646999E+02  0.52864219634E+02  0.41800000000E+01 0.  1.
         -5    1    3    3    0  502 -0.60107059131E+02  0.17497786751E+02 -0.42303150926E+02  0.75670734613E+02  0.41800000000E+01 0.  1.
        -11    1    1    2    0    0  0.19600892497E+02  0.46140787755E+02 -0.35048700352E+02  0.61168445114E+02  0.00000000000E+00 0.  1.
         11    1    1    2    0    0 -0.32969814260E+01 -0.40718028666E+02 -0.39216045700E+02  0.56627962928E+02  0.00000000000E+00 0. -1.
</event>
<event>
 7    1  0.1068210E-005  0.3059959E+03  0.7561462E-02  0.1082281E+00
          2   -1    0    0  501    0  0.00000000000E+00  0.00000000000E+00  0.67488694214E+03  0.67488694214E+03  0.00000000000E+00 0. -1.
         -2   -1    0    0    0  501 -0.00000000000E+00 -0.00000000000E+00 -0.16594045167E+03  0.16594045167E+03  0.00000000000E+00 0.  1.
         23    2    1    2    0    0 -0.26847093252E+03 -0.11920598426E+03  0.11150985371E+03  0.33818129352E+03  0.12508169940E+03 0.  0.
          5    1    3    3  502    0  0.12669846339E+02 -0.97306277493E+01  0.29157848180E-01  0.16513127288E+02  0.41800000000E+01 0.  1.
         -5    1    3    3    0  502 -0.28114077886E+03 -0.10947535651E+03  0.11148069586E+03  0.32166816624E+03  0.41800000000E+01 0.  1.
        -11    1    1    2    0    0  0.47819248639E+02  0.21072706782E+02  0.14113519769E+03  0.15049878252E+03  0.00000000000E+00 0. -1.
         11    1    1    2    0    0  0.22065168388E+03  0.98133277481E+02  0.25630143907E+03  0.35214731777E+03  0.00000000000E+00 0.  1.
</event>
<event>
 7    1  0.1068210E-005  0.8482984E+02  0.7561462E-02  0.1315878E+00
         -2   -1    0    0    0  501 -0.00000000000E+00  0.00000000000E+00  0.62185485302E+02  0.62185485302E+02  0.00000000000E+00 0.  1.
          2   -1    0    0  501    0  0.00000000000E+00 -0.00000000000E+00 -0.22605128647E+03  0.22605128647E+03  0.00000000000E+00 0. -1.
         23    2    1    2    0    0  0.11921541356E+02 -0.32499825911E+02 -0.55723007092E+02  0.14123622698E+03  0.12507700212E+03 0.  0.
          5    1    3    3  502    0 -0.34274005947E+02  0.22616628384E+02  0.11350147237E+02  0.42807915219E+02  0.41800000000E+01 0.  1.
         -5    1    3    3    0  502  0.46195547303E+02 -0.55116454295E+02 -0.67073154329E+02  0.98428311762E+02  0.41800000000E+01 0.  1.
        -11    1    1    2    0    0 -0.24407550788E+02  0.33511001660E+01  0.85484343199E+01  0.26077464162E+02  0.00000000000E+00 0.  1.
         11    1    1    2    0    0  0.12486009432E+02  0.29148725745E+02 -0.11669122840E+03  0.12092308063E+03  0.00000000000E+00 0. -1.
</event>
<event>
 7    1  0.1068210E-005  0.1273754E+03  0.7561462E-02  0.1231403E+00
         -2   -1    0    0    0  501 -0.00000000000E+00  0.00000000000E+00  0.18487178451E+02  0.18487178451E+02  0.00000000000E+00 0.  1.
          2   -1    0    0  501    0  0.00000000000E+00 -0.00000000000E+00 -0.11319314131E+04  0.11319314131E+04  0.00000000000E+00 0. -1.
         23    2    1    2    0    0 -0.91000298146E+02 -0.44274754026E+02 -0.55896498149E+03  0.57943302472E+03  0.11427804468E+03 0.  0.
          5    1    3    3  502    0 -0.33150186253E+02 -0.51916927359E+02 -0.46258755450E+03  0.46668942582E+03  0.41800000000E+01 0. -1.
         -5    1    3    3    0  502 -0.57850111893E+02  0.76421733335E+01 -0.96377426996E+02  0.11274359890E+03  0.41800000000E+01 0.  1.
        -11    1    1    2    0    0 -0.17649518444E+02  0.11334047453E+02 -0.57594110544E+02  0.61294760806E+02  0.00000000000E+00 0.  1.
         11    1    1    2    0    0  0.10864981659E+03  0.32940706573E+02 -0.49688514260E+03  0.50969080601E+03  0.00000000000E+00 0. -1.
</event>
<event>
 7    1  0.1068210E-005  0.9300208E+02  0.7561462E-02  0.1295740E+00
          1   -1    0    0  501    0  0.00000000000E+00  0.00000000000E+00  0.56396331538E+02  0.56396331538E+02  0.00000000000E+00 0. -1.
         -1   -1    0    0    0  501 -0.00000000000E+00 -0.00000000000E+00 -0.24653607531E+03  0.24653607531E+03  0.00000000000E+00 0.  1.
         23    2    1    2    0    0  0.29805936026E+02 -0.27741183213E+02 -0.13272788717E+03  0.18687513400E+03  0.12509059359E+03 0.  0.
          5    1    3    3  502    0  0.43422103720E+02  0.21054727089E+02 -0.41520752376E+01  0.48615766507E+02  0.41800000000E+01 0.  1.
         -5    1    3    3    0  502 -0.13616167695E+02 -0.48795910303E+02 -0.12857581193E+03  0.13825936749E+03  0.41800000000E+01 0.  1.
        -11    1    1    2    0    0 -0.16978817209E+02  0.54487010809E+02 -0.63918352006E+02  0.85689382678E+02  0.00000000000E+00 0.  1.
         11    1    1    2    0    0 -0.12827118817E+02 -0.26745827595E+02  0.65064954057E+01  0.30367890170E+02  0.00000000000E+00 0. -1.
</event>
<event>
 7    1  0.1068210E-005  0.1153137E+03  0.7561462E-02  0.1251035E+00
         -1   -1    0    0    0  501 -0.00000000000E+00  0.00000000000E+00  0.74246782382E+02  0.74246782382E+02  0.00000000000E+00 0.  1.
          1   -1    0    0  501    0  0.00000000000E+00 -0.00000000000E+00 -0.28343732732E+03  0.28343732732E+03  0.00000000000E+00 0. -1.
         23    2    1    2    0    0  0.16213998497E+02  0.68177405167E+02 -0.31100372309E+02  0.14671911487E+03  0.12509281830E+03 0.  0.
          5    1    3    3  502    0 -0.29108657493E+02  0.65693583314E+02 -0.59180607174E+02  0.93181422479E+02  0.41800000000E+01 0. -1.
         -5    1    3    3    0  502  0.45322655990E+02  0.24838218535E+01  0.28080234865E+02  0.53537692396E+02  0.41800000000E+01 0. -1.
        -11    1    1    2    0    0  0.26935440402E+02 -0.64338811284E+02 -0.11196360752E+03  0.13191228144E+03  0.00000000000E+00 0.  1.
         11    1    1    2    0    0 -0.43149438898E+02 -0.38385938829E+01 -0.66126565112E+02  0.79052713386E+02  0.00000000000E+00 0. -1.
</event>
<event>
 7    1  0.1068210E-005  0.1279943E+03  0.7561462E-02  0.1230463E+00
         -2   -1    0    0    0  501 -0.00000000000E+00  0.00000000000E+00  0.13599383883E+03  0.13599383883E+03  0.00000000000E+00 0.  1.
          2   -1    0    0  501    0  0.00000000000E+00 -0.00000000000E+00 -0.13498810430E+03  0.13498810430E+03  0.00000000000E+00 0. -1.
         23    2    1    2    0    0  0.88870462889E+01  0.77731371385E+02  0.28075162126E+01  0.14755834906E+03  0.12507773000E+03 0.  0.
          5    1    3    3  502    0 -0.61996554857E+01 -0.26331581552E+02  0.28204289727E+02  0.39303209464E+02  0.41800000000E+01 0.  1.
         -5    1    3    3    0  502  0.15086701775E+02  0.10406295294E+03 -0.25396773514E+02  0.10825513960E+03  0.41800000000E+01 0.  1.
        -11    1    1    2    0    0 -0.36227386549E+02  0.47036100432E+01 -0.17428785684E+01  0.36573010668E+02  0.00000000000E+00 0.  1.
         11    1    1    2    0    0  0.27340340260E+02 -0.82434981428E+02 -0.58903116421E-01  0.86850583407E+02  0.00000000000E+00 0. -1.
</event>
<event>
 7    1  0.1068210E-005  0.1212649E+03  0.7561462E-02  0.1241025E+00
         -1   -1    0    0    0  501 -0.00000000000E+00  0.00000000000E+00  0.13545413991E+04  0.13545413991E+04  0.00000000000E+00 0.  1.
          1   -1    0    0  501    0  0.00000000000E+00 -0.00000000000E+00 -0.17275391176E+02  0.17275391176E+02  0.00000000000E+00 0. -1.
         23    2    1    2    0    0  0.41755883788E+02 -0.43494478478E+02  0.11152604486E+04  0.11238722108E+04  0.12509018547E+03 0.  0.
          5    1    3    3  502    0  0.54633258206E+02  0.27897597863E+02  0.36958954987E+03  0.37466915624E+03  0.41800000000E+01 0.  1.
         -5    1    3    3    0  502 -0.12877374417E+02 -0.71392076341E+02  0.74567089877E+03  0.74920305459E+03  0.41800000000E+01 0.  1.
        -11    1    1    2    0    0  0.58265819472E+00 -0.26537503158E+02  0.35956648386E+02  0.44692942704E+02  0.00000000000E+00 0. -1.
         11    1    1    2    0    0 -0.42338541983E+02  0.70031981636E+02  0.18604891090E+03  0.20325163673E+03  0.00000000000E+00 0.  1.
</event>
<event>
 7    1  0.1068210E-005  0.1230181E+03  0.7561462E-02  0.1238200E+00
         -2   -1    0    0    0  501 -0.00000000000E+00  0.00000000000E+00  0.59162204930E+02  0.59162204930E+02  0.00000000000E+00 0.  1.
          2   -1    0    0  501    0  0.00000000000E+00 -0.00000000000E+00 -0.26372413158E+03  0.26372413158E+03  0.00000000000E+00 0. -1.
         23    2    1    2    0    0 -0.66355032403E+02  0.81447555726E+01 -0.11910245281E+03  0.18521206803E+03  0.12509511785E+03 0.  0.
          5    1    3    3  502    0  0.35975968928E+02  0.27033827181E+01 -0.15681076633E+02  0.39559413327E+02  0.41800000000E+01 0. -1.
         -5    1    3    3    0  502 -0.10233100133E+03  0.54413728545E+01 -0.10342137618E+03  0.14565265471E+03  0.41800000000E+01 0. -1.
        -11    1    1    2    0    0  0.48561439705E+01 -0.38338952277E+02 -0.38943881510E+02  0.54864226077E+02  0.00000000000E+00 0.  1.
         11    1    1    2    0    0  0.61498888433E+02  0.30194196704E+02 -0.46515592328E+02  0.82810042403E+02  0.00000000000E+00 0. -1.
</event>
<event>
 7    1  0.1068210E-005  0.6718223E+02  0.7561462E-02  0.1369946E+00
          2   -1    0    0  501    0  0.00000000000E+00  0.00000000000E+00  0.69484091583E+03  0.69484091583E+03  0.00000000000E+00 0.  1.
         -2   -1    0    0    0  501 -0.00000000000E+00 -0.00000000000E+00 -0.15269665556E+02  0.15269665556E+02  0.00000000000E+00 0. -1.
         23    2    1    2    0    0 -0.20866947747E+02 -0.14080052106E+02  0.38705324317E+03  0.40354222836E+03  0.11136624105E+03 0.  0.
          5    1    3    3  502    0 -0.25442948312E+00 -0.22888736929E+02  0.92314763731E+01  0.25033009579E+02  0.41800000000E+01 0. -1.
         -5    1    3    3    0  502 -0.20612518264E+02  0.88086848228E+01  0.37782176679E+03  0.37850921878E+03  0.41800000000E+01 0.  1.
        -11    1    1    2    0    0 -0.32446272407E+02 -0.22809758891E+01  0.15090006431E+03  0.15436577617E+03  0.00000000000E+00 0.  1.
         11    1    1    2    0    0  0.53313220154E+02  0.16361027995E+02  0.14161794280E+03  0.15220257686E+03  0.00000000000E+00 0. -1.
</event>
<event>
 7    1  0.1068210E-005  0.9373081E+02  0.7561462E-02  0.1294060E+00
          2   -1    0    0  501    0  0.00000000000E+00  0.00000000000E+00  0.65738960792E+02  0.65738960792E+02  0.00000000000E+00 0. -1.
         -2   -1    0    0    0  501 -0.00000000000E+00 -0.00000000000E+00 -0.20993341197E+03  0.20993341197E+03  0.00000000000E+00 0.  1.
         23    2    1    2    0    0  0.40813413039E+01  0.42830034814E+01 -0.13573646460E+03  0.18467891924E+03  0.12508762498E+03 0.  0.
          5    1    3    3  502    0 -0.22611056092E+02  0.57187961400E+02 -0.45368443447E+02  0.76534246240E+02  0.41800000000E+01 0. -1.
         -5    1    3    3    0  502  0.26692397396E+02 -0.52904957919E+02 -0.90368021150E+02  0.10814467300E+03  0.41800000000E+01 0. -1.
        -11    1    1    2    0    0 -0.14690181038E+02 -0.32829033893E+02  0.26467761825E+02  0.44655227032E+02  0.00000000000E+00 0. -1.
         11    1    1    2    0    0  0.10608839735E+02  0.28546030412E+02 -0.34925748404E+02  0.46338226491E+02  0.00000000000E+00 0.  1.
</event>
<event>
 7    1  0.1068210E-005  0.2307510E+03  0.7561462E-02  0.1126112E+00
          4   -1    0    0  501    0  0.00000000000E+00  0.00000000000E+00  0.77699164743E+02  0.77699164743E+02  0.00000000000E+00 0. -1.
         -4   -1    0    0    0  501 -0.00000000000E+00 -0.00000000000E+00 -0.76655633060E+03  0.76655633060E+03  0.00000000000E+00 0.  1.
         23    2    1    2    0    0  0.11373108438E+03  0.18384341959E+03 -0.40067126513E+03  0.47214224681E+03  0.12509067129E+03 0.  0.
          5    1    3    3  502    0  0.10275416092E+03  0.56350409886E+02 -0.14746718451E+03  0.18840867599E+03  0.41800000000E+01 0. -1.
         -5    1    3    3    0  502  0.10976923467E+02  0.12749300970E+03 -0.25320408062E+03  0.28373357083E+03  0.41800000000E+01 0. -1.
        -11    1    1    2    0    0 -0.73753045242E+02 -0.12216008324E+03 -0.25334516166E+03  0.29076858248E+03  0.00000000000E+00 0.  1.
         11    1    1    2    0    0 -0.39978039142E+02 -0.61683336346E+02 -0.34840739067E+02  0.81344666052E+02  0.00000000000E+00 0. -1.
</event>
<event>
 7    1  0.1068210E-005  0.1481935E+03  0.7561462E-02  0.1202711E+00
         -2   -1    0    0    0  501 -0.00000000000E+00  0.00000000000E+00  0.61105399622E+03  0.61105399622E+03  0.00000000000E+00 0.  1.
          2   -1    0    0  501    0  0.00000000000E+00 -0.00000000000E+00 -0.38658599316E+02  0.38658599316E+02  0.00000000000E+00 0. -1.
         23    2    1    2    0    0 -0.84450224711E+02 -0.67019911907E+02  0.36310576932E+03  0.39889471616E+03  0.12509071039E+03 0.  0.
          5    1    3    3  502    0 -0.93687378834E+02  0.96763089103E+00  0.24359619604E+03  0.26102651280E+03  0.41800000000E+01 0.  1.
         -5    1    3    3    0  502  0.92371541239E+01 -0.67987542798E+02  0.11950957328E+03  0.13786820336E+03  0.41800000000E+01 0.  1.
        -11    1    1    2    0    0  0.21546090096E+02 -0.18017867642E+02  0.73559806517E+02  0.78739587805E+02  0.00000000000E+00 0. -1.
         11    1    1    2    0    0  0.62904134614E+02  0.85037779548E+02  0.13572982107E+03  0.17207829157E+03  0.00000000000E+00 0.  1.
</event>
<event>
 7    1  0.1068210E-005  0.9098065E+02  0.7561462E-02  0.1300494E+00
          4   -1    0    0  501    0  0.00000000000E+00  0.00000000000E+00  0.14629925344E+02  0.14629925344E+02  0.00000000000E+00 0. -1.
         -4   -1    0    0    0  501 -0.00000000000E+00 -0.00000000000E+00 -0.10784635879E+04  0.10784635879E+04  0.00000000000E+00 0.  1.
         23    2    1    2    0    0 -0.30392674399E+01 -0.13551931912E+02 -0.85820322993E+03  0.86738316950E+03  0.12509151396E+03 0.  0.
          5    1    3    3  502    0  0.42186809437E+02 -0.48447608655E+01 -0.72730939364E+03  0.72855996670E+03  0.41800000000E+01 0.  1.
         -5    1    3    3    0  502 -0.45226076877E+02 -0.87071710462E+01 -0.13089383629E+03  0.13882320280E+03  0.41800000000E+01 0.  1.
        -11    1    1    2    0    0 -0.40762226309E+02 -0.11801315245E+02 -0.91458343798E+02  0.10082389987E+03  0.00000000000E+00 0. -1.
         11    1    1    2    0    0  0.43801493749E+02  0.25353247157E+02 -0.11417208885E+03  0.12488644390E+03  0.00000000000E+00 0.  1.
</event>
<event>
 7    1  0.1068210E-005  0.1047671E+03  0.7561462E-02  0.1270579E+00
         -1   -1    0    0    0  501 -0.00000000000E+00  0.00000000000E+00  0.86590223809E+02  0.86590223809E+02  0.00000000000E+00 0.  1.
          1   -1    0    0  501    0  0.00000000000E+00 -0.00000000000E+00 -0.15321687582E+03  0.15321687582E+03  0.00000000000E+00 0. -1.
         23    2    1    2    0    0  0.30613258404E+02 -0.22425426639E+02 -0.23018020649E+02  0.13273200890E+03  0.12509150876E+03 0.  0.
          5    1    3    3  502    0 -0.44813402814E+02 -0.28445997406E+02 -0.20044573287E+02  0.56891767053E+02  0.41800000000E+01 0. -1.
         -5    1    3    3    0  502  0.75426661218E+02  0.60205707664E+01 -0.29734473612E+01  0.75840241851E+02  0.41800000000E+01 0. -1.
        -11    1    1    2    0    0 -0.20976490280E+00  0.43509420044E+02  0.73243761910E+01  0.44122104669E+02  0.00000000000E+00 0.  1.
         11    1    1    2    0    0 -0.30403493501E+02 -0.21083993404E+02 -0.50933007558E+02  0.62952986060E+02  0.00000000000E+00 0. -1.
</event>
<event>
 7    1  0.1068210E-005  0.3102840E+03  0.7561462E-02  0.1080210E+00
          2   -1    0    0  501    0  0.00000000000E+00  0.00000000000E+00  0.11964921421E+04  0.11964921421E+04  0.00000000000E+00 0. -1.
         -2   -1    0    0    0  501 -0.00000000000E+00 -0.00000000000E+00 -0.94037740297E+02  0.94037740297E+02  0.00000000000E+00 0.  1.
         23    2    1    2    0    0  0.16299700452E+03  0.25331269768E+03  0.36998337875E+03  0.49322340404E+03  0.12508508885E+03 0.  0.
          5    1    3    3  502    0  0.11125258673E+03  0.12595869728E+03  0.28696876230E+03  0.33258273318E+03  0.41800000000E+01 0. -1.
         -5    1    3    3    0  502  0.51744417798E+02  0.12735400039E+03  0.83014616452E+02  0.16064067086E+03  0.41800000000E+01 0. -1.
        -11    1    1    2    0    0 -0.60011674624E+02 -0.17659276127E+03  0.43537823001E+03  0.47364607841E+03  0.00000000000E+00 0.  1.
         11    1    1    2    0    0 -0.10298532990E+03 -0.76719936404E+02  0.29709279302E+03  0.32366039993E+03  0.00000000000E+00 0. -1.
</event>
<event>
 7    1  0.1068210E-005  0.1194346E+03  0.7561462E-02  0.1244033E+00
          1   -1    0    0  501    0  0.00000000000E+00  0.00000000000E+00  0.60639820098E+02  0.60639820098E+02  0.00000000000E+00 0. -1.
         -1   -1    0    0    0  501 -0.00000000000E+00 -0.00000000000E+00 -0.30851567749E+03  0.30851567749E+03  0.00000000000E+00 0.  1.
         23    2    1    2    0    0 -0.89756757059E+02 -0.26796596649E+01 -0.15975849584E+03  0.21532810074E+03  0.11304847616E+03 0.  0.
          5    1    3    3  502    0 -0.71539964279E+02 -0.54014168201E+02 -0.99982932825E+02  0.13434863643E+03  0.41800000000E+01 0. -1.
         -5    1    3    3    0  502 -0.18216792780E+02  0.51334508536E+02 -0.59775563014E+02  0.80979464307E+02  0.41800000000E+01 0.  1.
        -11    1    1    2    0    0  0.85301906275E+01 -0.90433210212E+01 -0.68271002535E+02  0.69393627909E+02  0.00000000000E+00 0.  1.
         11    1    1    2    0    0  0.81226566431E+02  0.11722980686E+02 -0.19846359016E+02  0.84433768935E+02  0.00000000000E+00 0. -1.
</event>
<event>
 7    1  0.1068210E-005  0.9422668E+02  0.7561462E-02  0.1292927E+00
         -1   -1    0    0    0  501 -0.00000000000E+00  0.00000000000E+00  0.14190594433E+03  0.14190594433E+03  0.00000000000E+00 0.  1.
          1   -1    0    0  501    0  0.00000000000E+00 -0.00000000000E+00 -0.10141855599E+03  0.10141855599E+03  0.00000000000E+00 0. -1.
         23    2    1    2    0    0  0.22042713266E+02  0.44130269423E+02  0.33437809556E+02  0.13852065514E+03  0.12504608312E+03 0.  0.
          5    1    3    3  502    0  0.43271990759E+02 -0.20828077862E+02 -0.19474673449E+02  0.51990473335E+02  0.41800000000E+01 0. -1.
         -5    1    3    3    0  502 -0.21229277492E+02  0.64958347285E+02  0.52912483005E+02  0.86530181801E+02  0.41800000000E+01 0. -1.
        -11    1    1    2    0    0 -0.37868704207E+02 -0.40690418883E+02 -0.30861616592E+02  0.63578206375E+02  0.00000000000E+00 0. -1.
         11    1    1    2    0    0  0.15825990941E+02 -0.34398505393E+01  0.37911195372E+02  0.41225638813E+02  0.00000000000E+00 0.  1.
</event>
<event>
 7    1  0.1068210E-005  0.1175707E+03  0.7561462E-02  0.1247159E+00
         -1   -1    0    0    0  501 -0.00000000000E+00  0.00000000000E+00  0.66736229155E+02  0.66736229155E+02  0.00000000000E+00 0.  1.
          1   -1    0    0  501    0  0.00000000000E+00 -0.00000000000E+00 -0.28566416463E+03  0.28566416463E+03  0.00000000000E+00 0. -1.
         23    2    1    2    0    0  0.16585629416E+02  0.64831798632E+02 -0.51850757264E+02  0.15104316652E+03  0.12508913585E+03 0.  0.
          5    1    3    3  502    0  0.59094410090E+02  0.51496656541E+02  0.50473056876E+01  0.78657502080E+02  0.41800000000E+01 0. -1.
         -5    1    3    3    0  502 -0.42508780674E+02  0.13335142091E+02 -0.56898062951E+02  0.72385664441E+02  0.41800000000E+01 0. -1.
        -11    1    1    2    0    0  0.37040626893E+02 -0.20591493230E+02 -0.72508272471E+02  0.83984922520E+02  0.00000000000E+00 0. -1.
         11    1    1    2    0    0 -0.53626256309E+02 -0.44240305402E+02 -0.94568905739E+02  0.11737230474E+03  0.00000000000E+00 0.  1.
</event>
<event>
 7    1  0.1068210E-005  0.9194063E+02  0.7561462E-02  0.1298219E+00
         -2   -1    0    0    0  501 -0.00000000000E+00  0.00000000000E+00  0.41954353378E+03  0.41954353378E+03  0.00000000000E+00 0.  1.
          2   -1    0    0  501    0  0.00000000000E+00 -0.00000000000E+00 -0.40150104320E+02  0.40150104320E+02  0.00000000000E+00 0. -1.
         23    2    1    2    0    0 -0.54044730276E+02 -0.44267274066E+02  0.23680645418E+03  0.27676464536E+03  0.12506377476E+03 0.  0.
          5    1    3    3  502    0  0.81353085439E+01  0.10071598850E+02 -0.97340581822E+01  0.16728557535E+02  0.41800000000E+01 0.  1.
         -5    1    3    3    0  502 -0.62180038820E+02 -0.54338872917E+02  0.24654051236E+03  0.26003608783E+03  0.41800000000E+01 0.  1.
        -11    1    1    2    0    0  0.23245302343E+02 -0.99126977717E+01  0.10948029701E+03  0.11235898314E+03  0.00000000000E+00 0.  1.
         11    1    1    2    0    0  0.30799427933E+02  0.54179971838E+02  0.33106678277E+02  0.70570009607E+02  0.00000000000E+00 0. -1.
</event>
<event>
 7    1  0.1068210E-005  0.1147729E+03  0.7561462E-02  0.1251978E+00
         -1   -1    0    0    0  501 -0.00000000000E+00  0.00000000000E+00  0.17582160572E+04  0.17582160572E+04  0.00000000000E+00 0.  1.
          1   -1    0    0  501    0  0.00000000000E+00 -0.00000000000E+00 -0.11580097956E+02  0.11580097956E+02  0.00000000000E+00 0. -1.
         23    2    1    2    0    0  0.26960903728E+02 -0.61164382400E+02  0.13529630793E+04  0.13603736969E+04  0.12505810337E+03 0.  0.
          5    1    3    3  502    0 -0.92922687111E+01  0.35764691842E+02  0.43484209379E+03  0.43642935095E+03  0.41800000000E+01 0. -1.
         -5    1    3    3    0  502  0.36253172439E+02 -0.96929074241E+02  0.91812098556E+03  0.92394434598E+03  0.41800000000E+01 0. -1.
        -11    1    1    2    0    0  0.18698699610E+02  0.17756630988E+02  0.26843501445E+02  0.37222478168E+02  0.00000000000E+00 0. -1.
         11    1    1    2    0    0 -0.45659603338E+02  0.43407751412E+02  0.36682937840E+03  0.37219998001E+03  0.00000000000E+00 0.  1.
</event>
<event>
 7    1  0.1068210E-005  0.1141173E+03  0.7561462E-02  0.1253130E+00
         -4   -1    0    0    0  501 -0.00000000000E+00  0.00000000000E+00  0.20591567179E+03  0.20591567179E+03  0.00000000000E+00 0.  1.
          4   -1    0    0  501    0  0.00000000000E+00 -0.00000000000E+00 -0.11898763886E+03  0.11898763886E+03  0.00000000000E+00 0. -1.
         23    2    1    2    0    0  0.94922275182E+02 -0.40275372309E+01  0.10886340899E+03  0.19111579465E+03  0.12509015056E+03 0.  0.
          5    1    3    3  502    0 -0.56952000492E+01  0.24350125685E+02  0.78022584957E+02  0.82038771858E+02  0.41800000000E+01 0. -1.
         -5    1    3    3    0  502  0.10061747523E+03 -0.28377662916E+02  0.30840824036E+02  0.10907702279E+03  0.41800000000E+01 0. -1.
        -11    1    1    2    0    0 -0.13544727224E+02 -0.83928133473E+01  0.31739433380E+02  0.35514653071E+02  0.00000000000E+00 0.  1.
         11    1    1    2    0    0 -0.81377547958E+02  0.12420350578E+02 -0.53674809444E+02  0.98272862932E+02  0.00000000000E+00 0. -1.
</event>
<event>
 7    1  0.1068210E-005  0.1576391E+03  0.7561462E-02  0.1191388E+00
         -2   -1    0    0    0  501 -0.00000000000E+00  0.00000000000E+00  0.67115892548E+03  0.67115892548E+03  0.00000000000E+00 0.  1.
          2   -1    0    0  501    0  0.00000000000E+00 -0.00000000000E+00 -0.42133096151E+02  0.42133096151E+02  0.00000000000E+00 0. -1.
         23    2    1    2    0    0  0.86595494940E+02 -0.92682928878E+02  0.37721862159E+03  0.41611502178E+03  0.12152743653E+03 0.  0.
          5    1    3    3  502    0  0.65931169744E+02 -0.29618330491E+01  0.74209642476E+02  0.99399371402E+02  0.41800000000E+01 0. -1.
         -5    1    3    3    0  502  0.20664325197E+02 -0.89721095829E+02  0.30300897911E+03  0.31671565038E+03  0.41800000000E+01 0.  1.
        -11    1    1    2    0    0 -0.83837861905E+02  0.22578660892E+02  0.12393195232E+03  0.15131989896E+03  0.00000000000E+00 0.  1.
         11    1    1    2    0    0 -0.27576330350E+01  0.70104267985E+02  0.12787525542E+03  0.14585710088E+03  0.00000000000E+00 0. -1.
</event>
<event>
 7    1  0.1068210E-005  0.1053298E+03  0.7561462E-02  0.1269471E+00
         -1   -1    0    0    0  501 -0.00000000000E+00  0.00000000000E+00  0.85470512098E+02  0.85470512098E+02  0.00000000000E+00 0.  1.
          1   -1    0    0  501    0  0.00000000000E+00 -0.00000000000E+00 -0.17823719566E+03  0.17823719566E+03  0.00000000000E+00 0. -1.
         23    2    1    2    0    0 -0.34304573287E+02  0.39231695571E+02 -0.21156019373E+02  0.13715138718E+03  0.12508795372E+03 0.  0.
          5    1    3    3  502    0 -0.68875772622E+02  0.24217036809E+01 -0.43677445037E+02  0.81700234442E+02  0.41800000000E+01 0. -1.
         -5    1    3    3    0  502  0.34571199335E+02  0.36809991890E+02  0.22521425664E+02  0.55451152741E+02  0.41800000000E+01 0. -1.
        -11    1    1    2    0    0 -0.11711097201E+02  0.15506990388E+02  0.66554805865E+01  0.20540495865E+02  0.00000000000E+00 0. -1.
         11    1    1    2    0    0  0.46015670488E+02 -0.54738685959E+02 -0.78266144780E+02  0.10601582471E+03  0.00000000000E+00 0.  1.
</event>
<event>
 7    1  0.1068210E-005  0.9607199E+02  0.7561462E-02  0.1288780E+00
          1   -1    0    0  501    0  0.00000000000E+00  0.00000000000E+00  0.28572865677E+03  0.28572865677E+03  0.00000000000E+00 0. -1.
         -1   -1    0    0    0  501 -0.00000000000E+00 -0.00000000000E+00 -0.51516386591E+02  0.51516386591E+02  0.00000000000E+00 0.  1.
         23    2    1    2    0    0 -0.38824475022E+02  0.37133965693E+02  0.12263217135E+03  0.18322850100E+03  0.12509101830E+03 0.  0.
          5    1    3    3  502    0 -0.81191662966E+02  0.26732759788E+01  0.74984531606E+02  0.11063175367E+03  0.41800000000E+01 0. -1.
         -5    1    3    3    0  502  0.42367187944E+02  0.34460689715E+02  0.47647639746E+02  0.72596747332E+02  0.41800000000E+01 0. -1.
        -11    1    1    2    0    0  0.13874540103E+02 -0.24274229095E+02 -0.96509851084E+01  0.29578414000E+02  0.00000000000E+00 0.  1.
         11    1    1    2    0    0  0.24949934920E+02 -0.12859736598E+02  0.12123108394E+03  0.12443812836E+03  0.00000000000E+00 0. -1.
</event>
<event>
 7    1  0.1068210E-005  0.9828874E+02  0.7561462E-02  0.1283936E+00
         -3   -1    0    0    0  501 -0.00000000000E+00  0.00000000000E+00  0.28501761708E+02  0.28501761708E+02  0.00000000000E+00 0.  1.
          3   -1    0    0  501    0  0.00000000000E+00 -0.00000000000E+00 -0.44892263226E+03  0.44892263226E+03  0.00000000000E+00 0. -1.
         23    2    1    2    0    0  0.22812680175E+02 -0.25673512082E+01 -0.17731004925E+03  0.21820674228E+03  0.12509324179E+03 0.  0.
          5    1    3    3  502    0 -0.39362425086E+02  0.14385799613E+02 -0.17073833795E+02  0.45446011262E+02  0.41800000000E+01 0. -1.
         -5    1    3    3    0  502  0.62175105261E+02 -0.16953150821E+02 -0.16023621546E+03  0.17276073102E+03  0.41800000000E+01 0. -1.
        -11    1    1    2    0    0  0.21304438973E+02  0.30838613852E+02 -0.96399746378E+02  0.10343021960E+03  0.00000000000E+00 0.  1.
         11    1    1    2    0    0 -0.44117119148E+02 -0.28271262644E+02 -0.14671107492E+03  0.15578743209E+03  0.00000000000E+00 0. -1.
</event>
<event>
 7    1  0.1068210E-005  0.1254719E+03  0.7561462E-02  0.1234334E+00
          2   -1    0    0  501    0  0.00000000000E+00  0.00000000000E+00  0.56964786113E+03  0.56964786113E+03  0.00000000000E+00 0.  1.
         -2   -1    0    0    0  501 -0.00000000000E+00 -0.00000000000E+00 -0.32844550744E+02  0.32844550744E+02  0.00000000000E+00 0. -1.
         23    2    1    2    0    0 -0.80011171415E+02  0.22840287303E+02  0.31151210119E+03  0.34584080692E+03  0.12507041325E+03 0.  0.
          5    1    3    3  502    0 -0.76002044115E+02 -0.39487954054E+02  0.15256582365E+03  0.17501260575E+03  0.41800000000E+01 0. -1.
         -5    1    3    3    0  502 -0.40091273004E+01  0.62328241356E+02  0.15894627753E+03  0.17082820117E+03  0.41800000000E+01 0. -1.
        -11    1    1    2    0    0  0.59546491291E+02  0.13346799154E+02  0.57708305297E+02  0.83989107466E+02  0.00000000000E+00 0. -1.
         11    1    1    2    0    0  0.20464680124E+02 -0.36187086456E+02  0.16758290391E+03  0.17266249749E+03  0.00000000000E+00 0.  1.
</event>
<event>
 6    1  0.1068210E-005  0.1931251E+03  0.7561462E-02  0.1155672E+00
         -3   -1    0    0    0  501 -0.00000000000E+00  0.00000000000E+00  0.11590040356E+04  0.11590040356E+04  0.00000000000E+00 0.  1.
          3   -1    0    0  501    0  0.00000000000E+00 -0.00000000000E+00 -0.35024922282E+02  0.35024922282E+02  0.00000000000E+00 0. -1.
          5    1    1    2  502    0 -0.13850520870E+03 -0.30027455806E+02  0.42705107290E+03  0.44997270162E+03  0.41800000000E+01 0. -1.
         -5    1    1    2    0  502  0.10168147330E+03  0.84589170742E+02  0.49480824745E+03  0.51219832483E+03  0.41800000000E+01 0.  1.
        -11    1    1    2    0    0  0.49308658456E+02 -0.74064297154E+02  0.14370421199E+03  0.16902001200E+03  0.00000000000E+00 0.  1.
         11    1    1    2    0    0 -0.12484923058E+02  0.19502582218E+02  0.58415580940E+02  0.62837919392E+02  0.00000000000E+00 0. -1.
</event>
<event>
 7    1  0.1068210E-005  0.7948778E+02  0.7561462E-02  0.1330511E+00
          2   -1    0    0  501    0  0.00000000000E+00  0.00000000000E+00  0.45336861291E+03  0.45336861291E+03  0.00000000000E+00 0. -1.
         -2   -1    0    0    0  501 -0.00000000000E+00 -0.00000000000E+00 -0.28877410274E+02  0.28877410274E+02  0.00000000000E+00 0.  1.
         23    2    1    2    0    0  0.18317873281E+02  0.46106852137E+00  0.17226710229E+03  0.21367872994E+03  0.12508752148E+03 0.  0.
          5    1    3    3  502    0  0.23053178620E+02 -0.28651205787E+02 -0.18253423922E+01  0.37055969997E+02  0.41800000000E+01 0. -1.
         -5    1    3    3    0  502 -0.47353053389E+01  0.29112274308E+02  0.17409244468E+03  0.17662275994E+03  0.41800000000E+01 0. -1.
        -11    1    1    2    0    0  0.13743526131E+02  0.38988517978E+02  0.10750561166E+03  0.11518005723E+03  0.00000000000E+00 0.  1.
         11    1    1    2    0    0 -0.32061399413E+02 -0.39449586500E+02  0.14471848868E+03  0.15338723602E+03  0.00000000000E+00 0. -1.
</event>
<event>
 7    1  0.1068210E-005  0.1279797E+03  0.7561462E-02  0.1230485E+00
          1   -1    0    0  501    0  0.00000000000E+00  0.00000000000E+00  0.82840311431E+02  0.82840311431E+02  0.00000000000E+00 0. -1.
         -1   -1    0    0    0  501 -0.00000000000E+00 -0.00000000000E+00 -0.25403471623E+03  0.25403471623E+03  0.00000000000E+00 0.  1.
         23    2    1    2    0    0 -0.66009524767E+02 -0.65542624035E+02 -0.12455038939E+03  0.19953302432E+03  0.12509010902E+03 0.  0.
          5    1    3    3  502    0  0.19924093881E+02 -0.29010421851E+02 -0.95168927652E+02  0.10155378517E+03  0.41800000000E+01 0. -1.
         -5    1    3    3    0  502 -0.85933618648E+02 -0.36532202184E+02 -0.29381461734E+02  0.97979239148E+02  0.41800000000E+01 0. -1.
        -11    1    1    2    0    0  0.50309682299E+02  0.86977176038E+02 -0.26259818712E+02  0.10385408689E+03  0.00000000000E+00 0. -1.
         11    1    1    2    0    0  0.15699842468E+02 -0.21434552004E+02 -0.20384196703E+02  0.33487916453E+02  0.00000000000E+00 0.  1.
</event>
<event>
 7    1  0.1068210E-005  0.1572228E+03  0.7561462E-02  0.1191868E+00
          4   -1    0    0  501    0  0.00000000000E+00  0.00000000000E+00  0.28767125062E+03  0.28767125062E+03  0.00000000000E+00 0.  1.
         -4   -1    0    0    0  501 -0.00000000000E+00 -0.00000000000E+00 -0.11390062673E+03  0.11390062673E+03  0.00000000000E+00 0. -1.
         23    2    1    2    0    0 -0.84532068027E+02 -0.78096476728E+02 -0.59729034600E+01  0.17006854003E+03  0.12507158962E+03 0.  0.
          5    1    3    3  502    0 -0.62290378044E+01 -0.89060298404E+02 -0.14077493828E+02  0.90477543603E+02  0.41800000000E+01 0.  1.
         -5    1    3    3    0  502 -0.78303030223E+02  0.10963821677E+02  0.81045903683E+01  0.79590996431E+02  0.41800000000E+01 0.  1.
        -11    1    1    2    0    0  0.92300123740E+02  0.29823658615E+02  0.11861602344E+03  0.15322703571E+03  0.00000000000E+00 0.  1.
         11    1    1    2    0    0 -0.77680557127E+01  0.48272818113E+02  0.61127503906E+02  0.78276301598E+02  0.00000000000E+00 0. -1.
</event>
<event>
 7    1  0.1068210E-005  0.7660349E+02  0.7561462E-02  0.1338976E+00
         -2   -1    0    0    0  501 -0.00000000000E+00  0.00000000000E+00  0.22808614958E+02  0.22808614958E+02  0.00000000000E+00 0.  1.
          2   -1    0    0  501    0  0.00000000000E+00 -0.00000000000E+00 -0.54521451670E+03  0.54521451670E+03  0.00000000000E+00 0. -1.
         23    2    1    2    0    0 -0.30085958701E+02  0.34996405537E+02 -0.29757777668E+03  0.32608204792E+03  0.12508819084E+03 0.  0.
          5    1    3    3  502    0 -0.41700123050E+02  0.27605551159E+01 -0.20272307999E+02  0.46636464259E+02  0.41800000000E+01 0. -1.
         -5    1    3    3    0  502  0.11614164350E+02  0.32235850421E+02 -0.27730546868E+03  0.27944558366E+03  0.41800000000E+01 0. -1.
        -11    1    1    2    0    0  0.48995771679E+02 -0.21782737314E+02 -0.20376803670E+03  0.21070473670E+03  0.00000000000E+00 0. -1.
         11    1    1    2    0    0 -0.18909812978E+02 -0.13213668222E+02 -0.21060088368E+02  0.31236347047E+02  0.00000000000E+00 0.  1.
</event>
<event>
 7    1  0.1068210E-005  0.1745089E+03  0.7561462E-02  0.1173226E+00
         -1   -1    0    0    0  501 -0.00000000000E+00  0.00000000000E+00  0.10769093864E+03  0.10769093864E+03  0.00000000000E+00 0.  1.
          1   -1    0    0  501    0  0.00000000000E+00 -0.00000000000E+00 -0.47849316304E+03  0.47849316304E+03  0.00000000000E+00 0. -1.
         23    2    1    2    0    0 -0.30115219110E+02 -0.13977426375E+03 -0.13073395015E+02  0.19042727063E+03  0.12509140863E+03 0.  0.
          5    1    3    3  502    0  0.25876117401E+02 -0.11863513606E+03  0.18066997738E+02  0.12283223424E+03  0.41800000000E+01 0.  1.
         -5    1    3    3    0  502 -0.55991336510E+02 -0.21139127688E+02 -0.31140392754E+02  0.67595036389E+02  0.41800000000E+01 0.  1.
        -11    1    1    2    0    0 -0.31045213047E+02  0.51548303284E+02 -0.15675930422E+03  0.16791221601E+03  0.00000000000E+00 0.  1.
         11    1    1    2    0    0  0.61160432157E+02  0.88225960466E+02 -0.20096952516E+03  0.22784461505E+03  0.00000000000E+00 0. -1.
</event>
<event>
 6    1  0.1068210E-005  0.1513746E+03  0.7561462E-02  0.1198794E+00
          1   -1    0    0  501    0  0.00000000000E+00  0.00000000000E+00  0.68195243263E+03  0.68195243263E+03  0.00000000000E+00 0. -1.
         -1   -1    0    0    0  501 -0.00000000000E+00 -0.00000000000E+00 -0.44389860875E+02  0.44389860875E+02  0.00000000000E+00 0.  1.
          5    1    1    2  502    0 -0.81199551052E+02 -0.86423352962E+02  0.31789591547E+03  0.33931939010E+03  0.41800000000E+01 0. -1.
         -5    1    1    2    0  502  0.79885408311E+02  0.48255859600E+02  0.65123295722E+02  0.11388073802E+03  0.41800000000E+01 0.  1.
        -11    1    1    2    0    0 -0.38523303305E+02  0.50305155802E+01  0.16658390701E+03  0.17105422841E+03  0.00000000000E+00 0. -1.
         11    1    1    2    0    0  0.39837446046E+02  0.33136977781E+02  0.87959453564E+02  0.10208793697E+03  0.00000000000E+00 0.  1.
</event>
<event>
 7    1  0.1068210E-005  0.9681207E+02  0.7561462E-02  0.1287146E+00
          1   -1    0    0  501    0  0.00000000000E+00  0.00000000000E+00  0.19192754236E+02  0.19192754236E+02  0.00000000000E+00 0. -1.
         -1   -1    0    0    0  501 -0.00000000000E+00 -0.00000000000E+00 -0.88730037275E+03  0.88730037275E+03  0.00000000000E+00 0.  1.
         23    2    1    2    0    0  0.35539610914E+02 -0.48036092759E+02 -0.66439790168E+03  0.67610635618E+03  0.11011222895E+03 0.  0.
          5    1    3    3  502    0 -0.63439075280E+01  0.11159495704E+02 -0.44080073918E+03  0.44100741895E+03  0.41800000000E+01 0. -1.
         -5    1    3    3    0  502  0.41883518442E+02 -0.59195588463E+02 -0.22359716249E+03  0.23509893723E+03  0.41800000000E+01 0.  1.
        -11    1    1    2    0    0  0.27221694718E+02 -0.18968872055E+01 -0.56625977125E+02  0.62857936092E+02  0.00000000000E+00 0.  1.
         11    1    1    2    0    0 -0.62761305632E+02  0.49932979964E+02 -0.14708373971E+03  0.16752883471E+03  0.00000000000E+00 0. -1.
</event>
<event>
 7    1  0.1068210E-005  0.8794743E+02  0.7561462E-02  0.1307900E+00
          1   -1    0    0  501    0  0.00000000000E+00  0.00000000000E+00  0.16484673503E+02  0.16484673503E+02  0.00000000000E+00 0. -1.
         -1   -1    0    0    0  501 -0.00000000000E+00 -0.00000000000E+00 -0.95149823930E+03  0.95149823930E+03  0.00000000000E+00 0.  1.
         23    2    1    2    0    0  0.17976982737E+02  0.12844224920E+02 -0.74643567443E+03  0.75716950801E+03  0.12510516291E+03 0.  0.
          5    1    3    3  502    0 -0.42522610163E+02 -0.22764626647E+00 -0.11478569926E+03  0.12248042029E+03  0.41800000000E+01 0. -1.
         -5    1    3    3    0  502  0.60499592900E+02  0.13071871187E+02 -0.63164997516E+03  0.63468908773E+03  0.41800000000E+01 0. -1.
        -11    1    1    2    0    0  0.14498988083E+02 -0.30784659981E+02 -0.22862009605E+02  0.40994968335E+02  0.00000000000E+00 0. -1.
         11    1    1    2    0    0 -0.32475970820E+02  0.17940435061E+02 -0.16571588177E+03  0.16981843646E+03  0.00000000000E+00 0.  1.
</event>
<event>
 7    1  0.1068210E-005  0.2009096E+03  0.7561462E-02  0.1148974E+00
         -2   -1    0    0    0  501 -0.00000000000E+00  0.00000000000E+00  0.10125014071E+03  0.10125014071E+03  0.00000000000E+00 0.  1.
          2   -1    0    0  501    0  0.00000000000E+00 -0.00000000000E+00 -0.43862817005E+03  0.43862817005E+03  0.00000000000E+00 0. -1.
         23    2    1    2    0    0 -0.89405237679E+02 -0.15686873936E+03 -0.15695057851E+03  0.26996629292E+03  0.12508883765E+03 0.  0.
          5    1    3    3  502    0 -0.98781751791E+02 -0.90853668795E+02 -0.48845111919E+02  0.14288296252E+03  0.41800000000E+01 0.  1.
         -5    1    3    3    0  502  0.93765141120E+01 -0.66015070562E+02 -0.10810546659E+03  0.12708333040E+03  0.41800000000E+01 0.  1.
        -11    1    1    2    0    0  0.20884078547E+02  0.12214730701E+03 -0.11260469044E+03  0.16743931933E+03  0.00000000000E+00 0. -1.
         11    1    1    2    0    0  0.68521159132E+02  0.34721432345E+02 -0.67822760399E+02  0.10247269852E+03  0.00000000000E+00 0.  1.
</event>
<event>
 7    1  0.1068210E-005  0.1402350E+03  0.7561462E-02  0.1213013E+00
          3   -1    0    0  501    0  0.00000000000E+00  0.00000000000E+00  0.31678840040E+03  0.31678840040E+03  0.00000000000E+00 0. -1.
         -3   -1    0    0    0  501 -0.00000000000E+00 -0.00000000000E+00 -0.65514506566E+02  0.65514506566E+02  0.00000000000E+00 0.  1.
         23    2    1    2    0    0 -0.81715864227E+02  0.47760115473E+02  0.11861931797E+03  0.19666242962E+03  0.12508819901E+03 0.  0.
          5    1    3    3  502    0 -0.36511580145E+02  0.86345905694E+02  0.91966828695E+02  0.13139284948E+03  0.41800000000E+01 0. -1.
         -5    1    3    3    0  502 -0.45204284082E+02 -0.38585790221E+02  0.26652489272E+02  0.65269580133E+02  0.41800000000E+01 0. -1.
        -11    1    1    2    0    0  0.41792491781E+02  0.21581263345E+02  0.68447633555E+02  0.83050838865E+02  0.00000000000E+00 0. -1.
         11    1    1    2    0    0  0.39923372446E+02 -0.69341378818E+02  0.64206942313E+02  0.10258963849E+03  0.00000000000E+00 0.  1.
</event>
<event>
 7    1  0.1068210E-005  0.9807873E+02  0.7561462E-02  0.1284389E+00
          2   -1    0    0  501    0  0.00000000000E+00  0.00000000000E+00  0.25138361203E+03  0.25138361203E+03  0.00000000000E+00 0. -1.
         -2   -1    0    0    0  501 -0.00000000000E+00 -0.00000000000E+00 -0.49185129829E+02  0.49185129829E+02  0.00000000000E+00 0.  1.
         23    2    1    2    0    0  0.10779682273E+02 -0.67910308378E+01  0.87210936044E+02  0.15302152256E+03  0.12509004498E+03 0.  0.
          5    1    3    3  502    0  0.62909916026E+02 -0.22600637429E+02  0.28401706820E+02  0.72750090700E+02  0.41800000000E+01 0.  1.
         -5    1    3    3    0  502 -0.52130233752E+02  0.15809606591E+02  0.58809229224E+02  0.80271431864E+02  0.41800000000E+01 0.  1.
        -11    1    1    2    0    0 -0.18027004950E+02 -0.31111190249E+02  0.99795491483E+02  0.10607553529E+03  0.00000000000E+00 0. -1.
         11    1    1    2    0    0  0.72473226770E+01  0.37902221087E+02  0.15192054675E+02  0.41471684009E+02  0.00000000000E+00 0.  1.
</event>
<event>
 7    1  0.1068210E-005  0.1349296E+03  0.7561462E-02  0.1220319E+00
         -2   -1    0    0    0  501 -0.00000000000E+00  0.00000000000E+00  0.54324372562E+03  0.54324372562E+03  0.00000000000E+00 0.  1.
          2   -1    0    0  501    0  0.00000000000E+00 -0.00000000000E+00 -0.47962575954E+02  0.47962575954E+02  0.00000000000E+00 0. -1.
         23    2    1    2    0    0 -0.11857958358E+03  0.19977563139E+01  0.22831303771E+03  0.28607669066E+03  0.12509165071E+03 0.  0.
          5    1    3    3  502    0 -0.12515860160E+03  0.23890821642E+02  0.11925452816E+03  0.17456964742E+03  0.41800000000E+01 0.  1.
         -5    1    3    3    0  502  0.65790180165E+01 -0.21893065329E+02  0.10905850955E+03  0.11150704324E+03  0.41800000000E+01 0.  1.
        -11    1    1    2    0    0  0.89853264010E+02  0.33383601935E+01  0.25997733094E+03  0.27508719764E+03  0.00000000000E+00 0.  1.
         11    1    1    2    0    0  0.28726319574E+02 -0.53361165074E+01  0.69907810053E+01  0.30042413264E+02  0.00000000000E+00 0. -1.
</event>
<event>
 7    1  0.1068210E-005  0.1276455E+03  0.7561462E-02  0.1230992E+00
         -1   -1    0    0    0  501 -0.00000000000E+00  0.00000000000E+00  0.10417691382E+03  0.10417691382E+03  0.00000000000E+00 0.  1.
          1   -1    0    0  501    0  0.00000000000E+00 -0.00000000000E+00 -0.24706672841E+03  0.24706672841E+03  0.00000000000E+00 0. -1.
         23    2    1    2    0    0 -0.41843434888E+02  0.10895642147E+03 -0.57205494052E+02  0.18039326906E+03  0.12508752196E+03 0.  0.
          5    1    3    3  502    0 -0.53732729447E+02  0.52537372158E+02  0.25516719891E+02  0.79472995924E+02  0.41800000000E+01 0. -1.
         -5    1    3    3    0  502  0.11889294560E+02  0.56419049315E+02 -0.82722213943E+02  0.10092027314E+03  0.41800000000E+01 0. -1.
        -11    1    1    2    0    0  0.46208318159E+01 -0.62576511199E+02  0.44065078108E+01  0.62901424083E+02  0.00000000000E+00 0.  1.
         11    1    1    2    0    0  0.37222603072E+02 -0.46379910274E+02 -0.90090828352E+02  0.10794894909E+03  0.00000000000E+00 0. -1.
</event>
<event>
 7    1  0.1068210E-005  0.1048315E+03  0.7561462E-02  0.1270452E+00
          2   -1    0    0  501    0  0.00000000000E+00  0.00000000000E+00  0.25592605274E+02  0.25592605274E+02  0.00000000000E+00 0. -1.
         -2   -1    0    0    0  501 -0.00000000000E+00 -0.00000000000E+00 -0.51643196831E+03  0.51643196831E+03  0.00000000000E+00 0.  1.
         23    2    1    2    0    0 -0.95234754541E+01 -0.43177093144E+02 -0.27493478669E+03  0.30527358028E+03  0.12509142228E+03 0.  0.
          5    1    3    3  502    0 -0.36019695352E+01 -0.85527742806E+02 -0.14518361688E+03  0.16859336874E+03  0.41800000000E+01 0. -1.
         -5    1    3    3    0  502 -0.59215059189E+01  0.42350649662E+02 -0.12975116981E+03  0.13668021154E+03  0.41800000000E+01 0. -1.
        -11    1    1    2    0    0 -0.63274802976E+01 -0.17326375003E+02 -0.88553324993E+01  0.20461114127E+02  0.00000000000E+00 0. -1.
         11    1    1    2    0    0  0.15850955752E+02  0.60503468147E+02 -0.20704924385E+03  0.21628987918E+03  0.00000000000E+00 0.  1.
</event>
<event>
 7    1  0.1068210E-005  0.8739423E+02  0.7561462E-02  0.1309288E+00
         -1   -1    0    0    0  501 -0.00000000000E+00  0.00000000000E+00  0.58859998713E+02  0.58859998713E+02  0.00000000000E+00 0.  1.
          1   -1    0    0  501    0  0.00000000000E+00 -0.00000000000E+00 -0.19665850967E+03  0.19665850967E+03  0.00000000000E+00 0. -1.
         23    2    1    2    0    0  0.12718456472E+02 -0.15026175537E+02 -0.79797147004E+02  0.14967637871E+03  0.12509152085E+03 0.  0.
          5    1    3    3  502    0 -0.50344670956E+02 -0.29412316826E+01 -0.67177143564E+02  0.84103969912E+02  0.41800000000E+01 0.  1.
         -5    1    3    3    0  502  0.63063127428E+02 -0.12084943855E+02 -0.12620003440E+02  0.65572408800E+02  0.41800000000E+01 0.  1.
        -11    1    1    2    0    0  0.17536319903E+01  0.35071259870E+02  0.74327339616E+01  0.35893091649E+02  0.00000000000E+00 0.  1.
         11    1    1    2    0    0 -0.14472088462E+02 -0.20045084332E+02 -0.65434097914E+02  0.69949038022E+02  0.00000000000E+00 0. -1.
</event>
<event>
 7    1  0.1068210E-005  0.1067053E+03  0.7561462E-02  0.1266796E+00
         -1   -1    0    0    0  501 -0.00000000000E+00  0.00000000000E+00  0.27151326962E+02  0.27151326962E+02  0.00000000000E+00 0.  1.
          1   -1    0    0  501    0  0.00000000000E+00 -0.00000000000E+00 -0.46367146644E+03  0.46367146644E+03  0.00000000000E+00 0. -1.
         23    2    1    2    0    0 -0.33621809221E+02  0.46431760323E+01 -0.26261174974E+03  0.29285563129E+03  0.12508998576E+03 0.  0.
          5    1    3    3  502    0 -0.61690079388E+02  0.47348226760E+02 -0.14608807416E+03  0.16554974565E+03  0.41800000000E+01 0.  1.
         -5    1    3    3    0  502  0.28068270167E+02 -0.42705050728E+02 -0.11652367558E+03  0.12730588564E+03  0.41800000000E+01 0.  1.
        -11    1    1    2    0    0  0.66923089881E+01 -0.39583278199E+02 -0.12864299038E+03  0.13476142582E+03  0.00000000000E+00 0. -1.
         11    1    1    2    0    0  0.26929500233E+02  0.34940102167E+02 -0.45265399348E+02  0.63205736293E+02  0.00000000000E+00 0.  1.
</event>
<event>
 7    1  0.1068210E-005  0.1838948E+03  0.7561462E-02  0.1164086E+00
         -2   -1    0    0    0  501 -0.00000000000E+00  0.00000000000E+00  0.58937720258E+02  0.58937720258E+02  0.00000000000E+00 0. -1.
          2   -1    0    0  501    0  0.00000000000E+00 -0.00000000000E+00 -0.80231753193E+03  0.80231753193E+03  0.00000000000E+00 0.  1.
         23    2    1    2    0    0  0.11316246540E+03 -0.14435726520E+03 -0.30716623151E+03  0.37901387429E+03  0.12512257803E+03 0.  0.
          5    1    3    3  502    0  0.87596861343E+02 -0.10010548246E+03 -0.29874816016E+03  0.32705084212E+03  0.41800000000E+01 0.  1.
         -5    1    3    3    0  502  0.25565604058E+02 -0.44251782744E+02 -0.84180713515E+01  0.51963032168E+02  0.41800000000E+01 0.  1.
        -11    1    1    2    0    0 -0.53802453148E+02  0.67905954146E+02 -0.31730106046E+03  0.32891622876E+03  0.00000000000E+00 0.  1.
         11    1    1    2    0    0 -0.59360012252E+02  0.76451311053E+02 -0.11891251971E+03  0.15332514914E+03  0.00000000000E+00 0. -1.
</event>
<event>
 7    1  0.1068210E-005  0.8977877E+02  0.7561462E-02  0.1303388E+00
         -1   -1    0    0    0  501 -0.00000000000E+00  0.00000000000E+00  0.91983340772E+02  0.91983340772E+02  0.00000000000E+00 0.  1.
          1   -1    0    0  501    0  0.00000000000E+00 -0.00000000000E+00 -0.17337058069E+03  0.17337058069E+03  0.00000000000E+00 0. -1.
         23    2    1    2    0    0 -0.61169054820E+02  0.16457735537E+02 -0.37855844171E+02  0.14523258203E+03  0.12508767972E+03 0.  0.
          5    1    3    3  502    0 -0.39262187616E+02 -0.73703454635E+00  0.43730536057E+02  0.58922786595E+02  0.41800000000E+01 0. -1.
         -5    1    3    3    0  502 -0.21906867205E+02  0.17194770083E+02 -0.81586380228E+02  0.86309795433E+02  0.41800000000E+01 0. -1.
        -11    1    1    2    0    0 -0.17900808053E+02  0.18240923892E+02 -0.84381380126E+01  0.26914167394E+02  0.00000000000E+00 0.  1.
         11    1    1    2    0    0  0.79069862873E+02 -0.34698659429E+02 -0.35093257733E+02  0.93207172038E+02  0.00000000000E+00 0. -1.
</event>
<event>
 7    1  0.1068210E-005  0.1042183E+03  0.7561462E-02  0.1271667E+00
          2   -1    0    0  501    0  0.00000000000E+00  0.00000000000E+00  0.53590260220E+02  0.53590260220E+02  0.00000000000E+00 0. -1.
         -2   -1    0    0    0  501 -0.00000000000E+00 -0.00000000000E+00 -0.20347055815E+03  0.20347055815E+03  0.00000000000E+00 0.  1.
         23    2    1    2    0    0  0.92688018059E+01  0.11621248527E+02 -0.84625109504E+02  0.14282850000E+03  0.11409472884E+03 0.  0.
          5    1    3    3  502    0  0.40802779980E+02 -0.38133650223E+02 -0.41266584644E+02  0.69566123520E+02  0.41800000000E+01 0. -1.
         -5    1    3    3    0  502 -0.31533978175E+02  0.49754898750E+02 -0.43358524860E+02  0.73262376478E+02  0.41800000000E+01 0.  1.
        -11    1    1    2    0    0  0.21821826016E+02  0.32655394061E+02 -0.22406889229E+02  0.45217646300E+02  0.00000000000E+00 0.  1.
         11    1    1    2    0    0 -0.31090627822E+02 -0.44276642588E+02 -0.42848299199E+02  0.69014672074E+02  0.00000000000E+00 0. -1.
</event>
<event>
 7    1  0.1068210E-005  0.2804039E+03  0.7561462E-02  0.1095469E+00
         -3   -1    0    0    0  501 -0.00000000000E+00  0.00000000000E+00  0.51924507105E+03  0.51924507105E+03  0.00000000000E+00 0.  1.
          3   -1    0    0  501    0  0.00000000000E+00 -0.00000000000E+00 -0.15852212836E+03  0.15852212836E+03  0.00000000000E+00 0. -1.
         23    2    1    2    0    0 -0.25743966734E+03  0.63760067510E+02  0.19011544964E+03  0.34947903568E+03  0.12510469080E+03 0.  0.
          5    1    3    3  502    0 -0.22708378590E+02  0.53469765487E+02  0.36781059109E+02  0.68883996607E+02  0.41800000000E+01 0.  1.
         -5    1    3    3    0  502 -0.23473128875E+03  0.10290302023E+02  0.15333439053E+03  0.28059503908E+03  0.41800000000E+01 0.  1.
        -11    1    1    2    0    0  0.17596413462E+03 -0.60347228354E+02  0.16129012552E+03  0.24621061965E+03  0.00000000000E+00 0.  1.
         11    1    1    2    0    0  0.81475532726E+02 -0.34128391561E+01  0.93173675354E+01  0.82077544078E+02  0.00000000000E+00 0. -1.
</event>
<event>
 7    1  0.1068210E-005  0.6904030E+02  0.7561462E-02  0.1363387E+00
         -1   -1    0    0    0  501 -0.00000000000E+00  0.00000000000E+00  0.36522013038E+02  0.36522013038E+02  0.00000000000E+00 0.  1.
          1   -1    0    0  501    0  0.00000000000E+00 -0.00000000000E+00 -0.32538837930E+03  0.32538837930E+03  0.00000000000E+00 0. -1.
         23    2    1    2    0    0  0.73606969978E+01  0.61853278989E+01 -0.19231880356E+03  0.22964025624E+03  0.12512268755E+03 0.  0.
          5    1    3    3  502    0  0.31802332385E+01 -0.20529120858E+02 -0.20008081084E+03  0.20119980605E+03  0.41800000000E+01 0.  1.
         -5    1    3    3    0  502  0.41804637592E+01  0.26714448757E+02  0.77620072833E+01  0.28440450185E+02  0.41800000000E+01 0.  1.
        -11    1    1    2    0    0 -0.15655453642E+02 -0.46139616886E+02 -0.61631707845E+02  0.78564781467E+02  0.00000000000E+00 0. -1.
         11    1    1    2    0    0  0.82947566440E+01  0.39954288987E+02 -0.34915854856E+02  0.53705354636E+02  0.00000000000E+00 0.  1.
</event>
<event>
 7    1  0.1068210E-005  0.1207489E+03  0.7561462E-02  0.1241867E+00
         -2   -1    0    0    0  501 -0.00000000000E+00  0.00000000000E+00  0.35145998550E+02  0.35145998550E+02  0.00000000000E+00 0.  1.
          2   -1    0    0  501    0  0.00000000000E+00 -0.00000000000E+00 -0.54002729374E+03  0.54002729374E+03  0.00000000000E+00 0. -1.
         23    2    1    2    0    0  0.63789544723E+02  0.52867325486E+02 -0.27372298058E+03  0.31214898202E+03  0.12509459124E+03 0.  0.
          5    1    3    3  502    0  0.63545350111E+01  0.83474279391E+02 -0.17163036241E+03  0.19100468354E+03  0.41800000000E+01 0. -1.
         -5    1    3    3    0  502  0.57435009712E+02 -0.30606953904E+02 -0.10209261818E+03  0.12114429848E+03  0.41800000000E+01 0. -1.
        -11    1    1    2    0    0 -0.32551306265E+02 -0.51833491197E+02 -0.22225020556E+03  0.23052429854E+03  0.00000000000E+00 0. -1.
         11    1    1    2    0    0 -0.31238238457E+02 -0.10338342898E+01 -0.89081090487E+01  0.32500011724E+02  0.00000000000E+00 0.  1.
</event>
<event>
 7    1  0.1068210E-005  0.1153769E+03  0.7561462E-02  0.1250925E+00
          4   -1    0    0  501    0  0.00000000000E+00  0.00000000000E+00  0.38656992350E+03  0.38656992350E+03  0.00000000000E+00 0. -1.
         -4   -1    0    0    0  501 -0.00000000000E+00 -0.00000000000E+00 -0.42841081161E+02  0.42841081161E+02  0.00000000000E+00 0.  1.
         23    2    1    2    0    0  0.11787123680E+02 -0.68414172830E+02  0.17747226244E+03  0.22795440106E+03  0.12508944680E+03 0.  0.
          5    1    3    3  502    0  0.41290976351E+02  0.93694000725E+01  0.11847042774E+03  0.12587869174E+03  0.41800000000E+01 0.  1.
         -5    1    3    3    0  502 -0.29503852672E+02 -0.77783572903E+02  0.59001834695E+02  0.10207570932E+03  0.41800000000E+01 0.  1.
        -11    1    1    2    0    0  0.27873549397E+02  0.57304619719E+02  0.60117665564E+02  0.87606437605E+02  0.00000000000E+00 0.  1.
         11    1    1    2    0    0 -0.39660673076E+02  0.11109553112E+02  0.10613891434E+03  0.11385016599E+03  0.00000000000E+00 0. -1.
</event>
<event>
 7    1  0.1068210E-005  0.1185091E+03  0.7561462E-02  0.1245577E+00
          3   -1    0    0  501    0  0.00000000000E+00  0.00000000000E+00  0.24623697645E+03  0.24623697645E+03  0.00000000000E+00 0. -1.
         -3   -1    0    0    0  501 -0.00000000000E+00 -0.00000000000E+00 -0.69434717647E+02  0.69434717647E+02  0.00000000000E+00 0.  1.
         23    2    1    2    0    0  0.54017162869E+02 -0.22564055962E+02  0.45692518972E+02  0.14547417210E+03  0.12509171817E+03 0.  0.
          5    1    3    3  502    0  0.55695944911E+02 -0.66979097666E+02  0.50162471554E+02  0.10060807003E+03  0.41800000000E+01 0. -1.
         -5    1    3    3    0  502 -0.16787820423E+01  0.44415041705E+02 -0.44699525824E+01  0.44866102069E+02  0.41800000000E+01 0. -1.
        -11    1    1    2    0    0 -0.70766582881E+02  0.39750313031E+02  0.81161100384E+02  0.11478292928E+03  0.00000000000E+00 0.  1.
         11    1    1    2    0    0  0.16749420012E+02 -0.17186257069E+02  0.49948639447E+02  0.55414592712E+02  0.00000000000E+00 0. -1.
</event>
<event>
 7    1  0.1068210E-005  0.1059007E+03  0.7561462E-02  0.1268355E+00
         -2   -1    0    0    0  501 -0.00000000000E+00  0.00000000000E+00  0.60012251442E+02  0.60012251442E+02  0.00000000000E+00 0.  1.
          2   -1    0    0  501    0  0.00000000000E+00 -0.00000000000E+00 -0.30395971230E+03  0.30395971230E+03  0.00000000000E+00 0. -1.
         23    2    1    2    0    0 -0.60879623889E+02 -0.34402771416E+02 -0.81155723345E+02  0.16469140524E+03  0.12508848165E+03 0.  0.
          5    1    3    3  502    0 -0.97184580376E+02 -0.10304983824E+02 -0.43937666408E+02  0.10723351288E+03  0.41800000000E+01 0. -1.
         -5    1    3    3    0  502  0.36304956487E+02 -0.24097787592E+02 -0.37218056936E+02  0.57457892360E+02  0.41800000000E+01 0. -1.
        -11    1    1    2    0    0  0.35442670704E+02  0.23545268147E+02 -0.16606551792E+03  0.17143021554E+03  0.00000000000E+00 0. -1.
         11    1    1    2    0    0  0.25436953185E+02  0.10857503269E+02  0.32737804137E+01  0.27850342956E+02  0.00000000000E+00 0.  1.
</event>
<event>
 7    1  0.1068210E-005  0.2484817E+03  0.7561462E-02  0.1114268E+00
          1   -1    0    0  501    0  0.00000000000E+00  0.00000000000E+00  0.42584717893E+03  0.42584717893E+03  0.00000000000E+00 0. -1.
         -1   -1    0    0    0  501 -0.00000000000E+00 -0.00000000000E+00 -0.24175416791E+03  0.24175416791E+03  0.00000000000E+00 0.  1.
         23    2    1    2    0    0 -0.19469890429E+03  0.14888166804E+03 -0.88800135019E+02  0.28914869627E+03  0.12509232655E+03 0.  0.
          5    1    3    3  502    0 -0.15648037400E+03  0.14365549918E+03 -0.11571188709E+03  0.24192916960E+03  0.41800000000E+01 0. -1.
         -5    1    3    3    0  502 -0.38218530296E+02  0.52261688619E+01  0.26911752070E+02  0.47219526665E+02  0.41800000000E+01 0. -1.
        -11    1    1    2    0    0  0.13950133490E+03 -0.11616973086E+03  0.25277624165E+03  0.31121031016E+03  0.00000000000E+00 0. -1.
         11    1    1    2    0    0  0.55197569396E+02 -0.32711937185E+02  0.20116904383E+02  0.67242340408E+02  0.00000000000E+00 0.  1.
</event>
<event>
 7    1  0.1068210E-005  0.6590857E+02  0.7561462E-02  0.1374586E+00
         -2   -1    0    0    0  501 -0.00000000000E+00  0.00000000000E+00  0.49807008131E+02  0.49807008131E+02  0.00000000000E+00 0. -1.
          2   -1    0    0  501    0  0.00000000000E+00 -0.00000000000E+00 -0.17851690782E+03  0.17851690782E+03  0.00000000000E+00 0.  1.
         23    2    1    2    0    0  0.22831624251E+02 -0.19191238186E+02 -0.72464813904E+02  0.14760764157E+03  0.12508908788E+03 0.  0.
          5    1    3    3  502    0  0.34327646663E+02  0.21897443168E+02  0.20097768335E+02  0.45599101250E+02  0.41800000000E+01 0. -1.
         -5    1    3    3    0  502 -0.11496022412E+02 -0.41088681354E+02 -0.92562582239E+02  0.10200854032E+03  0.41800000000E+01 0. -1.
        -11    1    1    2    0    0 -0.30515508187E+02  0.37207310822E+01 -0.11619436762E+02  0.32864135321E+02  0.00000000000E+00 0. -1.
         11    1    1    2    0    0  0.76838839356E+01  0.15470507104E+02 -0.44625649022E+02  0.47852139064E+02  0.00000000000E+00 0.  1.
</event>
<event>
 7    1  0.1068210E-005  0.9215947E+02  0.7561462E-02  0.1297705E+00
         -1   -1    0    0    0  501 -0.00000000000E+00  0.00000000000E+00  0.75678716478E+02  0.75678716478E+02  0.00000000000E+00 0.  1.
          1   -1    0    0  501    0  0.00000000000E+00 -0.00000000000E+00 -0.16747387615E+03  0.16747387615E+03  0.00000000000E+00 0. -1.
         23    2    1    2    0    0 -0.23501516906E+01  0.13433105781E+01 -0.20217684437E+02  0.12674285119E+03  0.12509063861E+03 0.  0.
          5    1    3    3  502    0 -0.55224920506E+02  0.29735439486E+02  0.12315293590E+01  0.62872706884E+02  0.41800000000E+01 0. -1.
         -5    1    3    3    0  502  0.52874768816E+02 -0.28392128908E+02 -0.21449213796E+02  0.63870144306E+02  0.41800000000E+01 0. -1.
        -11    1    1    2    0    0  0.95349742185E+01  0.28785610770E+02 -0.78947794260E+02  0.84571161393E+02  0.00000000000E+00 0. -1.
         11    1    1    2    0    0 -0.71848225279E+01 -0.30128921348E+02  0.73703190302E+01  0.31838580040E+02  0.00000000000E+00 0.  1.
</event>
<event>
 7    1  0.1068210E-005  0.9102509E+02  0.7561462E-02  0.1300388E+00
          1   -1    0    0  501    0  0.00000000000E+00  0.00000000000E+00  0.98741256078E+02  0.98741256078E+02  0.00000000000E+00 0. -1.
         -1   -1    0    0    0  501 -0.00000000000E+00 -0.00000000000E+00 -0.16426275481E+03  0.16426275481E+03  0.00000000000E+00 0.  1.
         23    2    1    2    0    0  0.44717647025E+02  0.33922491319E+01 -0.84817040258E+02  0.15766734946E+03  0.12511549648E+03 0.  0.
          5    1    3    3  502    0 -0.11157076637E+02  0.24357331192E+02 -0.93376223625E+02  0.97233489500E+02  0.41800000000E+01 0. -1.
         -5    1    3    3    0  502  0.55874723662E+02 -0.20965082060E+02  0.85591833668E+01  0.60433859963E+02  0.41800000000E+01 0. -1.
        -11    1    1    2    0    0 -0.51931801551E+01 -0.40538556662E+02 -0.12153211137E+02  0.42638529962E+02  0.00000000000E+00 0.  1.
         11    1    1    2    0    0 -0.39524466870E+02  0.37146307530E+02  0.31448752665E+02  0.62698131461E+02  0.00000000000E+00 0. -1.
</event>
<event>
 7    1  0.1068210E-005  0.8563260E+02  0.7561462E-02  0.1313786E+00
          2   -1    0    0  501    0  0.00000000000E+00  0.00000000000E+00  0.80187516424E+02  0.80187516424E+02  0.00000000000E+00 0. -1.
         -2   -1    0    0    0  501 -0.00000000000E+00 -0.00000000000E+00 -0.16207917446E+03  0.16207917446E+03  0.00000000000E+00 0.  1.
         23    2    1    2    0    0  0.41505136135E+02 -0.28761896286E+02 -0.10591395043E+03  0.17151063084E+03  0.12509279992E+03 0.  0.
          5    1    3    3  502    0 -0.24871740856E+02  0.12981080118E+02  0.11210435643E+02  0.30500134452E+02  0.41800000000E+01 0.  1.
         -5    1    3    3    0  502  0.66376876991E+02 -0.41742976405E+02 -0.11712438607E+03  0.14101049639E+03  0.41800000000E+01 0.  1.
        -11    1    1    2    0    0 -0.24348548872E+02  0.37817048836E+02  0.81925722327E+01  0.45717603334E+02  0.00000000000E+00 0.  1.
         11    1    1    2    0    0 -0.17156587263E+02 -0.90551525500E+01  0.15829720161E+02  0.25038456713E+02  0.00000000000E+00 0. -1.
</event>
<event>
 7    1  0.1068210E-005  0.9972533E+02  0.7561462E-02  0.1280875E+00
          1   -1    0    0  501    0  0.00000000000E+00  0.00000000000E+00  0.48159778743E+03  0.48159778743E+03  0.00000000000E+00 0. -1.
         -1   -1    0    0    0  501 -0.00000000000E+00 -0.00000000000E+00 -0.27517868416E+02  0.27517868416E+02  0.00000000000E+00 0.  1.
         23    2    1    2    0    0  0.35867696192E+02  0.96703080372E+01  0.22781761407E+03  0.26254194808E+03  0.12508957885E+03 0.  0.
          5    1    3    3  502    0  0.76943514057E+02  0.31167269632E+02  0.15972643659E+03  0.18006029545E+03  0.41800000000E+01 0.  1.
         -5    1    3    3    0  502 -0.41075817865E+02 -0.21496961595E+02  0.68091177476E+02  0.82481652633E+02  0.41800000000E+01 0.  1.
        -11    1    1    2    0    0 -0.29545433502E+02  0.22409939988E+02  0.20321331773E+03  0.20656909390E+03  0.00000000000E+00 0. -1.
         11    1    1    2    0    0 -0.63222626901E+01 -0.32080248025E+02  0.23048987224E+02  0.40004613870E+02  0.00000000000E+00 0.  1.
</event>
<event>
 7    1  0.1068210E-005  0.1971631E+03  0.7561462E-02  0.1152155E+00
         -2   -1    0    0    0  501 -0.00000000000E+00  0.00000000000E+00  0.98274935382E+02  0.98274935382E+02  0.00000000000E+00 0.  1.
          2   -1    0    0  501    0  0.00000000000E+00 -0.00000000000E+00 -0.53429432739E+03  0.53429432739E+03  0.00000000000E+00 0. -1.
         23    2    1    2    0    0 -0.22112968945E+02  0.19367175943E+03 -0.29650692023E+03  0.37624635102E+03  0.12508888486E+03 0.  0.
          5    1    3    3  502    0 -0.22609052647E+02  0.17501515588E+03 -0.30722305997E+03  0.35432323523E+03  0.41800000000E+01 0.  1.
         -5    1    3    3    0  502  0.49608370205E+00  0.18656603548E+02  0.10716139738E+02  0.21923115788E+02  0.41800000000E+01 0.  1.
        -11    1    1    2    0    0 -0.11007978165E+02 -0.57060554912E+02  0.22837188898E+00  0.58113119550E+02  0.00000000000E+00 0.  1.
         11    1    1    2    0    0  0.33120947109E+02 -0.13661120451E+03 -0.13974084366E+03  0.19820979220E+03  0.00000000000E+00 0. -1.
</event>
<event>
 7    1  0.1068210E-005  0.1048116E+03  0.7561462E-02  0.1270491E+00
         -2   -1    0    0    0  501 -0.00000000000E+00  0.00000000000E+00  0.40826675535E+02  0.40826675535E+02  0.00000000000E+00 0.  1.
          2   -1    0    0  501    0  0.00000000000E+00 -0.00000000000E+00 -0.63546220279E+03  0.63546220279E+03  0.00000000000E+00 0. -1.
         23    2    1    2    0    0 -0.54599366173E+02 -0.46523260029E+02 -0.12261327268E+03  0.18927955714E+03  0.12508889480E+03 0.  0.
          5    1    3    3  502    0 -0.11359485180E+02  0.11872002784E+02 -0.11483909148E+03  0.11608389934E+03  0.41800000000E+01 0. -1.
         -5    1    3    3    0  502 -0.43239880993E+02 -0.58395262813E+02 -0.77741811997E+01  0.73195657799E+02  0.41800000000E+01 0. -1.
        -11    1    1    2    0    0  0.48825177880E+02 -0.20254779774E+02 -0.20725822972E+03  0.21389279531E+03  0.00000000000E+00 0.  1.
         11    1    1    2    0    0  0.57741882937E+01  0.66778039803E+02 -0.26476402486E+03  0.27311652588E+03  0.00000000000E+00 0. -1.
</event>
<event>
 7    1  0.1068210E-005  0.1021598E+03  0.7561462E-02  0.1275819E+00
          2   -1    0    0  501    0  0.00000000000E+00  0.00000000000E+00  0.42173829283E+02  0.42173829283E+02  0.00000000000E+00 0. -1.
         -2   -1    0    0    0  501 -0.00000000000E+00 -0.00000000000E+00 -0.44239679757E+03  0.44239679757E+03  0.00000000000E+00 0.  1.
         23    2    1    2    0    0 -0.35569334185E+02  0.28901045725E+02 -0.31878145729E+03  0.34549949027E+03  0.12509129580E+03 0.  0.
          5    1    3    3  502    0  0.22690903281E+02  0.58018653394E+02 -0.10695101947E+03  0.12384278016E+03  0.41800000000E+01 0.  1.
         -5    1    3    3    0  502 -0.58260237466E+02 -0.29117607669E+02 -0.21183043782E+03  0.22165671010E+03  0.41800000000E+01 0.  1.
        -11    1    1    2    0    0  0.41594456693E+02  0.52619795797E+01 -0.93399266029E+02  0.10237778153E+03  0.00000000000E+00 0.  1.
         11    1    1    2    0    0 -0.60251225086E+01 -0.34163025305E+02  0.11957755038E+02  0.36693355049E+02  0.00000000000E+00 0. -1.
</event>
<event>
 7    1  0.1068210E-005  0.1121704E+03  0.7561462E-02  0.1256603E+00
         -2   -1    0    0    0  501 -0.00000000000E+00  0.00000000000E+00  0.68929127560E+02  0.68929127560E+02  0.00000000000E+00 0.  1.
          2   -1    0    0  501    0  0.00000000000E+00 -0.00000000000E+00 -0.19553159680E+03  0.19553159680E+03  0.00000000000E+00 0. -1.
         23    2    1    2    0    0 -0.28560642426E+02  0.38147225626E+02 -0.70270989489E+02  0.15118220577E+03  0.12508847373E+03 0.  0.
          5    1    3    3  502    0  0.35801746835E+02  0.50774844775E+02 -0.12140702691E+02  0.63440673075E+02  0.41800000000E+01 0. -1.
         -5    1    3    3    0  502 -0.64362389261E+02 -0.12627619149E+02 -0.58130286798E+02  0.87741532697E+02  0.41800000000E+01 0. -1.
        -11    1    1    2    0    0  0.18345279093E+02 -0.65042516126E+02 -0.49329213140E+02  0.83668688516E+02  0.00000000000E+00 0. -1.
         11    1    1    2    0    0  0.10215363333E+02  0.26895290500E+02 -0.70022666087E+01  0.29609830069E+02  0.00000000000E+00 0.  1.
</event>
<event>
 7    1  0.1068210E-005  0.2580731E+03  0.7561462E-02  0.1108307E+00
         -1   -1    0    0    0  501 -0.00000000000E+00  0.00000000000E+00  0.22684897818E+03  0.22684897818E+03  0.00000000000E+00 0.  1.
          1   -1    0    0  501    0  0.00000000000E+00 -0.00000000000E+00 -0.34029506811E+03  0.34029506811E+03  0.00000000000E+00 0. -1.
         23    2    1    2    0    0 -0.17896139905E+02  0.24461808947E+03  0.14185347200E+02  0.27569427706E+03  0.12509128189E+03 0.  0.
          5    1    3    3  502    0 -0.64903347938E+02  0.10528583800E+03 -0.18141998235E+02  0.12507660355E+03  0.41800000000E+01 0.  1.
         -5    1    3    3    0  502  0.47007208032E+02  0.13933225148E+03  0.32327345435E+02  0.15061767350E+03  0.41800000000E+01 0.  1.
        -11    1    1    2    0    0  0.53721596286E+01 -0.90018025408E+02  0.63130621046E+00  0.90180394460E+02  0.00000000000E+00 0. -1.
         11    1    1    2    0    0  0.12523980277E+02 -0.15460006407E+03 -0.12826274334E+03  0.20126937477E+03  0.00000000000E+00 0.  1.
</event>
<event>
 7    1  0.1068210E-005  0.1265605E+03  0.7561462E-02  0.1232650E+00
          1   -1    0    0  501    0  0.00000000000E+00  0.00000000000E+00  0.11563670699E+02  0.11563670699E+02  0.00000000000E+00 0.  1.
         -1   -1    0    0    0  501 -0.00000000000E+00 -0.00000000000E+00 -0.16710693075E+04  0.16710693075E+04  0.00000000000E+00 0. -1.
         23    2    1    2    0    0 -0.67834287186E+02  0.19927628651E+02 -0.12104749004E+04  0.12189731042E+04  0.12508934200E+03 0.  0.
          5    1    3    3  502    0  0.33511561095E+02  0.11999483315E+02 -0.49564825000E+03  0.49694232306E+03  0.41800000000E+01 0. -1.
         -5    1    3    3    0  502 -0.10134584828E+03  0.79281453361E+01 -0.71482665040E+03  0.72203078119E+03  0.41800000000E+01 0. -1.
        -11    1    1    2    0    0  0.83605735759E+02  0.74578478249E+01 -0.32896120499E+03  0.33950112361E+03  0.00000000000E+00 0.  1.
         11    1    1    2    0    0 -0.15771448573E+02 -0.27385476476E+02 -0.12006953138E+03  0.12415875031E+03  0.00000000000E+00 0. -1.
</event>
<event>
 7    1  0.1068210E-005  0.1109381E+03  0.7561462E-02  0.1258842E+00
          3   -1    0    0  501    0  0.00000000000E+00  0.00000000000E+00  0.90952129903E+02  0.90952129903E+02  0.00000000000E+00 0. -1.
         -3   -1    0    0    0  501 -0.00000000000E+00 -0.00000000000E+00 -0.26920625925E+03  0.26920625925E+03  0.00000000000E+00 0.  1.
         23    2    1    2    0    0  0.89925682601E+02  0.62190030213E+02 -0.13100052235E+03  0.21157155484E+03  0.12508859945E+03 0.  0.
          5    1    3    3  502    0  0.71236580931E+02  0.51848499965E+02 -0.10163541985E+02  0.88790131192E+02  0.41800000000E+01 0. -1.
         -5    1    3    3    0  502  0.18689101670E+02  0.10341530249E+02 -0.12083698037E+03  0.12278142365E+03  0.41800000000E+01 0. -1.
        -11    1    1    2    0    0 -0.56617390062E+02 -0.24743027727E+02 -0.70155025008E+02  0.93485152898E+02  0.00000000000E+00 0.  1.
         11    1    1    2    0    0 -0.33308292539E+02 -0.37447002486E+02  0.22901418017E+02  0.55101681410E+02  0.00000000000E+00 0. -1.
</event>
<event>
 7    1  0.1068210E-005  0.9989202E+02  0.7561462E-02  0.1280523E+00
          1   -1    0    0  501    0  0.00000000000E+00  0.00000000000E+00  0.41378051411E+02  0.41378051411E+02  0.00000000000E+00 0. -1.
         -1   -1    0    0    0  501 -0.00000000000E+00 -0.00000000000E+00 -0.53389706946E+03  0.53389706946E+03  0.00000000000E+00 0.  1.
         23    2    1    2    0    0 -0.30436463008E+01 -0.48295733831E+02 -0.43479049573E+03  0.45501210853E+03  0.12510596326E+03 0.  0.
          5    1    3    3  502    0 -0.23322181436E+02 -0.81349410340E+02 -0.20315780566E+03  0.22011864326E+03  0.41800000000E+01 0. -1.
         -5    1    3    3    0  502  0.20278535135E+02  0.33053676508E+02 -0.23163269007E+03  0.23489346527E+03  0.41800000000E+01 0. -1.
        -11    1    1    2    0    0  0.28496408865E+02  0.10264570890E+02  0.15413148995E+02  0.33984877456E+02  0.00000000000E+00 0. -1.
         11    1    1    2    0    0 -0.25452762565E+02  0.38031162941E+02 -0.73141671319E+02  0.86278134890E+02  0.00000000000E+00 0.  1.
</event>
<event>
 7    1  0.1068210E-005  0.1447188E+03  0.7561462E-02  0.1207117E+00
         -2   -1    0    0    0  501 -0.00000000000E+00  0.00000000000E+00  0.40991871512E+03  0.40991871512E+03  0.00000000000E+00 0.  1.
          2   -1    0    0  501    0  0.00000000000E+00 -0.00000000000E+00 -0.63302494848E+02  0.63302494848E+02  0.00000000000E+00 0. -1.
         23    2    1    2    0    0 -0.10908951130E+03  0.26912121183E+02  0.13447061921E+03  0.21649763649E+03  0.12713809592E+03 0.  0.
          5    1    3    3  502    0 -0.11301516875E+03  0.54752509365E+02  0.65063629131E+02  0.14149563204E+03  0.41800000000E+01 0. -1.
         -5    1    3    3    0  502  0.39256574540E+01 -0.27840388181E+02  0.69406990079E+02  0.75002004456E+02  0.41800000000E+01 0.  1.
        -11    1    1    2    0    0 -0.10618470270E+02 -0.97795660968E+01  0.63405826977E+02  0.65028383945E+02  0.00000000000E+00 0. -1.
         11    1    1    2    0    0  0.11970798157E+03 -0.17132555086E+02  0.14873977409E+03  0.19169518953E+03  0.00000000000E+00 0.  1.
</event>
<event>
 7    1  0.1068210E-005  0.1565077E+03  0.7561462E-02  0.1192697E+00
          1   -1    0    0  501    0  0.00000000000E+00  0.00000000000E+00  0.31225222533E+03  0.31225222533E+03  0.00000000000E+00 0. -1.
         -1   -1    0    0    0  501 -0.00000000000E+00 -0.00000000000E+00 -0.10537051664E+03  0.10537051664E+03  0.00000000000E+00 0.  1.
         23    2    1    2    0    0  0.58415696776E+02  0.11347645549E+03  0.30440131588E+02  0.18127979516E+03  0.12508582231E+03 0.  0.
          5    1    3    3  502    0  0.11321586729E+02 -0.21779965910E+02 -0.17225542152E+02  0.30277664103E+02  0.41800000000E+01 0. -1.
         -5    1    3    3    0  502  0.47094110047E+02  0.13525642140E+03  0.47665673740E+02  0.15100213106E+03  0.41800000000E+01 0. -1.
        -11    1    1    2    0    0  0.15418460299E+02 -0.27298223614E+02  0.65379936532E+01  0.32026040834E+02  0.00000000000E+00 0.  1.
         11    1    1    2    0    0 -0.73834157075E+02 -0.86178231872E+02  0.16990358345E+03  0.20431690598E+03  0.00000000000E+00 0. -1.
</event>
<event>
 7    1  0.1068210E-005  0.1099304E+03  0.7561462E-02  0.1260699E+00
          2   -1    0    0  501    0  0.00000000000E+00  0.00000000000E+00  0.50129277063E+02  0.50129277063E+02  0.00000000000E+00 0. -1.
         -2   -1    0    0    0  501 -0.00000000000E+00 -0.00000000000E+00 -0.36234415229E+03  0.36234415229E+03  0.00000000000E+00 0.  1.
         23    2    1    2    0    0  0.54935412784E+02  0.50428325937E+02 -0.21403751905E+03  0.25888310687E+03  0.12508991897E+03 0.  0.
          5    1    3    3  502    0  0.77676869215E+02 -0.11953647328E+02 -0.10639380862E+03  0.13233933886E+03  0.41800000000E+01 0.  1.
         -5    1    3    3    0  502 -0.22741456431E+02  0.62381973265E+02 -0.10764371043E+03  0.12654376802E+03  0.41800000000E+01 0.  1.
        -11    1    1    2    0    0 -0.41632183702E+02 -0.39882198150E+02 -0.11565311703E+03  0.12922643665E+03  0.00000000000E+00 0.  1.
         11    1    1    2    0    0 -0.13303229082E+02 -0.10546127788E+02  0.17475760857E+02  0.24363885833E+02  0.00000000000E+00 0. -1.
</event>
<event>
 7    1  0.1068210E-005  0.1672816E+03  0.7561462E-02  0.1180713E+00
          3   -1    0    0  501    0  0.00000000000E+00  0.00000000000E+00  0.47056086518E+03  0.47056086518E+03  0.00000000000E+00 0. -1.
         -3   -1    0    0    0  501 -0.00000000000E+00 -0.00000000000E+00 -0.68135472160E+02  0.68135472160E+02  0.00000000000E+00 0.  1.
         23    2    1    2    0    0 -0.73496992908E+02 -0.12177007032E+03  0.20896490992E+03  0.28203531691E+03  0.12509128033E+03 0.  0.
          5    1    3    3  502    0  0.26737116239E+01  0.23676430547E+02  0.37302952537E+02  0.44460148057E+02  0.41800000000E+01 0.  1.
         -5    1    3    3    0  502 -0.76170704531E+02 -0.14544650087E+03  0.17166195738E+03  0.23757516885E+03  0.41800000000E+01 0.  1.
        -11    1    1    2    0    0  0.27125083194E+02  0.18222935544E+02  0.34063093921E+00  0.32679680959E+02  0.00000000000E+00 0.  1.
         11    1    1    2    0    0  0.46371909714E+02  0.10354713478E+03  0.19311985217E+03  0.22398133947E+03  0.00000000000E+00 0. -1.
</event>
<event>
 7    1  0.1068210E-005  0.9489936E+02  0.7561462E-02  0.1291403E+00
         -1   -1    0    0    0  501 -0.00000000000E+00  0.00000000000E+00  0.45953037017E+03  0.45953037017E+03  0.00000000000E+00 0.  1.
          1   -1    0    0  501    0  0.00000000000E+00 -0.00000000000E+00 -0.35486857113E+02  0.35486857113E+02  0.00000000000E+00 0. -1.
         23    2    1    2    0    0  0.13905559594E+02 -0.21607195017E+02  0.35409420599E+03  0.37641830902E+03  0.12509117151E+03 0.  0.
          5    1    3    3  502    0  0.68822080881E+02 -0.22766175530E+02  0.19967400356E+03  0.21246636831E+03  0.41800000000E+01 0.  1.
         -5    1    3    3    0  502 -0.54916521287E+02  0.11589805125E+01  0.15442020242E+03  0.16395194071E+03  0.41800000000E+01 0.  1.
        -11    1    1    2    0    0  0.21647525215E+02  0.26489660649E+01  0.74893987248E+02  0.78004754311E+02  0.00000000000E+00 0.  1.
         11    1    1    2    0    0 -0.35553084809E+02  0.18958228952E+02 -0.49446801805E+01  0.40594163947E+02  0.00000000000E+00 0. -1.
</event>
<event>
 7    1  0.1068210E-005  0.1213174E+03  0.7561462E-02  0.1240939E+00
         -2   -1    0    0    0  501 -0.00000000000E+00  0.00000000000E+00  0.20304080948E+03  0.20304080948E+03  0.00000000000E+00 0.  1.
          2   -1    0    0  501    0  0.00000000000E+00 -0.00000000000E+00 -0.90699051710E+02  0.90699051710E+02  0.00000000000E+00 0. -1.
         23    2    1    2    0    0  0.37803568772E+02 -0.71982452144E+02  0.66738770269E+02  0.16343715570E+03  0.12508819759E+03 0.  0.
          5    1    3    3  502    0 -0.29523885395E+02 -0.24324257784E+02 -0.20249772374E+02  0.43483962638E+02  0.41800000000E+01 0.  1.
         -5    1    3    3    0  502  0.67327454167E+02 -0.47658194361E+02  0.86988542643E+02  0.11995319306E+03  0.41800000000E+01 0.  1.
        -11    1    1    2    0    0  0.10431720813E+02  0.72574864223E+02  0.33246918656E+02  0.80506455122E+02  0.00000000000E+00 0.  1.
         11    1    1    2    0    0 -0.48235289585E+02 -0.59241207922E+00  0.12356068845E+02  0.49796250368E+02  0.00000000000E+00 0. -1.
</event>
<event>
 7    1  0.1068210E-005  0.1088514E+03  0.7561462E-02  0.1262712E+00
          1   -1    0    0  501    0  0.00000000000E+00  0.00000000000E+00  0.18889720139E+03  0.18889720139E+03  0.00000000000E+00 0. -1.
         -1   -1    0    0    0  501 -0.00000000000E+00 -0.00000000000E+00 -0.86751271108E+02  0.86751271108E+02  0.00000000000E+00 0.  1.
         23    2    1    2    0    0 -0.40660046047E+01 -0.37078189614E+02 -0.49093413394E+01  0.13062526151E+03  0.12509009862E+03 0.  0.
          5    1    3    3  502    0  0.57507614870E+02 -0.37554689661E+02 -0.31474614308E+01  0.68882939811E+02  0.41800000000E+01 0.  1.
         -5    1    3    3    0  502 -0.61573619474E+02  0.47650004613E+00 -0.17618799086E+01  0.61742321695E+02  0.41800000000E+01 0.  1.
        -11    1    1    2    0    0  0.15796238135E+02  0.59666562044E+02  0.40646021392E+02  0.73903442548E+02  0.00000000000E+00 0.  1.
         11    1    1    2    0    0 -0.11730233531E+02 -0.22588372430E+02  0.66409250226E+02  0.71119768442E+02  0.00000000000E+00 0. -1.
</event>
<event>
 7    1  0.1068210E-005  0.9448984E+02  0.7561462E-02  0.1292329E+00
          2   -1    0    0  501    0  0.00000000000E+00  0.00000000000E+00  0.67265377005E+02  0.67265377005E+02  0.00000000000E+00 0.  1.
         -2   -1    0    0    0  501 -0.00000000000E+00 -0.00000000000E+00 -0.17839202673E+03  0.17839202673E+03  0.00000000000E+00 0. -1.
         23    2    1    2    0    0  0.13097578151E+02 -0.10779708883E+02 -0.62899774364E+02  0.14104010028E+03  0.12509268401E+03 0.  0.
          5    1    3    3  502    0 -0.43795615296E+02  0.29835415162E+02 -0.42624700066E+02  0.68136226581E+02  0.41800000000E+01 0.  1.
         -5    1    3    3    0  502  0.56893193447E+02 -0.40615124045E+02 -0.20275074298E+02  0.72903873694E+02  0.41800000000E+01 0.  1.
        -11    1    1    2    0    0 -0.23306801633E+02  0.33543899127E+02  0.93193061017E+01  0.41895699507E+02  0.00000000000E+00 0.  1.
         11    1    1    2    0    0  0.10209223482E+02 -0.22764190243E+02 -0.57546181463E+02  0.62721603954E+02  0.00000000000E+00 0. -1.
</event>
<event>
 7    1  0.1068210E-005  0.1068389E+03  0.7561462E-02  0.1266538E+00
          3   -1    0    0  501    0  0.00000000000E+00  0.00000000000E+00  0.22020755328E+03  0.22020755328E+03  0.00000000000E+00 0. -1.
         -3   -1    0    0    0  501 -0.00000000000E+00 -0.00000000000E+00 -0.72269788474E+02  0.72269788474E+02  0.00000000000E+00 0.  1.
         23    2    1    2    0    0 -0.21640440743E+02  0.30258421595E+02  0.36460396638E+02  0.13550136360E+03  0.12508948102E+03 0.  0.
          5    1    3    3  502    0  0.50645436814E+02  0.26367522869E+02  0.89469099617E+01  0.57945889675E+02  0.41800000000E+01 0. -1.
         -5    1    3    3    0  502 -0.72285877557E+02  0.38908987262E+01  0.27513486676E+02  0.77555473928E+02  0.41800000000E+01 0. -1.
        -11    1    1    2    0    0  0.42542036761E+02 -0.42134326530E+02  0.11777805187E+03  0.13212416837E+03  0.00000000000E+00 0. -1.
         11    1    1    2    0    0 -0.20901596019E+02  0.11875904935E+02 -0.63006837088E+01  0.24851809780E+02  0.00000000000E+00 0.  1.
</event>
<event>
 7    1  0.1068210E-005  0.1033338E+03  0.7561462E-02  0.1273438E+00
          2   -1    0    0  501    0  0.00000000000E+00  0.00000000000E+00  0.37902578879E+03  0.37902578879E+03  0.00000000000E+00 0. -1.
         -2   -1    0    0    0  501 -0.00000000000E+00 -0.00000000000E+00 -0.47123855280E+02  0.47123855280E+02  0.00000000000E+00 0.  1.
         23    2    1    2    0    0  0.25263560256E+02 -0.71985365958E+02  0.15471358102E+03  0.21308128354E+03  0.12508877190E+03 0.  0.
          5    1    3    3  502    0 -0.60764431594E+01 -0.52143974572E+02 -0.12853014006E+01  0.52678664042E+02  0.41800000000E+01 0. -1.
         -5    1    3    3    0  502  0.31340003415E+02 -0.19841391386E+02  0.15599888242E+03  0.16040261950E+03  0.41800000000E+01 0. -1.
        -11    1    1    2    0    0 -0.58503522539E+02  0.43540915717E+02  0.92928319063E+02  0.11812766812E+03  0.00000000000E+00 0.  1.
         11    1    1    2    0    0  0.33239962283E+02  0.28444450241E+02  0.84260033433E+02  0.94940692415E+02  0.00000000000E+00 0. -1.
</event>
<event>
 7    1  0.1068210E-005  0.9978198E+02  0.7561462E-02  0.1280755E+00
         -3   -1    0    0    0  501 -0.00000000000E+00  0.00000000000E+00  0.31755873929E+02  0.31755873929E+02  0.00000000000E+00 0. -1.
          3   -1    0    0  501    0  0.00000000000E+00 -0.00000000000E+00 -0.45663705259E+03  0.45663705259E+03  0.00000000000E+00 0.  1.
         23    2    1    2    0    0  0.85912111767E+01 -0.41259094917E+02 -0.17529619002E+03  0.21943350030E+03  0.12508471127E+03 0.  0.
          5    1    3    3  502    0 -0.48944463884E+02  0.12561344505E+01 -0.30392490445E+02  0.57778147202E+02  0.41800000000E+01 0. -1.
         -5    1    3    3    0  502  0.57535675061E+02 -0.42515229368E+02 -0.14490369958E+03  0.16165535310E+03  0.41800000000E+01 0. -1.
        -11    1    1    2    0    0  0.29240136095E+02  0.17008521081E+02 -0.19658187576E+03  0.19947107365E+03  0.00000000000E+00 0.  1.
         11    1    1    2    0    0 -0.37831347272E+02  0.24250573836E+02 -0.53003112882E+02  0.69488352571E+02  0.00000000000E+00 0. -1.
</event>
<event>
 7    1  0.1068210E-005  0.1086663E+03  0.7561462E-02  0.1263060E+00
          1   -1    0    0  501    0  0.00000000000E+00  0.00000000000E+00  0.13034359531E+03  0.13034359531E+03  0.00000000000E+00 0. -1.
         -1   -1    0    0    0  501 -0.00000000000E+00 -0.00000000000E+00 -0.12075828296E+03  0.12075828296E+03  0.00000000000E+00 0.  1.
         23    2    1    2    0    0 -0.49004975331E+02 -0.23717588713E+02 -0.26360044195E+02  0.13894729192E+03  0.12508991318E+03 0.  0.
          5    1    3    3  502    0 -0.12160504358E+02  0.44701733463E+02 -0.38251217294E+02  0.60222511284E+02  0.41800000000E+01 0. -1.
         -5    1    3    3    0  502 -0.36844470973E+02 -0.68419322176E+02  0.11891173100E+02  0.78724780635E+02  0.41800000000E+01 0. -1.
        -11    1    1    2    0    0  0.23869132960E+02 -0.27214932594E+02 -0.11675136139E+02  0.38035468556E+02  0.00000000000E+00 0.  1.
         11    1    1    2    0    0  0.25135842371E+02  0.50932521307E+02  0.47620492686E+02  0.74119117791E+02  0.00000000000E+00 0. -1.
</event>
<event>
 7    1  0.1068210E-005  0.1339971E+03  0.7561462E-02  0.1221642E+00
          2   -1    0    0  501    0  0.00000000000E+00  0.00000000000E+00  0.38113592298E+03  0.38113592298E+03  0.00000000000E+00 0. -1.
         -2   -1    0    0    0  501 -0.00000000000E+00 -0.00000000000E+00 -0.50593226588E+02  0.50593226588E+02  0.00000000000E+00 0.  1.
         23    2    1    2    0    0 -0.70244746858E+02 -0.45524113764E+02  0.14813579571E+03  0.21118468097E+03  0.12509191064E+03 0.  0.
          5    1    3    3  502    0 -0.85199716976E+02  0.13900758661E+02  0.10567171261E+03  0.13651449048E+03  0.41800000000E+01 0.  1.
         -5    1    3    3    0  502  0.14954970119E+02 -0.59424872425E+02  0.42464083101E+02  0.74670190489E+02  0.41800000000E+01 0.  1.
        -11    1    1    2    0    0  0.55877065674E+02 -0.15069010529E+02  0.60921232673E+02  0.84028079456E+02  0.00000000000E+00 0. -1.
         11    1    1    2    0    0  0.14367681183E+02  0.60593124293E+02  0.12148566801E+03  0.13651638915E+03  0.00000000000E+00 0.  1.
</event>
<event>
 7    1  0.1068210E-005  0.7525863E+02  0.7561462E-02  0.1343072E+00
         -4   -1    0    0    0  501 -0.00000000000E+00  0.00000000000E+00  0.30995135465E+03  0.30995135465E+03  0.00000000000E+00 0.  1.
          4   -1    0    0  501    0  0.00000000000E+00 -0.00000000000E+00 -0.45249092320E+02  0.45249092320E+02  0.00000000000E+00 0. -1.
         23    2    1    2    0    0  0.19335935086E+02 -0.13394567256E+02  0.20894243346E+03  0.24465768174E+03  0.12508856029E+03 0.  0.
          5    1    3    3  502    0 -0.66959096704E+01 -0.52221733062E+02  0.18415996241E+03  0.19158368606E+03  0.41800000000E+01 0.  1.
         -5    1    3    3    0  502  0.26031844756E+02  0.38827165806E+02  0.24782471053E+02  0.53073995680E+02  0.41800000000E+01 0.  1.
        -11    1    1    2    0    0 -0.31419313138E+01  0.28471082565E+02 -0.17802249195E+02  0.33725277630E+02  0.00000000000E+00 0. -1.
         11    1    1    2    0    0 -0.16194003772E+02 -0.15076515309E+02  0.73562078065E+02  0.76817487601E+02  0.00000000000E+00 0.  1.
</event>
<event>
 7    1  0.1068210E-005  0.1089320E+03  0.7561462E-02  0.1262561E+00
         -2   -1    0    0    0  501 -0.00000000000E+00  0.00000000000E+00  0.28393144135E+03  0.28393144135E+03  0.00000000000E+00 0.  1.
          2   -1    0    0  501    0  0.00000000000E+00 -0.00000000000E+00 -0.63717419737E+02  0.63717419737E+02  0.00000000000E+00 0. -1.
         23    2    1    2    0    0  0.49930766951E+01  0.48856779841E+02  0.19977848943E+03  0.24077130003E+03  0.12508980104E+03 0.  0.
          5    1    3    3  502    0 -0.39842356947E+02  0.63108097465E+02  0.69009178728E+02  0.10173389072E+03  0.41800000000E+01 0. -1.
         -5    1    3    3    0  502  0.44835433643E+02 -0.14251317624E+02  0.13076931071E+03  0.13903740931E+03  0.41800000000E+01 0. -1.
        -11    1    1    2    0    0  0.13947688085E+02  0.20047919922E+02 -0.13349718968E+02  0.27832931801E+02  0.00000000000E+00 0. -1.
         11    1    1    2    0    0 -0.18940764780E+02 -0.68904699763E+02  0.33785251153E+02  0.79044629263E+02  0.00000000000E+00 0.  1.
</event>
<event>
 7    1  0.1068210E-005  0.1465256E+03  0.7561462E-02  0.1204809E+00
         -1   -1    0    0    0  501 -0.00000000000E+00  0.00000000000E+00  0.69148931688E+03  0.69148931688E+03  0.00000000000E+00 0.  1.
          1   -1    0    0  501    0  0.00000000000E+00 -0.00000000000E+00 -0.44371068362E+02  0.44371068362E+02  0.00000000000E+00 0. -1.
         23    2    1    2    0    0  0.12934570556E+03  0.41048272766E+02  0.37728155707E+03  0.42000628946E+03  0.12509451482E+03 0.  0.
          5    1    3    3  502    0  0.91605883128E+02  0.28802135282E+02  0.36619310487E+03  0.37859749507E+03  0.41800000000E+01 0.  1.
         -5    1    3    3    0  502  0.37739822434E+02  0.12246137484E+02  0.11088452198E+02  0.41408794389E+02  0.41800000000E+01 0.  1.
        -11    1    1    2    0    0 -0.10028166111E+03  0.73837189721E+01  0.21392071374E+03  0.23637470809E+03  0.00000000000E+00 0.  1.
         11    1    1    2    0    0 -0.29064044453E+02 -0.48431991738E+02  0.55915977716E+02  0.79479387690E+02  0.00000000000E+00 0. -1.
</event>
<event>
 6    1  0.1068210E-005  0.1292242E+03  0.7561462E-02  0.1228611E+00
         -1   -1    0    0    0  501 -0.00000000000E+00  0.00000000000E+00  0.30634683199E+02  0.30634683199E+02  0.00000000000E+00 0.  1.
          1   -1    0    0  501    0  0.00000000000E+00 -0.00000000000E+00 -0.67958662656E+03  0.67958662656E+03  0.00000000000E+00 0. -1.
          5    1    1    2  502    0  0.19621202721E+02 -0.26797451164E+02 -0.20992104905E+02  0.39512477187E+02  0.41800000000E+01 0. -1.
         -5    1    1    2    0  502 -0.42518904063E+02  0.98526723680E+02 -0.20335981847E+03  0.22997404343E+03  0.41800000000E+01 0.  1.
        -11    1    1    2    0    0  0.11435824191E+02  0.21125909503E+02 -0.70367065803E+02  0.74354596879E+02  0.00000000000E+00 0.  1.
         11    1    1    2    0    0  0.11461877151E+02 -0.92855182019E+02 -0.35423295418E+03  0.36638019226E+03  0.00000000000E+00 0. -1.
</event>
<event>
 7    1  0.1068210E-005  0.1166724E+03  0.7561462E-02  0.1248690E+00
          2   -1    0    0  501    0  0.00000000000E+00  0.00000000000E+00  0.62561111776E+03  0.62561111776E+03  0.00000000000E+00 0. -1.
         -2   -1    0    0    0  501 -0.00000000000E+00 -0.00000000000E+00 -0.28561718283E+02  0.28561718283E+02  0.00000000000E+00 0.  1.
         23    2    1    2    0    0  0.75969452358E+02 -0.12778005492E+01  0.35927653075E+03  0.38794473490E+03  0.12509396997E+03 0.  0.
          5    1    3    3  502    0  0.75978822862E+02  0.30315637958E+02  0.11272498956E+03  0.13934207943E+03  0.41800000000E+01 0. -1.
         -5    1    3    3    0  502 -0.93705042100E-02 -0.31593438507E+02  0.24655154118E+03  0.24860265547E+03  0.41800000000E+01 0. -1.
        -11    1    1    2    0    0 -0.11562611587E+02 -0.40949322626E+02  0.91904417748E+02  0.10127666568E+03  0.00000000000E+00 0.  1.
         11    1    1    2    0    0 -0.64406840771E+02  0.42227123175E+02  0.14586845098E+03  0.16495143547E+03  0.00000000000E+00 0. -1.
</event>
<event>
 7    1  0.1068210E-005  0.1340740E+03  0.7561462E-02  0.1221533E+00
         -2   -1    0    0    0  501 -0.00000000000E+00  0.00000000000E+00  0.16147290548E+03  0.16147290548E+03  0.00000000000E+00 0.  1.
          2   -1    0    0  501    0  0.00000000000E+00 -0.00000000000E+00 -0.21214630777E+03  0.21214630777E+03  0.00000000000E+00 0. -1.
         23    2    1    2    0    0  0.89844974618E+02 -0.75666439251E+01  0.94875079966E+02  0.18104640342E+03  0.12508855194E+03 0.  0.
          5    1    3    3  502    0  0.10046121774E+03  0.36190979317E+02  0.52453387965E+02  0.11904231837E+03  0.41800000000E+01 0. -1.
         -5    1    3    3    0  502 -0.10616243125E+02 -0.43757623242E+02  0.42421692001E+02  0.62004085044E+02  0.41800000000E+01 0. -1.
        -11    1    1    2    0    0 -0.75646202032E+02  0.36382189431E+02 -0.65991146643E+02  0.10677473027E+03  0.00000000000E+00 0.  1.
         11    1    1    2    0    0 -0.14198772586E+02 -0.28815545506E+02 -0.79557335620E+02  0.85798079563E+02  0.00000000000E+00 0. -1.
</event>
<event>
 7    1  0.1068210E-005  0.2429611E+03  0.7561462E-02  0.1117836E+00
          2   -1    0    0  501    0  0.00000000000E+00  0.00000000000E+00  0.12514083852E+04  0.12514083852E+04  0.00000000000E+00 0.  1.
         -2   -1    0    0    0  501 -0.00000000000E+00 -0.00000000000E+00 -0.62339786725E+02  0.62339786725E+02  0.00000000000E+00 0. -1.
         23    2    1    2    0    0  0.16608321915E+03  0.16373401646E+03  0.35837226423E+03  0.44556003844E+03  0.12530205208E+03 0.  0.
          5    1    3    3  502    0  0.65302199358E+02  0.68432900305E+01  0.16137997054E+03  0.17427614625E+03  0.41800000000E+01 0.  1.
         -5    1    3    3    0  502  0.10078101979E+03  0.15689072643E+03  0.19699229369E+03  0.27128389219E+03  0.41800000000E+01 0.  1.
        -11    1    1    2    0    0 -0.65391641775E+02 -0.55341451615E+02  0.47965359311E+03  0.48724358637E+03  0.00000000000E+00 0.  1.
         11    1    1    2    0    0 -0.10069157738E+03 -0.10839256484E+03  0.35104274111E+03  0.38094454709E+03  0.00000000000E+00 0. -1.
</event>
<event>
 7    1  0.1068210E-005  0.1111348E+03  0.7561462E-02  0.1258483E+00
         -2   -1    0    0    0  501 -0.00000000000E+00  0.00000000000E+00  0.71223723884E+02  0.71223723884E+02  0.00000000000E+00 0. -1.
          2   -1    0    0  501    0  0.00000000000E+00 -0.00000000000E+00 -0.31098369788E+03  0.31098369788E+03  0.00000000000E+00 0.  1.
         23    2    1    2    0    0 -0.14580226972E+02  0.54104727150E+02 -0.25244113749E+02  0.13937209695E+03  0.12508961432E+03 0.  0.
          5    1    3    3  502    0 -0.53058882669E+02  0.43342330130E+02 -0.56155015548E+02  0.88682922721E+02  0.41800000000E+01 0. -1.
         -5    1    3    3    0  502  0.38478655697E+02  0.10762397020E+02  0.30910901799E+02  0.50689174227E+02  0.41800000000E+01 0. -1.
        -11    1    1    2    0    0 -0.31906924743E+02 -0.58630698702E+02 -0.13544671991E+03  0.15100140599E+03  0.00000000000E+00 0. -1.
         11    1    1    2    0    0  0.46487151715E+02  0.45259715515E+01 -0.79069140337E+02  0.91833918824E+02  0.00000000000E+00 0.  1.
</event>
<event>
 7    1  0.1068210E-005  0.1607539E+03  0.7561462E-02  0.1187848E+00
          2   -1    0    0  501    0  0.00000000000E+00  0.00000000000E+00  0.10729479853E+03  0.10729479853E+03  0.00000000000E+00 0. -1.
         -2   -1    0    0    0  501 -0.00000000000E+00 -0.00000000000E+00 -0.31674764903E+03  0.31674764903E+03  0.00000000000E+00 0.  1.
         23    2    1    2    0    0  0.12207959838E+03  0.15447170992E+02 -0.14748138092E+02  0.17609032081E+03  0.12509296573E+03 0.  0.
          5    1    3    3  502    0  0.13991160107E+03  0.33792091076E+02 -0.28435325409E+02  0.14677602551E+03  0.41800000000E+01 0.  1.
         -5    1    3    3    0  502 -0.17832002685E+02 -0.18344920084E+02  0.13687187317E+02  0.29314295306E+02  0.41800000000E+01 0.  1.
        -11    1    1    2    0    0 -0.71508278561E+02 -0.52657036695E+02 -0.94298168859E+02  0.12953123973E+03  0.00000000000E+00 0. -1.
         11    1    1    2    0    0 -0.50571319822E+02  0.37209865702E+02 -0.10040654355E+03  0.11842088702E+03  0.00000000000E+00 0.  1.
</event>
<event>
 7    1  0.1068210E-005  0.9666268E+02  0.7561462E-02  0.1287475E+00
          3   -1    0    0  501    0  0.00000000000E+00  0.00000000000E+00  0.18827528124E+02  0.18827528124E+02  0.00000000000E+00 0. -1.
         -3   -1    0    0    0  501 -0.00000000000E+00 -0.00000000000E+00 -0.91700947121E+03  0.91700947121E+03  0.00000000000E+00 0.  1.
         23    2    1    2    0    0 -0.67865368920E+02  0.27478988039E+02 -0.53169727194E+03  0.55109883045E+03  0.12508848408E+03 0.  0.
          5    1    3    3  502    0 -0.77618482443E+02  0.55607755878E+01 -0.15378846936E+03  0.17240625496E+03  0.41800000000E+01 0.  1.
         -5    1    3    3    0  502  0.97531135224E+01  0.21918212451E+02 -0.37790880258E+03  0.37869257549E+03  0.41800000000E+01 0.  1.
        -11    1    1    2    0    0  0.53121943089E+02  0.69657111521E+01 -0.32267154789E+03  0.32708926883E+03  0.00000000000E+00 0.  1.
         11    1    1    2    0    0  0.14743425832E+02 -0.34444699191E+02 -0.43813123250E+02  0.57648900046E+02  0.00000000000E+00 0. -1.
</event>
<event>
 6    1  0.1068210E-005  0.2527681E+03  0.7561462E-02  0.1111568E+00
         -1   -1    0    0    0  501 -0.00000000000E+00  0.00000000000E+00  0.14035765297E+03  0.14035765297E+03  0.00000000000E+00 0.  1.
          1   -1    0    0  501    0  0.00000000000E+00 -0.00000000000E+00 -0.56341192651E+03  0.56341192651E+03  0.00000000000E+00 0. -1.
          5    1    1    2  502    0  0.15368585511E+03 -0.17668119479E+03 -0.28218008655E+03  0.36671332168E+03  0.41800000000E+01 0. -1.
         -5    1    1    2    0  502 -0.91685382511E+02  0.15993184325E+03 -0.45091814322E+02  0.18982926004E+03  0.41800000000E+01 0.  1.
        -11    1    1    2    0    0 -0.72252136874E+02  0.21848169546E+02 -0.31265740036E+02  0.81702266158E+02  0.00000000000E+00 0.  1.
         11    1    1    2    0    0  0.10251664271E+02 -0.50988180064E+01 -0.64516632632E+02  0.65524731602E+02  0.00000000000E+00 0. -1.
</event>
<event>
 6    1  0.1068210E-005  0.1708498E+03  0.7561462E-02  0.1176964E+00
         -1   -1    0    0    0  501 -0.00000000000E+00  0.00000000000E+00  0.26063921703E+03  0.26063921703E+03  0.00000000000E+00 0.  1.
          1   -1    0    0  501    0  0.00000000000E+00 -0.00000000000E+00 -0.36064293362E+03  0.36064293362E+03  0.00000000000E+00 0. -1.
          5    1    1    2  502    0  0.33846375509E+02  0.12049243033E+02 -0.28476952824E+02  0.46034450523E+02  0.41800000000E+01 0. -1.
         -5    1    1    2    0  502 -0.11631192399E+03  0.97297892611E+02  0.20419606931E+03  0.25437934408E+03  0.41800000000E+01 0.  1.
        -11    1    1    2    0    0  0.74825295123E+02 -0.41517337555E+02 -0.95907025561E+02  0.12853276493E+03  0.00000000000E+00 0. -1.
         11    1    1    2    0    0  0.76402533572E+01 -0.67829798089E+02 -0.17981580751E+03  0.19233559112E+03  0.00000000000E+00 0.  1.
</event>
<event>
 7    1  0.1068210E-005  0.1101380E+03  0.7561462E-02  0.1260314E+00
         -1   -1    0    0    0  501 -0.00000000000E+00  0.00000000000E+00  0.15975034025E+03  0.15975034025E+03  0.00000000000E+00 0.  1.
          1   -1    0    0  501    0  0.00000000000E+00 -0.00000000000E+00 -0.12174259884E+03  0.12174259884E+03  0.00000000000E+00 0. -1.
         23    2    1    2    0    0 -0.68506841049E+02 -0.37836720850E+02  0.55371418656E+02  0.15760273290E+03  0.12509125748E+03 0.  0.
          5    1    3    3  502    0 -0.10159290255E+03 -0.24486404657E+02  0.61252498494E+02  0.12120248691E+03  0.41800000000E+01 0. -1.
         -5    1    3    3    0  502  0.33086061501E+02 -0.13350316193E+02 -0.58810798380E+01  0.36400245991E+02  0.41800000000E+01 0. -1.
        -11    1    1    2    0    0  0.18066575593E+02  0.18188400869E+02  0.38401579810E+02  0.46172507098E+02  0.00000000000E+00 0.  1.
         11    1    1    2    0    0  0.50440265456E+02  0.19648319981E+02 -0.55765257051E+02  0.77717699086E+02  0.00000000000E+00 0. -1.
</event>
<event>
 7    1  0.1972847E-005  0.2174821E+03  0.7561462E-02  0.1135774E+00
          1   -1    0    0  501    0  0.00000000000E+00  0.00000000000E+00  0.30015295606E+03  0.30015295606E+03  0.00000000000E+00 0. -1.
         -1   -1    0    0    0  501 -0.00000000000E+00 -0.00000000000E+00 -0.18087664377E+03  0.18087664377E+03  0.00000000000E+00 0.  1.
         23    2    1    2    0    0  0.45382748777E+02  0.19911186360E+03  0.36158109684E+02  0.24219911553E+03  0.12509146476E+03 0.  0.
          5    1    3    3  502    0 -0.31088134748E+02  0.24091923260E+02 -0.18250787538E+02  0.43559804112E+02  0.41800000000E+01 0.  1.
         -5    1    3    3    0  502  0.76470883526E+02  0.17501994035E+03  0.54408897223E+02  0.19863931142E+03  0.41800000000E+01 0.  1.
        -11    1    1    2    0    0 -0.74872892967E+01 -0.21693464293E+02 -0.19748150570E+02  0.30276316569E+02  0.00000000000E+00 0.  1.
         11    1    1    2    0    0 -0.37895459481E+02 -0.17741839931E+03  0.10286635318E+03  0.20855416773E+03  0.00000000000E+00 0. -1.
</event>
<event>
 7    1  0.1068210E-005  0.1081874E+03  0.7561462E-02  0.1263964E+00
         -3   -1    0    0    0  501 -0.00000000000E+00  0.00000000000E+00  0.66055892387E+03  0.66055892387E+03  0.00000000000E+00 0. -1.
          3   -1    0    0  501    0  0.00000000000E+00 -0.00000000000E+00 -0.21725565314E+02  0.21725565314E+02  0.00000000000E+00 0.  1.
         23    2    1    2    0    0  0.71009252021E+02  0.12130143535E+02  0.46975651586E+03  0.49143443965E+03  0.12508864866E+03 0.  0.
          5    1    3    3  502    0  0.27745369484E+02  0.67115097161E+02  0.27465234789E+03  0.28412255524E+03  0.41800000000E+01 0. -1.
         -5    1    3    3    0  502  0.43263882536E+02 -0.54984953626E+02  0.19510416798E+03  0.20731188441E+03  0.41800000000E+01 0. -1.
        -11    1    1    2    0    0 -0.25376893055E+02  0.27932012430E+01  0.15324877854E+02  0.29776510130E+02  0.00000000000E+00 0.  1.
         11    1    1    2    0    0 -0.45632358966E+02 -0.14923344778E+02  0.15375196484E+03  0.16107353941E+03  0.00000000000E+00 0. -1.
</event>
<event>
 6    1  0.1068210E-005  0.1845024E+03  0.7561462E-02  0.1163515E+00
         -1   -1    0    0    0  501 -0.00000000000E+00  0.00000000000E+00  0.14766043987E+04  0.14766043987E+04  0.00000000000E+00 0.  1.
          1   -1    0    0  501    0  0.00000000000E+00 -0.00000000000E+00 -0.40275973457E+02  0.40275973457E+02  0.00000000000E+00 0. -1.
          5    1    1    2  502    0  0.84633059755E+01 -0.10744666562E+03  0.68535520814E+03  0.69379078059E+03  0.41800000000E+01 0. -1.
         -5    1    1    2    0  502  0.10060310953E+03  0.84565089797E+02  0.60365680810E+03  0.61781166582E+03  0.41800000000E+01 0.  1.
        -11    1    1    2    0    0 -0.10086825550E+03  0.41683986907E+02  0.14900005455E+03  0.18469698424E+03  0.00000000000E+00 0.  1.
         11    1    1    2    0    0 -0.81981600092E+01 -0.18802411085E+02 -0.16836455669E+01  0.20580941488E+02  0.00000000000E+00 0. -1.
</event>
<event>
 7    1  0.1068210E-005  0.1447132E+03  0.7561462E-02  0.1207124E+00
          1   -1    0    0  501    0  0.00000000000E+00  0.00000000000E+00  0.52882953743E+03  0.52882953743E+03  0.00000000000E+00 0. -1.
         -1   -1    0    0    0  501 -0.00000000000E+00 -0.00000000000E+00 -0.76807183901E+02  0.76807183901E+02  0.00000000000E+00 0.  1.
         23    2    1    2    0    0  0.85139089172E+02  0.73385327134E+02  0.44861477125E+02  0.17405049395E+03  0.12508777547E+03 0.  0.
          5    1    3    3  502    0  0.10412918909E+02 -0.31854639723E+02 -0.76744573112E+01  0.34634038851E+02  0.41800000000E+01 0. -1.
         -5    1    3    3    0  502  0.74726170263E+02  0.10523996686E+03  0.52535934436E+02  0.13941645510E+03  0.41800000000E+01 0. -1.
        -11    1    1    2    0    0 -0.69651043769E+02 -0.22301844139E+02  0.32837115896E+03  0.33641679237E+03  0.00000000000E+00 0. -1.
         11    1    1    2    0    0 -0.15488045403E+02 -0.51083482995E+02  0.78789717444E+02  0.95169435010E+02  0.00000000000E+00 0.  1.
</event>
<event>
 7    1  0.1068210E-005  0.1517076E+03  0.7561462E-02  0.1198390E+00
          1   -1    0    0  501    0  0.00000000000E+00  0.00000000000E+00  0.23799478577E+03  0.23799478577E+03  0.00000000000E+00 0. -1.
         -1   -1    0    0    0  501 -0.00000000000E+00 -0.00000000000E+00 -0.18508095843E+03  0.18508095843E+03  0.00000000000E+00 0.  1.
         23    2    1    2    0    0  0.91557008318E+02 -0.81543709916E+02 -0.10523703272E+03  0.20433983074E+03  0.12509145044E+03 0.  0.
          5    1    3    3  502    0  0.34694715979E+02 -0.88986137781E+02 -0.14179974376E+02  0.96647814809E+02  0.41800000000E+01 0. -1.
         -5    1    3    3    0  502  0.56862292339E+02  0.74424278645E+01 -0.91057058339E+02  0.10769201593E+03  0.41800000000E+01 0. -1.
        -11    1    1    2    0    0  0.77784644272E+01  0.43104025808E+02  0.36240080843E+02  0.56848966650E+02  0.00000000000E+00 0.  1.
         11    1    1    2    0    0 -0.99335472745E+02  0.38439684109E+02  0.12191077921E+03  0.16188694681E+03  0.00000000000E+00 0. -1.
</event>
<event>
 7    1  0.1068210E-005  0.1236428E+03  0.7561462E-02  0.1237206E+00
         -2   -1    0    0    0  501 -0.00000000000E+00  0.00000000000E+00  0.89988005388E+02  0.89988005388E+02  0.00000000000E+00 0.  1.
          2   -1    0    0  501    0  0.00000000000E+00 -0.00000000000E+00 -0.23554285518E+03  0.23554285518E+03  0.00000000000E+00 0. -1.
         23    2    1    2    0    0 -0.77397216677E+02 -0.48891883977E+02 -0.38917643562E+02  0.15981575733E+03  0.12508296384E+03 0.  0.
          5    1    3    3  502    0 -0.90074742863E+02  0.88288936511E+01 -0.43283498649E+02  0.10041086754E+03  0.41800000000E+01 0.  1.
         -5    1    3    3    0  502  0.12677526186E+02 -0.57720777628E+02  0.43658550872E+01  0.59404889789E+02  0.41800000000E+01 0.  1.
        -11    1    1    2    0    0  0.55027459561E+02  0.50925861821E+02 -0.21984652559E+02  0.78133153373E+02  0.00000000000E+00 0.  1.
         11    1    1    2    0    0  0.22369757116E+02 -0.20339778446E+01 -0.84652553673E+02  0.87581949868E+02  0.00000000000E+00 0. -1.
</event>
<event>
 7    1  0.1068210E-005  0.8120933E+02  0.7561462E-02  0.1325654E+00
         -1   -1    0    0    0  501 -0.00000000000E+00  0.00000000000E+00  0.33952456697E+03  0.33952456697E+03  0.00000000000E+00 0.  1.
          1   -1    0    0  501    0  0.00000000000E+00 -0.00000000000E+00 -0.42417949951E+02  0.42417949951E+02  0.00000000000E+00 0. -1.
         23    2    1    2    0    0  0.27139231963E+02  0.30953754533E+02  0.21882745758E+03  0.25539908754E+03  0.12509422406E+03 0.  0.
          5    1    3    3  502    0 -0.79369769180E+01  0.60003168270E+02  0.44681608119E+02  0.75347822193E+02  0.41800000000E+01 0. -1.
         -5    1    3    3    0  502  0.35076208881E+02 -0.29049413737E+02  0.17414584946E+03  0.18005126534E+03  0.41800000000E+01 0. -1.
        -11    1    1    2    0    0  0.67797669455E+01 -0.18796560013E+02 -0.16009694997E+02  0.25604418409E+02  0.00000000000E+00 0. -1.
         11    1    1    2    0    0 -0.33918998908E+02 -0.12157194520E+02  0.94288854441E+02  0.10093901098E+03  0.00000000000E+00 0.  1.
</event>
<event>
 7    1  0.1068210E-005  0.1250164E+03  0.7561462E-02  0.1235044E+00
          2   -1    0    0  501    0  0.00000000000E+00  0.00000000000E+00  0.72696209694E+02  0.72696209694E+02  0.00000000000E+00 0. -1.
         -2   -1    0    0    0  501 -0.00000000000E+00 -0.00000000000E+00 -0.25148242371E+03  0.25148242371E+03  0.00000000000E+00 0.  1.
         23    2    1    2    0    0 -0.73110181621E+02  0.90143340305E+01 -0.13925412604E+03  0.20116140901E+03  0.12509134256E+03 0.  0.
          5    1    3    3  502    0 -0.62495483591E+02 -0.52745906752E+02 -0.86839172849E+02  0.11935799299E+03  0.41800000000E+01 0. -1.
         -5    1    3    3    0  502 -0.10614698030E+02  0.61760240783E+02 -0.52414953192E+02  0.81803416029E+02  0.41800000000E+01 0. -1.
        -11    1    1    2    0    0  0.53290819695E+01 -0.33010987789E+02  0.10923223379E+02  0.35177282988E+02  0.00000000000E+00 0. -1.
         11    1    1    2    0    0  0.67781099651E+02  0.23996653758E+02 -0.50455311353E+02  0.87839941401E+02  0.00000000000E+00 0.  1.
</event>
<event>
 6    1  0.1068210E-005  0.1567749E+03  0.7561462E-02  0.1192387E+00
          1   -1    0    0  501    0  0.00000000000E+00  0.00000000000E+00  0.33621858615E+03  0.33621858615E+03  0.00000000000E+00 0. -1.
         -1   -1    0    0    0  501 -0.00000000000E+00 -0.00000000000E+00 -0.97290004985E+02  0.97290004985E+02  0.00000000000E+00 0.  1.
          5    1    1    2  502    0 -0.10682760760E+03 -0.33398130050E+02  0.12169666040E+03  0.16539384024E+03  0.41800000000E+01 0. -1.
         -5    1    1    2    0  502  0.16767316792E+02 -0.58892879695E+02 -0.14606754780E+02  0.63089966527E+02  0.41800000000E+01 0.  1.
        -11    1    1    2    0    0  0.18073272357E+02 -0.53608447815E+01 -0.74858707276E+01  0.20283493067E+02  0.00000000000E+00 0.  1.
         11    1    1    2    0    0  0.71987018452E+02  0.97651854527E+02  0.13932454628E+03  0.18474129131E+03  0.00000000000E+00 0. -1.
</event>
<event>
 7    1  0.1068210E-005  0.7478312E+02  0.7561462E-02  0.1344544E+00
         -2   -1    0    0    0  501 -0.00000000000E+00  0.00000000000E+00  0.99992161580E+02  0.99992161580E+02  0.00000000000E+00 0.  1.
          2   -1    0    0  501    0  0.00000000000E+00 -0.00000000000E+00 -0.15901400815E+03  0.15901400815E+03  0.00000000000E+00 0. -1.
         23    2    1    2    0    0 -0.46522971805E+02 -0.77736494098E+01  0.10806061125E+02  0.13412609575E+03  0.12509285381E+03 0.  0.
          5    1    3    3  502    0 -0.31037665642E+02  0.58225152767E+01  0.66967430426E+02  0.74157585657E+02  0.41800000000E+01 0. -1.
         -5    1    3    3    0  502 -0.15485306163E+02 -0.13596164686E+02 -0.56161369301E+02  0.59968510094E+02  0.41800000000E+01 0. -1.
        -11    1    1    2    0    0 -0.24374345372E+02 -0.43473438191E+01 -0.18058611635E+00  0.24759659164E+02  0.00000000000E+00 0.  1.
         11    1    1    2    0    0  0.70897317177E+02  0.12120993229E+02 -0.69647321579E+02  0.10012041482E+03  0.00000000000E+00 0. -1.
</event>
<event>
 7    1  0.1068210E-005  0.1385353E+03  0.7561462E-02  0.1215314E+00
          1   -1    0    0  501    0  0.00000000000E+00  0.00000000000E+00  0.13507973601E+03  0.13507973601E+03  0.00000000000E+00 0. -1.
         -1   -1    0    0    0  501 -0.00000000000E+00 -0.00000000000E+00 -0.17715578301E+03  0.17715578301E+03  0.00000000000E+00 0.  1.
         23    2    1    2    0    0 -0.11073260077E+02 -0.10864080318E+03 -0.35297341271E+02  0.16976000885E+03  0.12508843712E+03 0.  0.
          5    1    3    3  502    0  0.26513102442E+02  0.58426785921E+01  0.23009948857E+02  0.35833108163E+02  0.41800000000E+01 0. -1.
         -5    1    3    3    0  502 -0.37586362519E+02 -0.11448348177E+03 -0.58307290128E+02  0.13392690069E+03  0.41800000000E+01 0. -1.
        -11    1    1    2    0    0  0.37650571222E+02  0.37715011848E+02  0.26768685423E+02  0.59636818755E+02  0.00000000000E+00 0. -1.
         11    1    1    2    0    0 -0.26577311144E+02  0.70925791331E+02 -0.33547391151E+02  0.82838691423E+02  0.00000000000E+00 0.  1.
</event>
<event>
 7    1  0.1068210E-005  0.1021885E+03  0.7561462E-02  0.1275760E+00
          2   -1    0    0  501    0  0.00000000000E+00  0.00000000000E+00  0.63782163490E+03  0.63782163490E+03  0.00000000000E+00 0. -1.
         -2   -1    0    0    0  501 -0.00000000000E+00 -0.00000000000E+00 -0.23158240055E+02  0.23158240055E+02  0.00000000000E+00 0.  1.
         23    2    1    2    0    0  0.23955490476E+02 -0.17472667001E+02  0.21298363678E+03  0.24877538883E+03  0.12509198590E+03 0.  0.
          5    1    3    3  502    0  0.81558233904E+01  0.47400321569E+02  0.38000400902E+02  0.61439489001E+02  0.41800000000E+01 0. -1.
         -5    1    3    3    0  502  0.15799667085E+02 -0.64872988571E+02  0.17498323588E+03  0.18733589983E+03  0.41800000000E+01 0. -1.
        -11    1    1    2    0    0 -0.13140327840E+02 -0.34079230922E+02  0.11293340244E+03  0.11869294664E+03  0.00000000000E+00 0.  1.
         11    1    1    2    0    0 -0.10815162635E+02  0.51551897923E+02  0.28874635563E+03  0.29351153948E+03  0.00000000000E+00 0. -1.
</event>
<event>
 7    1  0.1068210E-005  0.1297705E+03  0.7561462E-02  0.1227797E+00
          1   -1    0    0  501    0  0.00000000000E+00  0.00000000000E+00  0.24275637319E+03  0.24275637319E+03  0.00000000000E+00 0. -1.
         -1   -1    0    0    0  501 -0.00000000000E+00 -0.00000000000E+00 -0.10409107268E+03  0.10409107268E+03  0.00000000000E+00 0.  1.
         23    2    1    2    0    0 -0.45654748072E+02  0.10399217157E+03  0.47762109167E+02  0.17558853807E+03  0.12510550691E+03 0.  0.
          5    1    3    3  502    0 -0.24414800001E+01  0.68409857259E+01 -0.38004136652E+02  0.38917177608E+02  0.41800000000E+01 0.  1.
         -5    1    3    3    0  502 -0.43213268072E+02  0.97151185842E+02  0.85766245818E+02  0.13667136046E+03  0.41800000000E+01 0.  1.
        -11    1    1    2    0    0  0.45988132752E+01 -0.10359006432E+03  0.70686647335E+02  0.12549363577E+03  0.00000000000E+00 0. -1.
         11    1    1    2    0    0  0.41055934797E+02 -0.40210725214E+00  0.20216544010E+02  0.45765272030E+02  0.00000000000E+00 0.  1.
</event>
<event>
 7    1  0.1068210E-005  0.3282588E+03  0.7561462E-02  0.1071910E+00
         -2   -1    0    0    0  501 -0.00000000000E+00  0.00000000000E+00  0.29632852565E+03  0.29632852565E+03  0.00000000000E+00 0.  1.
          2   -1    0    0  501    0  0.00000000000E+00 -0.00000000000E+00 -0.39980477750E+03  0.39980477750E+03  0.00000000000E+00 0. -1.
         23    2    1    2    0    0  0.30012279536E+03  0.12001663972E+03 -0.66282926571E+01  0.34665241315E+03  0.12508507173E+03 0.  0.
          5    1    3    3  502    0  0.81098044588E+02  0.20299299923E+02  0.52496592085E+02  0.98804448249E+02  0.41800000000E+01 0.  1.
         -5    1    3    3    0  502  0.21902475077E+03  0.99717339796E+02 -0.59124884742E+02  0.24784796490E+03  0.41800000000E+01 0.  1.
        -11    1    1    2    0    0 -0.13598597956E+03 -0.95483896601E+02 -0.74226829691E+02  0.18198621759E+03  0.00000000000E+00 0. -1.
         11    1    1    2    0    0 -0.16413681580E+03 -0.24532743118E+02 -0.22621129498E+02  0.16749467241E+03  0.00000000000E+00 0.  1.
</event>
<event>
 7    1  0.1068210E-005  0.7846402E+02  0.7561462E-02  0.1333468E+00
          2   -1    0    0  501    0  0.00000000000E+00  0.00000000000E+00  0.21554771105E+03  0.21554771105E+03  0.00000000000E+00 0. -1.
         -2   -1    0    0    0  501 -0.00000000000E+00 -0.00000000000E+00 -0.11758416174E+03  0.11758416174E+03  0.00000000000E+00 0.  1.
         23    2    1    2    0    0 -0.37695845345E+02 -0.34883363333E+02 -0.64629155601E+02  0.13944267412E+03  0.11238107411E+03 0.  0.
          5    1    3    3  502    0 -0.31322257502E+01 -0.12478252748E+02  0.31769379665E+02  0.34529458642E+02  0.41800000000E+01 0. -1.
         -5    1    3    3    0  502 -0.34563619594E+02 -0.22405110585E+02 -0.96398535267E+02  0.10491321548E+03  0.41800000000E+01 0.  1.
        -11    1    1    2    0    0 -0.15791225376E+02  0.44887631887E+02  0.10004408630E+03  0.11078394062E+03  0.00000000000E+00 0.  1.
         11    1    1    2    0    0  0.53487070721E+02 -0.10004268554E+02  0.62548618605E+02  0.82905258054E+02  0.00000000000E+00 0. -1.
</event>
<event>
 7    1  0.1068210E-005  0.1119947E+03  0.7561462E-02  0.1256920E+00
          1   -1    0    0  501    0  0.00000000000E+00  0.00000000000E+00  0.76923727159E+03  0.76923727159E+03  0.00000000000E+00 0. -1.
         -1   -1    0    0    0  501 -0.00000000000E+00 -0.00000000000E+00 -0.20820450638E+02  0.20820450638E+02  0.00000000000E+00 0.  1.
         23    2    1    2    0    0 -0.46643249600E+02 -0.43632671222E+02  0.38789589820E+03  0.41254043816E+03  0.12508789929E+03 0.  0.
          5    1    3    3  502    0 -0.24030051395E+02  0.33644127464E+02  0.24472817387E+03  0.24823118694E+03  0.41800000000E+01 0. -1.
         -5    1    3    3    0  502 -0.22613198205E+02 -0.77276798686E+02  0.14316772433E+03  0.16430925123E+03  0.41800000000E+01 0. -1.
        -11    1    1    2    0    0  0.48727073765E+02 -0.86459406586E+01  0.97470229616E+02  0.10931388598E+03  0.00000000000E+00 0.  1.
         11    1    1    2    0    0 -0.20838241648E+01  0.52278611881E+02  0.26305069314E+03  0.26820339808E+03  0.00000000000E+00 0. -1.
</event>
<event>
 7    1  0.1068210E-005  0.9981084E+02  0.7561462E-02  0.1280694E+00
          1   -1    0    0  501    0  0.00000000000E+00  0.00000000000E+00  0.22815575152E+02  0.22815575152E+02  0.00000000000E+00 0. -1.
         -1   -1    0    0    0  501 -0.00000000000E+00 -0.00000000000E+00 -0.61842487408E+03  0.61842487408E+03  0.00000000000E+00 0.  1.
         23    2    1    2    0    0 -0.24561711116E+02 -0.34447574004E+02 -0.40408526816E+03  0.42511506466E+03  0.12509197114E+03 0.  0.
          5    1    3    3  502    0 -0.33417097153E+01 -0.65936396049E+02 -0.36314106426E+03  0.36911743429E+03  0.41800000000E+01 0.  1.
         -5    1    3    3    0  502 -0.21220001400E+02  0.31488822045E+02 -0.40944203909E+02  0.55997630369E+02  0.41800000000E+01 0.  1.
        -11    1    1    2    0    0  0.45513667405E+02 -0.95781189453E+01 -0.60418219500E+02  0.76246937845E+02  0.00000000000E+00 0. -1.
         11    1    1    2    0    0 -0.20951956290E+02  0.44025692949E+02 -0.13110581126E+03  0.13987844672E+03  0.00000000000E+00 0.  1.
</event>
<event>
 7    1  0.1068210E-005  0.1361695E+03  0.7561462E-02  0.1218578E+00
         -1   -1    0    0    0  501 -0.00000000000E+00  0.00000000000E+00  0.86377506944E+03  0.86377506944E+03  0.00000000000E+00 0.  1.
          1   -1    0    0  501    0  0.00000000000E+00 -0.00000000000E+00 -0.25955053852E+02  0.25955053852E+02  0.00000000000E+00 0. -1.
         23    2    1    2    0    0 -0.98838758933E+02  0.39096698931E+02  0.46755355993E+03  0.49553051886E+03  0.12508601676E+03 0.  0.
          5    1    3    3  502    0  0.83403043558E+01  0.36116406481E+02  0.25200513570E+03  0.25475089070E+03  0.41800000000E+01 0.  1.
         -5    1    3    3    0  502 -0.10717906329E+03  0.29802924496E+01  0.21554842423E+03  0.24077962817E+03  0.41800000000E+01 0.  1.
        -11    1    1    2    0    0  0.22698316220E+02 -0.45986937392E+02  0.88899257763E+02  0.10263084332E+03  0.00000000000E+00 0. -1.
         11    1    1    2    0    0  0.76140442713E+02  0.68902384608E+01  0.28136719789E+03  0.29156876110E+03  0.00000000000E+00 0.  1.
</event>
<event>
 7    1  0.1068210E-005  0.1079752E+03  0.7561462E-02  0.1264366E+00
         -1   -1    0    0    0  501 -0.00000000000E+00  0.00000000000E+00  0.28805824332E+02  0.28805824332E+02  0.00000000000E+00 0.  1.
          1   -1    0    0  501    0  0.00000000000E+00 -0.00000000000E+00 -0.53237936335E+03  0.53237936335E+03  0.00000000000E+00 0. -1.
         23    2    1    2    0    0  0.57650170532E+02 -0.33711997231E+02 -0.23109699403E+03  0.27113049741E+03  0.12508351234E+03 0.  0.
          5    1    3    3  502    0 -0.23894741571E+02 -0.30653634293E+02 -0.18254268269E+02  0.43142724533E+02  0.41800000000E+01 0. -1.
         -5    1    3    3    0  502  0.81544912102E+02 -0.30583629380E+01 -0.21284272576E+03  0.22798777288E+03  0.41800000000E+01 0. -1.
        -11    1    1    2    0    0 -0.27242242110E+02 -0.19748320235E+02 -0.59272255668E+02  0.68156703260E+02  0.00000000000E+00 0.  1.
         11    1    1    2    0    0 -0.30407928421E+02  0.53460317466E+02 -0.21320428932E+03  0.22189798701E+03  0.00000000000E+00 0. -1.
</event>
<event>
 7    1  0.1068210E-005  0.1355556E+03  0.7561462E-02  0.1219438E+00
          2   -1    0    0  501    0  0.00000000000E+00  0.00000000000E+00  0.60361565367E+02  0.60361565367E+02  0.00000000000E+00 0. -1.
         -2   -1    0    0    0  501 -0.00000000000E+00 -0.00000000000E+00 -0.36522828318E+03  0.36522828318E+03  0.00000000000E+00 0.  1.
         23    2    1    2    0    0 -0.94676430364E+02 -0.30234743960E+02 -0.18812034860E+03  0.24680749921E+03  0.12508760891E+03 0.  0.
          5    1    3    3  502    0 -0.12159980143E+03 -0.48301244688E+01 -0.15368525003E+03  0.19607771492E+03  0.41800000000E+01 0.  1.
         -5    1    3    3    0  502  0.26923371070E+02 -0.25404619491E+02 -0.34435098568E+02  0.50729784295E+02  0.41800000000E+01 0.  1.
        -11    1    1    2    0    0  0.42713453429E+02 -0.12834245221E+02 -0.78090559791E+00  0.44606801811E+02  0.00000000000E+00 0. -1.
         11    1    1    2    0    0  0.51962976935E+02  0.43068989181E+02 -0.11596546362E+03  0.13417554752E+03  0.00000000000E+00 0.  1.
</event>
<event>
 7    1  0.1068210E-005  0.1044667E+03  0.7561462E-02  0.1271174E+00
         -3   -1    0    0    0  501 -0.00000000000E+00  0.00000000000E+00  0.12824773589E+03  0.12824773589E+03  0.00000000000E+00 0.  1.
          3   -1    0    0  501    0  0.00000000000E+00 -0.00000000000E+00 -0.17072640137E+03  0.17072640137E+03  0.00000000000E+00 0. -1.
         23    2    1    2    0    0 -0.12186126592E+02  0.84905363219E+02  0.29150045043E+02  0.15445087561E+03  0.12509166825E+03 0.  0.
          5    1    3    3  502    0  0.66965154045E+01  0.68483850596E+02  0.75111768293E+02  0.10195161228E+03  0.41800000000E+01 0. -1.
         -5    1    3    3    0  502 -0.18882641996E+02  0.16421512623E+02 -0.45961723250E+02  0.52499263325E+02  0.41800000000E+01 0. -1.
        -11    1    1    2    0    0  0.99692085215E+01 -0.99431815102E+02 -0.36401149458E+02  0.10635372422E+03  0.00000000000E+00 0.  1.
         11    1    1    2    0    0  0.22169180703E+01  0.14526451883E+02 -0.35227561056E+02  0.38169537435E+02  0.00000000000E+00 0. -1.
</event>
<event>
 7    1  0.1068210E-005  0.1081716E+03  0.7561462E-02  0.1263994E+00
          2   -1    0    0  501    0  0.00000000000E+00  0.00000000000E+00  0.36756997305E+02  0.36756997305E+02  0.00000000000E+00 0. -1.
         -2   -1    0    0    0  501 -0.00000000000E+00 -0.00000000000E+00 -0.38908588941E+03  0.38908588941E+03  0.00000000000E+00 0.  1.
         23    2    1    2    0    0  0.22446386649E+01 -0.18637614243E+01 -0.28625669866E+03  0.31240422590E+03  0.12507993774E+03 0.  0.
          5    1    3    3  502    0  0.58571463352E+02  0.22148504618E+02 -0.16422389915E+03  0.17580709322E+03  0.41800000000E+01 0. -1.
         -5    1    3    3    0  502 -0.56326824687E+02 -0.24012266042E+02 -0.12203279951E+03  0.13659713268E+03  0.41800000000E+01 0. -1.
        -11    1    1    2    0    0 -0.30106762520E+02 -0.34893707284E+02 -0.33047245679E+02  0.56710743289E+02  0.00000000000E+00 0. -1.
         11    1    1    2    0    0  0.27862123855E+02  0.36757468708E+02 -0.33024947769E+02  0.56727917524E+02  0.00000000000E+00 0.  1.
</event>
<event>
 7    1  0.1068210E-005  0.1889162E+03  0.7561462E-02  0.1159442E+00
         -2   -1    0    0    0  501 -0.00000000000E+00  0.00000000000E+00  0.45204276017E+03  0.45204276017E+03  0.00000000000E+00 0.  1.
          2   -1    0    0  501    0  0.00000000000E+00 -0.00000000000E+00 -0.11396298237E+03  0.11396298237E+03  0.00000000000E+00 0. -1.
         23    2    1    2    0    0  0.11579310267E+03  0.12422556558E+03  0.30502986753E+03  0.37084901405E+03  0.12508292196E+03 0.  0.
          5    1    3    3  502    0  0.74650819363E+02  0.14312887317E+03  0.26471449883E+03  0.31008040483E+03  0.41800000000E+01 0. -1.
         -5    1    3    3    0  502  0.41142283310E+02 -0.18903307583E+02  0.40315368694E+02  0.60768609220E+02  0.41800000000E+01 0. -1.
        -11    1    1    2    0    0 -0.38669309668E+01 -0.11055835683E+02  0.34024957871E+02  0.35984474650E+02  0.00000000000E+00 0.  1.
         11    1    1    2    0    0 -0.11192617171E+03 -0.11316972990E+03 -0.97504759685E+00  0.15917225385E+03  0.00000000000E+00 0. -1.
</event>
<event>
 7    1  0.1068210E-005  0.1564770E+03  0.7561462E-02  0.1192733E+00
          1   -1    0    0  501    0  0.00000000000E+00  0.00000000000E+00  0.13563128135E+03  0.13563128135E+03  0.00000000000E+00 0. -1.
         -1   -1    0    0    0  501 -0.00000000000E+00 -0.00000000000E+00 -0.19266309427E+03  0.19266309427E+03  0.00000000000E+00 0.  1.
         23    2    1    2    0    0 -0.76749803610E+02  0.87317684708E+02 -0.10144476821E+02  0.17106942887E+03  0.12508768391E+03 0.  0.
          5    1    3    3  502    0 -0.10251443602E+03  0.29298385457E+02 -0.12335325084E+02  0.10741153396E+03  0.41800000000E+01 0. -1.
         -5    1    3    3    0  502  0.25764632405E+02  0.58019299250E+02  0.21908482632E+01  0.63657894912E+02  0.41800000000E+01 0. -1.
        -11    1    1    2    0    0 -0.17314858115E+02 -0.61023239266E+01 -0.25033444039E+02  0.31043775372E+02  0.00000000000E+00 0.  1.
         11    1    1    2    0    0  0.94064661725E+02 -0.81215360781E+02 -0.21853892062E+02  0.12618117138E+03  0.00000000000E+00 0. -1.
</event>
<event>
 7    1  0.1068210E-005  0.2627867E+02  0.7561462E-02  0.1643287E+00
         -2   -1    0    0    0  501 -0.00000000000E+00  0.00000000000E+00  0.26686922401E+03  0.26686922401E+03  0.00000000000E+00 0.  1.
          2   -1    0    0  501    0  0.00000000000E+00 -0.00000000000E+00 -0.47744032344E+02  0.47744032344E+02  0.00000000000E+00 0. -1.
         23    2    1    2    0    0  0.85106986157E+01 -0.44734777109E+01  0.16827564944E+03  0.20989563174E+03  0.12508812108E+03 0.  0.
          5    1    3    3  502    0  0.96371320633E+01 -0.12720594536E+02 -0.17405225754E+02  0.23981286940E+02  0.41800000000E+01 0.  1.
         -5    1    3    3    0  502 -0.11264334477E+01  0.82471168246E+01  0.18568087520E+03  0.18591434480E+03  0.41800000000E+01 0.  1.
        -11    1    1    2    0    0 -0.10586258457E+02 -0.85191425550E+01  0.75533459593E+02  0.76745997786E+02  0.00000000000E+00 0.  1.
         11    1    1    2    0    0  0.20755598416E+01  0.12992620266E+02 -0.24683917377E+02  0.27971626823E+02  0.00000000000E+00 0. -1.
</event>
<event>
 7    1  0.1068210E-005  0.1373261E+03  0.7561462E-02  0.1216973E+00
          2   -1    0    0  501    0  0.00000000000E+00  0.00000000000E+00  0.61526333447E+03  0.61526333447E+03  0.00000000000E+00 0. -1.
         -2   -1    0    0    0  501 -0.00000000000E+00 -0.00000000000E+00 -0.39065984570E+02  0.39065984570E+02  0.00000000000E+00 0.  1.
         23    2    1    2    0    0  0.98506445126E+02  0.33499803814E+02  0.23135475898E+03  0.28283947583E+03  0.12508951994E+03 0.  0.
          5    1    3    3  502    0  0.72610429625E+02  0.68368819498E+02  0.88272761335E+02  0.13325210229E+03  0.41800000000E+01 0.  1.
         -5    1    3    3    0  502  0.25896015501E+02 -0.34869015684E+02  0.14308199764E+03  0.14958737354E+03  0.41800000000E+01 0.  1.
        -11    1    1    2    0    0 -0.51962216565E+02 -0.58597809391E+02  0.14534399955E+03  0.16510194857E+03  0.00000000000E+00 0.  1.
         11    1    1    2    0    0 -0.46544228560E+02  0.25098005578E+02  0.19949859138E+03  0.20638789465E+03  0.00000000000E+00 0. -1.
</event>
<event>
 7    1  0.1068210E-005  0.2379806E+03  0.7561462E-02  0.1121145E+00
         -1   -1    0    0    0  501 -0.00000000000E+00  0.00000000000E+00  0.12876509394E+04  0.12876509394E+04  0.00000000000E+00 0.  1.
          1   -1    0    0  501    0  0.00000000000E+00 -0.00000000000E+00 -0.50219154663E+02  0.50219154663E+02  0.00000000000E+00 0. -1.
         23    2    1    2    0    0  0.20584453401E+03  0.52114701999E+02  0.86668154654E+03  0.90103978805E+03  0.12509149524E+03 0.  0.
          5    1    3    3  502    0  0.16927037549E+02 -0.34440446678E+02  0.13602901820E+03  0.14140026577E+03  0.41800000000E+01 0.  1.
         -5    1    3    3    0  502  0.18891749646E+03  0.86555148676E+02  0.73065252834E+03  0.75963952227E+03  0.41800000000E+01 0.  1.
        -11    1    1    2    0    0 -0.19035455218E+03 -0.16971713626E+02  0.28851509459E+03  0.34606914685E+03  0.00000000000E+00 0.  1.
         11    1    1    2    0    0 -0.15489981833E+02 -0.35142988372E+02  0.82235143613E+02  0.90761159171E+02  0.00000000000E+00 0. -1.
</event>
<event>
 7    1  0.1068210E-005  0.1544037E+03  0.7561462E-02  0.1195164E+00
         -1   -1    0    0    0  501 -0.00000000000E+00  0.00000000000E+00  0.44666778951E+02  0.44666778951E+02  0.00000000000E+00 0.  1.
          1   -1    0    0  501    0  0.00000000000E+00 -0.00000000000E+00 -0.60798137001E+03  0.60798137001E+03  0.00000000000E+00 0. -1.
         23    2    1    2    0    0 -0.82682758196E+02  0.89517858745E+02 -0.35014613133E+03  0.39127801480E+03  0.12508511518E+03 0.  0.
          5    1    3    3  502    0 -0.42326444041E+02 -0.27246251088E+02 -0.11554822816E+03  0.12610611204E+03  0.41800000000E+01 0.  1.
         -5    1    3    3    0  502 -0.40356314155E+02  0.11676410983E+03 -0.23459790317E+03  0.26517190275E+03  0.41800000000E+01 0.  1.
        -11    1    1    2    0    0  0.88188454213E+02 -0.64996818767E+02 -0.11023881342E+03  0.15541681341E+03  0.00000000000E+00 0. -1.
         11    1    1    2    0    0 -0.55056960165E+01 -0.24521039978E+02 -0.10292964630E+03  0.10595332075E+03  0.00000000000E+00 0.  1.
</event>
<event>
 7    1  0.1068210E-005  0.9822311E+02  0.7561462E-02  0.1284077E+00
          1   -1    0    0  501    0  0.00000000000E+00  0.00000000000E+00  0.23548013668E+03  0.23548013668E+03  0.00000000000E+00 0.  1.
         -1   -1    0    0    0  501 -0.00000000000E+00 -0.00000000000E+00 -0.60674203742E+02  0.60674203742E+02  0.00000000000E+00 0. -1.
         23    2    1    2    0    0 -0.14680480272E+02  0.34998809482E+02  0.60380806385E+02  0.14399094637E+03  0.12508843948E+03 0.  0.
          5    1    3    3  502    0  0.20625474938E+02 -0.27013058227E+02  0.63821538971E+02  0.72427734797E+02  0.41800000000E+01 0.  1.
         -5    1    3    3    0  502 -0.35305955210E+02  0.62011867709E+02 -0.34407325856E+01  0.71563211574E+02  0.41800000000E+01 0.  1.
        -11    1    1    2    0    0 -0.26137073463E+02 -0.41842904172E+02  0.28966846362E+02  0.57210605896E+02  0.00000000000E+00 0. -1.
         11    1    1    2    0    0  0.40817553735E+02  0.68440946905E+01  0.85458280188E+02  0.94952788151E+02  0.00000000000E+00 0.  1.
</event>
<event>
 7    1  0.1068210E-005  0.1005306E+03  0.7561462E-02  0.1279184E+00
         -1   -1    0    0    0  501 -0.00000000000E+00  0.00000000000E+00  0.85008496822E+02  0.85008496822E+02  0.00000000000E+00 0.  1.
          1   -1    0    0  501    0  0.00000000000E+00 -0.00000000000E+00 -0.17231468368E+03  0.17231468368E+03  0.00000000000E+00 0. -1.
         23    2    1    2    0    0  0.37670649268E+02  0.17295474770E+02 -0.13130088949E+02  0.13243304840E+03  0.12509157369E+03 0.  0.
          5    1    3    3  502    0  0.36182976887E+02  0.67794030581E+02 -0.23946848864E+02  0.80598773994E+02  0.41800000000E+01 0. -1.
         -5    1    3    3    0  502  0.14876723814E+01 -0.50498555811E+02  0.10816759915E+02  0.51834274406E+02  0.41800000000E+01 0. -1.
        -11    1    1    2    0    0  0.16199913437E+02 -0.10022489179E+02  0.12352052959E+02  0.22703759535E+02  0.00000000000E+00 0.  1.
         11    1    1    2    0    0 -0.53870562706E+02 -0.72729855912E+01 -0.86528150869E+02  0.10218637257E+03  0.00000000000E+00 0. -1.
</event>
<event>
 7    1  0.1068210E-005  0.1547986E+03  0.7561462E-02  0.1194698E+00
         -1   -1    0    0    0  501 -0.00000000000E+00  0.00000000000E+00  0.82291380423E+02  0.82291380423E+02  0.00000000000E+00 0.  1.
          1   -1    0    0  501    0  0.00000000000E+00 -0.00000000000E+00 -0.41556216904E+03  0.41556216904E+03  0.00000000000E+00 0. -1.
         23    2    1    2    0    0  0.98058271993E+02 -0.11063026231E+03 -0.14462442616E+03  0.24171387583E+03  0.12511951680E+03 0.  0.
          5    1    3    3  502    0  0.34348777309E+02 -0.22991331618E+02  0.18792197605E+02  0.45596698598E+02  0.41800000000E+01 0. -1.
         -5    1    3    3    0  502  0.63709494684E+02 -0.87638930692E+02 -0.16341662376E+03  0.19611717724E+03  0.41800000000E+01 0. -1.
        -11    1    1    2    0    0 -0.25551879870E+02 -0.20466722288E+01 -0.11134728200E+01  0.25657888725E+02  0.00000000000E+00 0.  1.
         11    1    1    2    0    0 -0.72506392123E+02  0.11267693454E+03 -0.18753288964E+03  0.23048178491E+03  0.00000000000E+00 0. -1.
</event>
<event>
 7    1  0.1068210E-005  0.1283724E+03  0.7561462E-02  0.1229891E+00
          1   -1    0    0  501    0  0.00000000000E+00  0.00000000000E+00  0.91333265456E+03  0.91333265456E+03  0.00000000000E+00 0. -1.
         -1   -1    0    0    0  501 -0.00000000000E+00 -0.00000000000E+00 -0.20896396491E+02  0.20896396491E+02  0.00000000000E+00 0.  1.
         23    2    1    2    0    0  0.44727062552E+02  0.74595854178E+02  0.45797067790E+03  0.48264896699E+03  0.12509129443E+03 0.  0.
          5    1    3    3  502    0  0.77385871504E+02  0.60161425459E+02  0.20649687371E+03  0.22861846267E+03  0.41800000000E+01 0. -1.
         -5    1    3    3    0  502 -0.32658808953E+02  0.14434428719E+02  0.25147380418E+03  0.25403050432E+03  0.41800000000E+01 0. -1.
        -11    1    1    2    0    0  0.10392091545E+02 -0.66103852475E+02  0.21744834570E+03  0.22751153361E+03  0.00000000000E+00 0. -1.
         11    1    1    2    0    0 -0.55119154097E+02 -0.84920017028E+01  0.21701723448E+03  0.22406855045E+03  0.00000000000E+00 0.  1.
</event>
<event>
 7    1  0.1068210E-005  0.7998526E+02  0.7561462E-02  0.1329093E+00
          2   -1    0    0  501    0  0.00000000000E+00  0.00000000000E+00  0.63699127651E+03  0.63699127651E+03  0.00000000000E+00 0. -1.
         -2   -1    0    0    0  501 -0.00000000000E+00 -0.00000000000E+00 -0.20099012741E+02  0.20099012741E+02  0.00000000000E+00 0.  1.
         23    2    1    2    0    0  0.30131467006E+01  0.14167580315E+02  0.27971852268E+03  0.30675525348E+03  0.12508610724E+03 0.  0.
          5    1    3    3  502    0 -0.33190605702E+02  0.20496186209E+02  0.26343449435E+03  0.26633984900E+03  0.41800000000E+01 0.  1.
         -5    1    3    3    0  502  0.36203752402E+02 -0.63286058938E+01  0.16284028334E+02  0.40415404481E+02  0.41800000000E+01 0.  1.
        -11    1    1    2    0    0 -0.37446696407E+02  0.13261344908E+02  0.78901679669E+02  0.88337949915E+02  0.00000000000E+00 0.  1.
         11    1    1    2    0    0  0.34433549707E+02 -0.27428925223E+02  0.25827206142E+03  0.26199708585E+03  0.00000000000E+00 0. -1.
</event>
<event>
 7    1  0.1068210E-005  0.1026619E+03  0.7561462E-02  0.1274796E+00
         -1   -1    0    0    0  501 -0.00000000000E+00  0.00000000000E+00  0.56413974121E+03  0.56413974121E+03  0.00000000000E+00 0.  1.
          1   -1    0    0  501    0  0.00000000000E+00 -0.00000000000E+00 -0.36829958582E+02  0.36829958582E+02  0.00000000000E+00 0. -1.
         23    2    1    2    0    0 -0.43184207312E+02 -0.76849607898E+02  0.36122255510E+03  0.39229638086E+03  0.12507588947E+03 0.  0.
          5    1    3    3  502    0 -0.29581857126E+02 -0.23728470018E+02  0.32318529924E+03  0.32542946487E+03  0.41800000000E+01 0. -1.
         -5    1    3    3    0  502 -0.13602350186E+02 -0.53121137880E+02  0.38037255857E+02  0.66866915985E+02  0.41800000000E+01 0. -1.
        -11    1    1    2    0    0  0.65876024854E+01  0.75258526856E+02  0.15141100271E+03  0.16921150703E+03  0.00000000000E+00 0.  1.
         11    1    1    2    0    0  0.36596604826E+02  0.15910810415E+01  0.14676224824E+02  0.39461811904E+02  0.00000000000E+00 0. -1.
</event>
<event>
 7    1  0.1068210E-005  0.1003660E+03  0.7561462E-02  0.1279528E+00
          1   -1    0    0  501    0  0.00000000000E+00  0.00000000000E+00  0.57874167232E+03  0.57874167232E+03  0.00000000000E+00 0. -1.
         -1   -1    0    0    0  501 -0.00000000000E+00 -0.00000000000E+00 -0.19652535803E+02  0.19652535803E+02  0.00000000000E+00 0.  1.
         23    2    1    2    0    0  0.39281913889E+02  0.40613647742E+00  0.27555652806E+03  0.30516233451E+03  0.12509762806E+03 0.  0.
          5    1    3    3  502    0  0.55447625178E+02 -0.51030321871E+02  0.18321483202E+03  0.19815064966E+03  0.41800000000E+01 0.  1.
         -5    1    3    3    0  502 -0.16165711289E+02  0.51436458348E+02  0.92341696034E+02  0.10701168485E+03  0.41800000000E+01 0.  1.
        -11    1    1    2    0    0 -0.14025793617E+02  0.29123068135E+02  0.85136807284E+02  0.91066744417E+02  0.00000000000E+00 0.  1.
         11    1    1    2    0    0 -0.25256120273E+02 -0.29529204613E+02  0.19839580118E+03  0.20216512919E+03  0.00000000000E+00 0. -1.
</event>
<event>
 7    1  0.1068210E-005  0.6980378E+02  0.7561462E-02  0.1360762E+00
         -2   -1    0    0    0  501 -0.00000000000E+00  0.00000000000E+00  0.75463786278E+02  0.75463786278E+02  0.00000000000E+00 0. -1.
          2   -1    0    0  501    0  0.00000000000E+00 -0.00000000000E+00 -0.20824651721E+03  0.20824651721E+03  0.00000000000E+00 0.  1.
         23    2    1    2    0    0  0.52458817939E+02  0.34353885057E+02 -0.60736436510E+02  0.15253694618E+03  0.12508592339E+03 0.  0.
          5    1    3    3  502    0  0.57308600289E+02  0.38492806017E+02 -0.94958593398E+02  0.11747586408E+03  0.41800000000E+01 0. -1.
         -5    1    3    3    0  502 -0.48497823499E+01 -0.41389209592E+01  0.34222156888E+02  0.35061082094E+02  0.41800000000E+01 0. -1.
        -11    1    1    2    0    0 -0.29467332410E+02 -0.17038115985E+02 -0.90698522708E+02  0.96875399855E+02  0.00000000000E+00 0.  1.
         11    1    1    2    0    0 -0.22991485529E+02 -0.17315769072E+02  0.18652228287E+02  0.34297957453E+02  0.00000000000E+00 0. -1.
</event>
<event>
 7    1  0.1068210E-005  0.1244375E+03  0.7561462E-02  0.1235951E+00
         -2   -1    0    0    0  501 -0.00000000000E+00  0.00000000000E+00  0.17190635527E+03  0.17190635527E+03  0.00000000000E+00 0.  1.
          2   -1    0    0  501    0  0.00000000000E+00 -0.00000000000E+00 -0.13786672248E+03  0.13786672248E+03  0.00000000000E+00 0. -1.
         23    2    1    2    0    0 -0.10033819982E+03  0.34538798176E+02  0.44348826637E+02  0.16992737011E+03  0.12509120580E+03 0.  0.
          5    1    3    3  502    0 -0.55588608158E+02  0.37366562487E+01 -0.40559328714E+02  0.69040477277E+02  0.41800000000E+01 0.  1.
         -5    1    3    3    0  502 -0.44749591661E+02  0.30802141927E+02  0.84908155351E+02  0.10088689284E+03  0.41800000000E+01 0.  1.
        -11    1    1    2    0    0 -0.63696714517E+01 -0.31109551656E+02 -0.92601472463E+01  0.33077594315E+02  0.00000000000E+00 0. -1.
         11    1    1    2    0    0  0.10670787127E+03 -0.34292465192E+01 -0.10490465971E+01  0.10676811332E+03  0.00000000000E+00 0.  1.
</event>
<event>
 7    1  0.1068210E-005  0.1266744E+03  0.7561462E-02  0.1232475E+00
         -4   -1    0    0    0  501 -0.00000000000E+00  0.00000000000E+00  0.35432592339E+03  0.35432592339E+03  0.00000000000E+00 0.  1.
          4   -1    0    0  501    0  0.00000000000E+00 -0.00000000000E+00 -0.70900993612E+02  0.70900993612E+02  0.00000000000E+00 0. -1.
         23    2    1    2    0    0 -0.83083345519E+02 -0.73698375384E+02  0.19217529354E+03  0.25477739950E+03  0.12508352015E+03 0.  0.
          5    1    3    3  502    0 -0.48442693088E+02 -0.14139484555E+02  0.59089859352E-01  0.50636897897E+02  0.41800000000E+01 0.  1.
         -5    1    3    3    0  502 -0.34640652431E+02 -0.59558890829E+02  0.19211620368E+03  0.20414050161E+03  0.41800000000E+01 0.  1.
        -11    1    1    2    0    0 -0.13856808088E+02  0.44572351585E+01  0.36590551665E+02  0.39379519383E+02  0.00000000000E+00 0.  1.
         11    1    1    2    0    0  0.96940153606E+02  0.69241140226E+02  0.54659084574E+02  0.13106999812E+03  0.00000000000E+00 0. -1.
</event>
<event>
 7    1  0.1068210E-005  0.1252730E+03  0.7561462E-02  0.1234643E+00
          2   -1    0    0  501    0  0.00000000000E+00  0.00000000000E+00  0.53935991901E+03  0.53935991901E+03  0.00000000000E+00 0.  1.
         -2   -1    0    0    0  501 -0.00000000000E+00 -0.00000000000E+00 -0.52572911175E+02  0.52572911175E+02  0.00000000000E+00 0. -1.
         23    2    1    2    0    0 -0.46615642244E+02  0.80752508458E+02  0.10349459472E+03  0.18722409494E+03  0.12509094638E+03 0.  0.
          5    1    3    3  502    0 -0.48535045154E+02 -0.98037558600E+01  0.78952486167E+02  0.93288432879E+02  0.41800000000E+01 0. -1.
         -5    1    3    3    0  502  0.19194029099E+01  0.90556264318E+02  0.24542108556E+02  0.93935662062E+02  0.41800000000E+01 0. -1.
        -11    1    1    2    0    0  0.46075786631E+02 -0.21359243200E+02  0.28783587377E+03  0.29228185988E+03  0.00000000000E+00 0.  1.
         11    1    1    2    0    0  0.53985561237E+00 -0.59393265257E+02  0.95456539347E+02  0.11242687537E+03  0.00000000000E+00 0. -1.
</event>
<event>
 7    1  0.1068210E-005  0.1888872E+03  0.7561462E-02  0.1159469E+00
         -2   -1    0    0    0  501 -0.00000000000E+00  0.00000000000E+00  0.15743253351E+02  0.15743253351E+02  0.00000000000E+00 0.  1.
          2   -1    0    0  501    0  0.00000000000E+00 -0.00000000000E+00 -0.24199844007E+04  0.24199844007E+04  0.00000000000E+00 0. -1.
         23    2    1    2    0    0  0.84300200945E+02 -0.13628230620E+03 -0.13914463837E+04  0.14062140010E+04  0.12504154179E+03 0.  0.
          5    1    3    3  502    0  0.95903128737E+02 -0.54087861411E+02 -0.99931992181E+03  0.10053758926E+04  0.41800000000E+01 0.  1.
         -5    1    3    3    0  502 -0.11602927792E+02 -0.82194444787E+02 -0.39212646186E+03  0.40083810844E+03  0.41800000000E+01 0.  1.
        -11    1    1    2    0    0  0.11928025933E+02  0.61392685911E+02 -0.37200860931E+03  0.37722903532E+03  0.00000000000E+00 0. -1.
         11    1    1    2    0    0 -0.96228226879E+02  0.74889620287E+02 -0.64078615439E+03  0.65228461773E+03  0.00000000000E+00 0.  1.
</event>
<event>
 7    1  0.1068210E-005  0.7895150E+02  0.7561462E-02  0.1332054E+00
         -2   -1    0    0    0  501 -0.00000000000E+00  0.00000000000E+00  0.30044651055E+02  0.30044651055E+02  0.00000000000E+00 0.  1.
          2   -1    0    0  501    0  0.00000000000E+00 -0.00000000000E+00 -0.40430795003E+03  0.40430795003E+03  0.00000000000E+00 0. -1.
         23    2    1    2    0    0 -0.18561986250E+02  0.67427762837E+01 -0.22492670388E+03  0.25812035970E+03  0.12507631914E+03 0.  0.
          5    1    3    3  502    0 -0.45426491947E+02  0.30146753948E+02 -0.21361994949E+03  0.22050702521E+03  0.41800000000E+01 0.  1.
         -5    1    3    3    0  502  0.26864505697E+02 -0.23403977665E+02 -0.11306754383E+02  0.37613334491E+02  0.41800000000E+01 0.  1.
        -11    1    1    2    0    0 -0.24131248452E+02 -0.48545223267E+01 -0.42450916062E+01  0.24978077220E+02  0.00000000000E+00 0.  1.
         11    1    1    2    0    0  0.42693234701E+02 -0.18882539570E+01 -0.14509150350E+03  0.15125416417E+03  0.00000000000E+00 0. -1.
</event>
<event>
 7    1  0.1068210E-005  0.2255302E+03  0.7561462E-02  0.1129826E+00
          2   -1    0    0  501    0  0.00000000000E+00  0.00000000000E+00  0.43396294729E+03  0.43396294729E+03  0.00000000000E+00 0.  1.
         -2   -1    0    0    0  501 -0.00000000000E+00 -0.00000000000E+00 -0.13202457355E+03  0.13202457355E+03  0.00000000000E+00 0. -1.
         23    2    1    2    0    0 -0.75006732605E+02 -0.19383189200E+03  0.96291535815E+02  0.26099015074E+03  0.12508791557E+03 0.  0.
          5    1    3    3  502    0  0.25416462176E+02 -0.40232460776E+01  0.20731809748E+02  0.33308608406E+02  0.41800000000E+01 0.  1.
         -5    1    3    3    0  502 -0.10042319478E+03 -0.18980864592E+03  0.75559726067E+02  0.22768154234E+03  0.41800000000E+01 0.  1.
        -11    1    1    2    0    0  0.70932480425E+02  0.14716222972E+03  0.19933675934E+03  0.25772714692E+03  0.00000000000E+00 0.  1.
         11    1    1    2    0    0  0.40742521807E+01  0.46669662275E+02  0.63100785889E+01  0.47270223180E+02  0.00000000000E+00 0. -1.
</event>
<event>
 7    1  0.1068210E-005  0.9763104E+02  0.7561462E-02  0.1285358E+00
         -2   -1    0    0    0  501 -0.00000000000E+00  0.00000000000E+00  0.15594745188E+02  0.15594745188E+02  0.00000000000E+00 0.  1.
          2   -1    0    0  501    0  0.00000000000E+00 -0.00000000000E+00 -0.97323027222E+03  0.97323027222E+03  0.00000000000E+00 0. -1.
         23    2    1    2    0    0  0.50670995693E+02 -0.37702025603E+01 -0.60523106507E+03  0.62010821604E+03  0.12509113975E+03 0.  0.
          5    1    3    3  502    0  0.59788602246E+02  0.27164910779E+02 -0.15100820714E+03  0.16472267712E+03  0.41800000000E+01 0.  1.
         -5    1    3    3    0  502 -0.91176065528E+01 -0.30935113339E+02 -0.45422285793E+03  0.45538553892E+03  0.41800000000E+01 0.  1.
        -11    1    1    2    0    0 -0.68388578648E+02 -0.16159320497E+02 -0.31522663450E+03  0.32296432067E+03  0.00000000000E+00 0. -1.
         11    1    1    2    0    0  0.17717582955E+02  0.19929523057E+02 -0.37177827465E+02  0.45752480698E+02  0.00000000000E+00 0.  1.
</event>
<event>
 7    1  0.1068210E-005  0.1186422E+03  0.7561462E-02  0.1245354E+00
         -1   -1    0    0    0  501 -0.00000000000E+00  0.00000000000E+00  0.32992184981E+02  0.32992184981E+02  0.00000000000E+00 0.  1.
          1   -1    0    0  501    0  0.00000000000E+00 -0.00000000000E+00 -0.65204320116E+03  0.65204320116E+03  0.00000000000E+00 0. -1.
         23    2    1    2    0    0  0.22347105803E+02 -0.90597391699E+02 -0.25754221892E+03  0.30115949817E+03  0.12514698673E+03 0.  0.
          5    1    3    3  502    0  0.54087289523E+02 -0.26032436974E+02 -0.40669351582E+02  0.72626381026E+02  0.41800000000E+01 0. -1.
         -5    1    3    3    0  502 -0.31740183720E+02 -0.64564954725E+02 -0.21687286734E+03  0.22853311714E+03  0.41800000000E+01 0. -1.
        -11    1    1    2    0    0  0.10710278591E+02  0.56685804310E+02 -0.81268559500E+02  0.99662275917E+02  0.00000000000E+00 0.  1.
         11    1    1    2    0    0 -0.33057384394E+02  0.33911587389E+02 -0.28024023775E+03  0.28421361206E+03  0.00000000000E+00 0. -1.
</event>
<event>
 6    1  0.1068210E-005  0.1006189E+03  0.7561462E-02  0.1279000E+00
         -2   -1    0    0    0  501 -0.00000000000E+00  0.00000000000E+00  0.41517095617E+03  0.41517095617E+03  0.00000000000E+00 0.  1.
          2   -1    0    0  501    0  0.00000000000E+00 -0.00000000000E+00 -0.58606106148E+02  0.58606106148E+02  0.00000000000E+00 0. -1.
          5    1    1    2  502    0  0.76955623965E+02 -0.42824588661E+02  0.46309459318E+02  0.99589918547E+02  0.41800000000E+01 0. -1.
         -5    1    1    2    0  502 -0.34683183694E+02  0.36275348637E+02  0.26559043160E+03  0.27032309170E+03  0.41800000000E+01 0.  1.
        -11    1    1    2    0    0  0.69796280156E+01 -0.86959607152E+01 -0.18945423028E+02  0.21983266220E+02  0.00000000000E+00 0. -1.
         11    1    1    2    0    0 -0.49252068286E+02  0.15245200739E+02  0.63610382126E+02  0.81880785843E+02  0.00000000000E+00 0.  1.
</event>
<event>
 7    1  0.1068210E-005  0.2129262E+03  0.7561462E-02  0.1139269E+00
          2   -1    0    0  501    0  0.00000000000E+00  0.00000000000E+00  0.87207827019E+03  0.87207827019E+03  0.00000000000E+00 0. -1.
         -2   -1    0    0    0  501 -0.00000000000E+00 -0.00000000000E+00 -0.87914342691E+02  0.87914342691E+02  0.00000000000E+00 0.  1.
         23    2    1    2    0    0  0.19207154390E+03  0.53934259781E+02  0.12797290915E+03  0.26800168172E+03  0.12508978206E+03 0.  0.
          5    1    3    3  502    0  0.18369805692E+03  0.13554423076E+02  0.70790883823E+02  0.19737659470E+03  0.41800000000E+01 0. -1.
         -5    1    3    3    0  502  0.83734869720E+01  0.40379836704E+02  0.57182025325E+02  0.70625087021E+02  0.41800000000E+01 0. -1.
        -11    1    1    2    0    0 -0.10581923309E+03 -0.21324952907E+02  0.20724263936E+03  0.23367065557E+03  0.00000000000E+00 0.  1.
         11    1    1    2    0    0 -0.86252310806E+02 -0.32609306874E+02  0.44894837899E+03  0.45832027558E+03  0.00000000000E+00 0. -1.
</event>
<event>
 7    1  0.1068210E-005  0.1033067E+03  0.7561462E-02  0.1273492E+00
          1   -1    0    0  501    0  0.00000000000E+00  0.00000000000E+00  0.30858187508E+03  0.30858187508E+03  0.00000000000E+00 0. -1.
         -1   -1    0    0    0  501 -0.00000000000E+00 -0.00000000000E+00 -0.45699737117E+02  0.45699737117E+02  0.00000000000E+00 0.  1.
         23    2    1    2    0    0 -0.18467237374E+02 -0.83714922620E+01  0.98204865945E+02  0.16032075436E+03  0.12508967921E+03 0.  0.
          5    1    3    3  502    0 -0.54830881922E+02  0.19530632843E+02  0.98275765513E+02  0.11429553674E+03  0.41800000000E+01 0.  1.
         -5    1    3    3    0  502  0.36363644548E+02 -0.27902125105E+02 -0.70899567719E-01  0.46025217619E+02  0.41800000000E+01 0.  1.
        -11    1    1    2    0    0 -0.41657104449E+02  0.57441737646E+01  0.61179669587E+02  0.74237873448E+02  0.00000000000E+00 0. -1.
         11    1    1    2    0    0  0.60124341824E+02  0.26273184974E+01  0.10349760243E+03  0.11972298439E+03  0.00000000000E+00 0.  1.
</event>
<event>
 7    1  0.1068210E-005  0.1133004E+03  0.7561462E-02  0.1254577E+00
          1   -1    0    0  501    0  0.00000000000E+00  0.00000000000E+00  0.25228267887E+03  0.25228267887E+03  0.00000000000E+00 0. -1.
         -1   -1    0    0    0  501 -0.00000000000E+00 -0.00000000000E+00 -0.61939542585E+02  0.61939542585E+02  0.00000000000E+00 0.  1.
         23    2    1    2    0    0 -0.22325771460E+02 -0.38797864754E+02  0.52357870265E+02  0.14280096087E+03  0.12508818275E+03 0.  0.
          5    1    3    3  502    0  0.48082231846E+02 -0.26434639118E+02  0.44487756119E+02  0.70762447733E+02  0.41800000000E+01 0. -1.
         -5    1    3    3    0  502 -0.70408003307E+02 -0.12363225636E+02  0.78701141458E+01  0.72038513133E+02  0.41800000000E+01 0. -1.
        -11    1    1    2    0    0  0.26711058334E+02 -0.24661077897E+02  0.35582619823E+02  0.50870150715E+02  0.00000000000E+00 0.  1.
         11    1    1    2    0    0 -0.43852868733E+01  0.63458942651E+02  0.10240264620E+03  0.12055110987E+03  0.00000000000E+00 0. -1.
</event>
<event>
 7    1  0.1068210E-005  0.9511842E+02  0.7561462E-02  0.1290910E+00
          2   -1    0    0  501    0  0.00000000000E+00  0.00000000000E+00  0.21846254281E+03  0.21846254281E+03  0.00000000000E+00 0. -1.
         -2   -1    0    0    0  501 -0.00000000000E+00 -0.00000000000E+00 -0.57365339751E+02  0.57365339751E+02  0.00000000000E+00 0.  1.
         23    2    1    2    0    0  0.14989605068E+02  0.17628618122E+02  0.67856222178E+02  0.14417669805E+03  0.12508795679E+03 0.  0.
          5    1    3    3  502    0  0.49784572883E+02  0.44114780894E+02  0.74261486687E+02  0.99784058824E+02  0.41800000000E+01 0. -1.
         -5    1    3    3    0  502 -0.34794967815E+02 -0.26486162772E+02 -0.64052645089E+01  0.44392639221E+02  0.41800000000E+01 0. -1.
        -11    1    1    2    0    0  0.27961678580E+02  0.86965602446E+01  0.70577437226E+02  0.76411126641E+02  0.00000000000E+00 0. -1.
         11    1    1    2    0    0 -0.42951283648E+02 -0.26325178367E+02  0.22663543656E+02  0.55240057876E+02  0.00000000000E+00 0.  1.
</event>
<event>
 7    1  0.1068210E-005  0.1039585E+03  0.7561462E-02  0.1272185E+00
         -2   -1    0    0    0  501 -0.00000000000E+00  0.00000000000E+00  0.64775387430E+02  0.64775387430E+02  0.00000000000E+00 0. -1.
          2   -1    0    0  501    0  0.00000000000E+00 -0.00000000000E+00 -0.24902966165E+03  0.24902966165E+03  0.00000000000E+00 0.  1.
         23    2    1    2    0    0  0.48821663818E+02  0.99017630316E+01 -0.53216326120E+02  0.14478082166E+03  0.12509160317E+03 0.  0.
          5    1    3    3  502    0  0.70539163173E+02 -0.19812958858E+02  0.73816191661E+01  0.73758305169E+02  0.41800000000E+01 0. -1.
         -5    1    3    3    0  502 -0.21717499355E+02  0.29714721890E+02 -0.60597945286E+02  0.71022516487E+02  0.41800000000E+01 0. -1.
        -11    1    1    2    0    0  0.14183513980E+02  0.22531677637E+02 -0.93714809978E+01  0.28225400299E+02  0.00000000000E+00 0. -1.
         11    1    1    2    0    0 -0.63005177797E+02 -0.32433440668E+02 -0.12166646710E+03  0.14079882713E+03  0.00000000000E+00 0.  1.
</event>
<event>
 7    1  0.3966541E-005  0.2046647E+03  0.7561462E-02  0.1145862E+00
          3   -1    0    0  501    0  0.00000000000E+00  0.00000000000E+00  0.67428440493E+02  0.67428440493E+02  0.00000000000E+00 0. -1.
         -3   -1    0    0    0  501 -0.00000000000E+00 -0.00000000000E+00 -0.72128295726E+03  0.72128295726E+03  0.00000000000E+00 0.  1.
         23    2    1    2    0    0 -0.18030406276E+03  0.45460533489E+02 -0.42152614564E+03  0.47739714331E+03  0.12509007087E+03 0.  0.
          5    1    3    3  502    0 -0.14862332741E+02 -0.35354434036E+02 -0.54736974041E+02  0.66965914223E+02  0.41800000000E+01 0.  1.
         -5    1    3    3    0  502 -0.16544173002E+03  0.80814967525E+02 -0.36678917160E+03  0.41043122909E+03  0.41800000000E+01 0.  1.
        -11    1    1    2    0    0  0.12967832637E+03 -0.39737938192E+02 -0.97095746033E+02  0.16680274566E+03  0.00000000000E+00 0. -1.
         11    1    1    2    0    0  0.50625736391E+02 -0.57225952971E+01 -0.13523262509E+03  0.14451150878E+03  0.00000000000E+00 0.  1.
</event>
<event>
 7    1  0.1068210E-005  0.5299290E+02  0.7561462E-02  0.1429836E+00
         -3   -1    0    0    0  501 -0.00000000000E+00  0.00000000000E+00  0.86446231504E+02  0.86446231504E+02  0.00000000000E+00 0.  1.
          3   -1    0    0  501    0  0.00000000000E+00 -0.00000000000E+00 -0.15387129800E+03  0.15387129800E+03  0.00000000000E+00 0. -1.
         23    2    1    2    0    0  0.40349411213E+02  0.13762741782E+02 -0.15391119043E+01  0.13216488488E+03  0.12509076658E+03 0.  0.
          5    1    3    3  502    0  0.16623313556E+02 -0.16824890815E+02 -0.58459707197E+02  0.63201434082E+02  0.41800000000E+01 0. -1.
         -5    1    3    3    0  502  0.23726097657E+02  0.30587632597E+02  0.56920595292E+02  0.68963450801E+02  0.41800000000E+01 0. -1.
        -11    1    1    2    0    0 -0.12718438024E+02 -0.72636961658E+01  0.15878082311E+02  0.21601700064E+02  0.00000000000E+00 0.  1.
         11    1    1    2    0    0 -0.27630973189E+02 -0.64990456164E+01 -0.81764036902E+02  0.86550944558E+02  0.00000000000E+00 0. -1.
</event>
<event>
 7    1  0.1068210E-005  0.1229417E+03  0.7561462E-02  0.1238322E+00
          1   -1    0    0  501    0  0.00000000000E+00  0.00000000000E+00  0.11323278702E+03  0.11323278702E+03  0.00000000000E+00 0. -1.
         -1   -1    0    0    0  501 -0.00000000000E+00 -0.00000000000E+00 -0.21701936493E+03  0.21701936493E+03  0.00000000000E+00 0.  1.
         23    2    1    2    0    0  0.60121239401E+02 -0.73668480153E+02 -0.12424761904E+03  0.20031587515E+03  0.12508945041E+03 0.  0.
          5    1    3    3  502    0  0.51269667519E-02  0.15805247939E+02 -0.83366739077E+02  0.84954643622E+02  0.41800000000E+01 0. -1.
         -5    1    3    3    0  502  0.60116112434E+02 -0.89473728092E+02 -0.40880879965E+02  0.11536123153E+03  0.41800000000E+01 0. -1.
        -11    1    1    2    0    0 -0.76663806044E+01  0.68526096142E+02 -0.90266124573E+01  0.69541922439E+02  0.00000000000E+00 0.  1.
         11    1    1    2    0    0 -0.52454858797E+02  0.51423840108E+01  0.29487653589E+02  0.60394354363E+02  0.00000000000E+00 0. -1.
</event>
<event>
 7    1  0.1068210E-005  0.9742701E+02  0.7561462E-02  0.1285802E+00
          2   -1    0    0  501    0  0.00000000000E+00  0.00000000000E+00  0.43286056244E+02  0.43286056244E+02  0.00000000000E+00 0. -1.
         -2   -1    0    0    0  501 -0.00000000000E+00 -0.00000000000E+00 -0.47200732326E+03  0.47200732326E+03  0.00000000000E+00 0.  1.
         23    2    1    2    0    0  0.53871350467E+02  0.17550366614E+02 -0.36753020682E+03  0.39234689823E+03  0.12508995904E+03 0.  0.
          5    1    3    3  502    0  0.33556799782E+02 -0.28518524386E+02 -0.36124563994E+02  0.57112359157E+02  0.41800000000E+01 0. -1.
         -5    1    3    3    0  502  0.20314550685E+02  0.46068890999E+02 -0.33140564283E+03  0.33523453907E+03  0.41800000000E+01 0. -1.
        -11    1    1    2    0    0 -0.64403630368E+02 -0.39638935864E+02 -0.62972829030E+02  0.98410619534E+02  0.00000000000E+00 0.  1.
         11    1    1    2    0    0  0.10532279901E+02  0.22088569250E+02  0.17817688332E+01  0.24535861746E+02  0.00000000000E+00 0. -1.
</event>
<event>
 7    1  0.1068210E-005  0.9980478E+02  0.7561462E-02  0.1280707E+00
         -1   -1    0    0    0  501 -0.00000000000E+00  0.00000000000E+00  0.28479063141E+03  0.28479063141E+03  0.00000000000E+00 0.  1.
          1   -1    0    0  501    0  0.00000000000E+00 -0.00000000000E+00 -0.49791527337E+02  0.49791527337E+02  0.00000000000E+00 0. -1.
         23    2    1    2    0    0 -0.20048530568E+02  0.28051605183E+02  0.17965684872E+03  0.22161513054E+03  0.12509135326E+03 0.  0.
          5    1    3    3  502    0  0.15227180536E+02  0.61298213876E+02  0.15423741982E+03  0.16672130075E+03  0.41800000000E+01 0.  1.
         -5    1    3    3    0  502 -0.35275711105E+02 -0.33246608693E+02  0.25419428907E+02  0.54893829794E+02  0.41800000000E+01 0.  1.
        -11    1    1    2    0    0  0.29040247216E+02 -0.53386192148E+02  0.60320533392E+02  0.85627029723E+02  0.00000000000E+00 0.  1.
         11    1    1    2    0    0 -0.89917166472E+01  0.25334586965E+02 -0.49782780399E+01  0.27339998486E+02  0.00000000000E+00 0. -1.
</event>
<event>
 7    1  0.1068210E-005  0.1238637E+03  0.7561462E-02  0.1236856E+00
          2   -1    0    0  501    0  0.00000000000E+00  0.00000000000E+00  0.13196191330E+04  0.13196191330E+04  0.00000000000E+00 0. -1.
         -2   -1    0    0    0  501 -0.00000000000E+00 -0.00000000000E+00 -0.15826242538E+02  0.15826242538E+02  0.00000000000E+00 0.  1.
         23    2    1    2    0    0  0.86494114823E+02  0.30918018811E+02  0.58562093484E+03  0.60583538547E+03  0.12508988440E+03 0.  0.
          5    1    3    3  502    0  0.86402128487E+00 -0.19256973308E+02  0.10786306691E+02  0.22480977866E+02  0.41800000000E+01 0. -1.
         -5    1    3    3    0  502  0.85630093538E+02  0.50174992119E+02  0.57483462815E+03  0.58335440761E+03  0.41800000000E+01 0. -1.
        -11    1    1    2    0    0 -0.74110837681E+02 -0.61096097711E+02  0.53086282967E+03  0.53948168953E+03  0.00000000000E+00 0. -1.
         11    1    1    2    0    0 -0.12383277142E+02  0.30178078900E+02  0.18730912599E+03  0.19012830057E+03  0.00000000000E+00 0.  1.
</event>
<event>
 7    1  0.1068210E-005  0.1032750E+03  0.7561462E-02  0.1273556E+00
         -2   -1    0    0    0  501 -0.00000000000E+00  0.00000000000E+00  0.13453825248E+02  0.13453825248E+02  0.00000000000E+00 0.  1.
          2   -1    0    0  501    0  0.00000000000E+00 -0.00000000000E+00 -0.91508875321E+03  0.91508875321E+03  0.00000000000E+00 0. -1.
         23    2    1    2    0    0 -0.23985147973E+00  0.17298264922E+02 -0.43156399100E+03  0.44965291882E+03  0.12506390999E+03 0.  0.
          5    1    3    3  502    0  0.47135592669E+02 -0.24267028056E+02 -0.11301285624E+03  0.12490008336E+03  0.41800000000E+01 0. -1.
         -5    1    3    3    0  502 -0.47375444149E+02  0.41565292978E+02 -0.31855113476E+03  0.32475283547E+03  0.41800000000E+01 0. -1.
        -11    1    1    2    0    0  0.31653431308E+02 -0.40319956738E+02 -0.30568393827E+03  0.30995210717E+03  0.00000000000E+00 0. -1.
         11    1    1    2    0    0 -0.31413579828E+02  0.23021691816E+02 -0.16438699869E+03  0.16893755246E+03  0.00000000000E+00 0.  1.
</event>
<event>
 7    1  0.1068210E-005  0.1894835E+03  0.7561462E-02  0.1158928E+00
         -3   -1    0    0    0  501 -0.00000000000E+00  0.00000000000E+00  0.24664111568E+03  0.24664111568E+03  0.00000000000E+00 0.  1.
          3   -1    0    0  501    0  0.00000000000E+00 -0.00000000000E+00 -0.16636676640E+03  0.16636676640E+03  0.00000000000E+00 0. -1.
         23    2    1    2    0    0  0.70111252900E+02  0.15441468802E+03  0.60619048192E+02  0.21927543892E+03  0.12509022923E+03 0.  0.
          5    1    3    3  502    0 -0.21958886697E+02  0.97470433224E+02  0.12666355473E+02  0.10079973720E+03  0.41800000000E+01 0.  1.
         -5    1    3    3    0  502  0.92070139597E+02  0.56944254797E+02  0.47952692719E+02  0.11847570172E+03  0.41800000000E+01 0.  1.
        -11    1    1    2    0    0 -0.24658161283E+02 -0.77052194764E+02  0.54424591375E+02  0.97504368016E+02  0.00000000000E+00 0.  1.
         11    1    1    2    0    0 -0.45453091617E+02 -0.77362493257E+02 -0.34769290286E+02  0.96228075152E+02  0.00000000000E+00 0. -1.
</event>
<event>
 7    1  0.1068210E-005  0.9558262E+02  0.7561462E-02  0.1289869E+00
          3   -1    0    0  501    0  0.00000000000E+00  0.00000000000E+00  0.54417437995E+03  0.54417437995E+03  0.00000000000E+00 0. -1.
         -3   -1    0    0    0  501 -0.00000000000E+00 -0.00000000000E+00 -0.29360830148E+02  0.29360830148E+02  0.00000000000E+00 0.  1.
         23    2    1    2    0    0  0.11675897839E+02  0.33194246676E+02  0.16539012676E+03  0.21033206803E+03  0.12508996847E+03 0.  0.
          5    1    3    3  502    0  0.40882519092E+02 -0.16670759971E+02  0.14039119407E+03  0.14722925789E+03  0.41800000000E+01 0.  1.
         -5    1    3    3    0  502 -0.29206621253E+02  0.49865006646E+02  0.24998932690E+02  0.63102810147E+02  0.41800000000E+01 0.  1.
        -11    1    1    2    0    0  0.34781288404E+02 -0.21781692403E+02  0.24408413099E+03  0.24751008696E+03  0.00000000000E+00 0. -1.
         11    1    1    2    0    0 -0.46457186243E+02 -0.11412554273E+02  0.10533929205E+03  0.11569305510E+03  0.00000000000E+00 0.  1.
</event>
<event>
 7    1  0.1068210E-005  0.1264206E+03  0.7561462E-02  0.1232866E+00
          2   -1    0    0  501    0  0.00000000000E+00  0.00000000000E+00  0.18408681881E+03  0.18408681881E+03  0.00000000000E+00 0. -1.
         -2   -1    0    0    0  501 -0.00000000000E+00 -0.00000000000E+00 -0.11994289983E+03  0.11994289983E+03  0.00000000000E+00 0.  1.
         23    2    1    2    0    0 -0.33421392017E+02 -0.92323135477E+02  0.11363285032E+02  0.15942348940E+03  0.12508466707E+03 0.  0.
          5    1    3    3  502    0 -0.56937127025E+02 -0.86255796168E+02  0.48984187945E+02  0.11445008464E+03  0.41800000000E+01 0. -1.
         -5    1    3    3    0  502  0.23515735008E+02 -0.60673393089E+01 -0.37620902913E+02  0.44973404755E+02  0.41800000000E+01 0. -1.
        -11    1    1    2    0    0  0.19288404055E+02 -0.98199216934E+01  0.33223362246E+02  0.39651799353E+02  0.00000000000E+00 0. -1.
         11    1    1    2    0    0  0.14132987962E+02  0.10214305717E+03  0.19557271706E+02  0.10495442989E+03  0.00000000000E+00 0.  1.
</event>
<event>
 7    1  0.1068210E-005  0.1180190E+03  0.7561462E-02  0.1246401E+00
          3   -1    0    0  501    0  0.00000000000E+00  0.00000000000E+00  0.42736777324E+03  0.42736777324E+03  0.00000000000E+00 0. -1.
         -3   -1    0    0    0  501 -0.00000000000E+00 -0.00000000000E+00 -0.41305817929E+02  0.41305817929E+02  0.00000000000E+00 0.  1.
         23    2    1    2    0    0 -0.22082446025E+02 -0.67720721463E+02  0.15878646548E+03  0.21432533197E+03  0.12509386783E+03 0.  0.
          5    1    3    3  502    0  0.61444089037E+01 -0.88804283420E+02  0.15480671238E+03  0.17862403286E+03  0.41800000000E+01 0.  1.
         -5    1    3    3    0  502 -0.28226854928E+02  0.21083561957E+02  0.39797530965E+01  0.35701299117E+02  0.41800000000E+01 0.  1.
        -11    1    1    2    0    0  0.19499560528E+02  0.88440375206E+02  0.15936908926E+03  0.18330422646E+03  0.00000000000E+00 0.  1.
         11    1    1    2    0    0  0.25828854965E+01 -0.20719653743E+02  0.67906400570E+02  0.71044032734E+02  0.00000000000E+00 0. -1.
</event>
<event>
 7    1  0.1068210E-005  0.8789788E+02  0.7561462E-02  0.1308024E+00
          2   -1    0    0  501    0  0.00000000000E+00  0.00000000000E+00  0.10017240518E+03  0.10017240518E+03  0.00000000000E+00 0.  1.
         -2   -1    0    0    0  501 -0.00000000000E+00 -0.00000000000E+00 -0.15435001825E+03  0.15435001825E+03  0.00000000000E+00 0. -1.
         23    2    1    2    0    0  0.15761115172E+02 -0.21122059095E+02 -0.86891987855E+02  0.15456891729E+03  0.12508708369E+03 0.  0.
          5    1    3    3  502    0  0.17535794866E+02 -0.71933517075E+02 -0.35719733755E+02  0.82312251578E+02  0.41800000000E+01 0.  1.
         -5    1    3    3    0  502 -0.17746796943E+01  0.50811457980E+02 -0.51172254100E+02  0.72256665712E+02  0.41800000000E+01 0.  1.
        -11    1    1    2    0    0  0.11650156078E+02  0.20053139323E+02 -0.26185325431E+02  0.34978933678E+02  0.00000000000E+00 0. -1.
         11    1    1    2    0    0 -0.27411271250E+02  0.10689197721E+01  0.58899700219E+02  0.64974572464E+02  0.00000000000E+00 0.  1.
</event>
<event>
 7    1  0.1714357E-005  0.1351835E+03  0.7561462E-02  0.1219961E+00
         -1   -1    0    0    0  501 -0.00000000000E+00  0.00000000000E+00  0.51128963739E+02  0.51128963739E+02  0.00000000000E+00 0.  1.
          1   -1    0    0  501    0  0.00000000000E+00 -0.00000000000E+00 -0.45438217145E+03  0.45438217145E+03  0.00000000000E+00 0. -1.
         23    2    1    2    0    0 -0.99747673711E+02 -0.11630948190E+02 -0.15332745023E+03  0.22190419899E+03  0.12508912490E+03 0.  0.
          5    1    3    3  502    0 -0.12852726488E+03 -0.77647316283E+00 -0.13170265798E+03  0.18407314645E+03  0.41800000000E+01 0.  1.
         -5    1    3    3    0  502  0.28779591166E+02 -0.10854475027E+02 -0.21624792254E+02  0.37831052534E+02  0.41800000000E+01 0.  1.
        -11    1    1    2    0    0  0.31320382422E+01  0.13737137321E+02  0.15760948578E+01  0.14177541407E+02  0.00000000000E+00 0.  1.
         11    1    1    2    0    0  0.96615635469E+02 -0.21061891316E+01 -0.25150185233E+03  0.26942939479E+03  0.00000000000E+00 0. -1.
</event>
<event>
 7    1  0.1068210E-005  0.1149574E+03  0.7561462E-02  0.1251656E+00
         -2   -1    0    0    0  501 -0.00000000000E+00  0.00000000000E+00  0.16288074939E+03  0.16288074939E+03  0.00000000000E+00 0.  1.
          2   -1    0    0  501    0  0.00000000000E+00 -0.00000000000E+00 -0.15875951790E+03  0.15875951790E+03  0.00000000000E+00 0. -1.
         23    2    1    2    0    0 -0.13638354325E+02 -0.62143447947E+02  0.81106373193E+02  0.15322820201E+03  0.11337030162E+03 0.  0.
          5    1    3    3  502    0 -0.88099294682E+01  0.16863710512E+02 -0.17862630531E+02  0.26430012466E+02  0.41800000000E+01 0. -1.
         -5    1    3    3    0  502 -0.48284248566E+01 -0.79007158460E+02  0.98969003724E+02  0.12679818955E+03  0.41800000000E+01 0.  1.
        -11    1    1    2    0    0  0.15695659526E+02 -0.32716990802E+02 -0.62723155530E+02  0.72463435295E+02  0.00000000000E+00 0.  1.
         11    1    1    2    0    0 -0.20573052012E+01  0.94860438750E+02 -0.14261986177E+02  0.95948629976E+02  0.00000000000E+00 0. -1.
</event>
<event>
 7    1  0.1068210E-005  0.1309190E+03  0.7561462E-02  0.1226099E+00
          1   -1    0    0  501    0  0.00000000000E+00  0.00000000000E+00  0.18942865438E+03  0.18942865438E+03  0.00000000000E+00 0. -1.
         -1   -1    0    0    0  501 -0.00000000000E+00 -0.00000000000E+00 -0.15306081488E+03  0.15306081488E+03  0.00000000000E+00 0.  1.
         23    2    1    2    0    0  0.19369025986E+02 -0.88733845879E+02 -0.75814110620E+02  0.17217556761E+03  0.12509113533E+03 0.  0.
          5    1    3    3  502    0  0.17100509953E+02  0.29691347375E+02 -0.27712590757E+02  0.44265829215E+02  0.41800000000E+01 0.  1.
         -5    1    3    3    0  502  0.22685160331E+01 -0.11842519325E+03 -0.48101519863E+02  0.12790973839E+03  0.41800000000E+01 0.  1.
        -11    1    1    2    0    0 -0.40752135084E+02  0.49500500650E+02  0.18839070340E+02  0.66827738625E+02  0.00000000000E+00 0.  1.
         11    1    1    2    0    0  0.21383109098E+02  0.39233345228E+02  0.93342879778E+02  0.10348616303E+03  0.00000000000E+00 0. -1.
</event>
<event>
 7    1  0.1068210E-005  0.1101010E+03  0.7561462E-02  0.1260383E+00
         -1   -1    0    0    0  501 -0.00000000000E+00  0.00000000000E+00  0.84340877923E+02  0.84340877923E+02  0.00000000000E+00 0.  1.
          1   -1    0    0  501    0  0.00000000000E+00 -0.00000000000E+00 -0.15819264616E+03  0.15819264616E+03  0.00000000000E+00 0. -1.
         23    2    1    2    0    0 -0.97950052448E+01 -0.49024045863E+02 -0.15086219524E+02  0.12273986623E+03  0.11107736737E+03 0.  0.
          5    1    3    3  502    0 -0.13925231707E+02  0.34230292410E+02 -0.12513284783E+02  0.39238752435E+02  0.41800000000E+01 0. -1.
         -5    1    3    3    0  502  0.41302264618E+01 -0.83254338273E+02 -0.25729347408E+01  0.83501113795E+02  0.41800000000E+01 0.  1.
        -11    1    1    2    0    0  0.20970497166E+01 -0.25019813792E+02 -0.25518065682E+00  0.25108839417E+02  0.00000000000E+00 0.  1.
         11    1    1    2    0    0  0.76979555283E+01  0.74043859655E+02 -0.58510368053E+02  0.94684818432E+02  0.00000000000E+00 0. -1.
</event>
<event>
 7    1  0.1068210E-005  0.1208735E+03  0.7561462E-02  0.1241663E+00
          2   -1    0    0  501    0  0.00000000000E+00  0.00000000000E+00  0.27028269862E+03  0.27028269862E+03  0.00000000000E+00 0.  1.
         -2   -1    0    0    0  501 -0.00000000000E+00 -0.00000000000E+00 -0.80019072714E+02  0.80019072714E+02  0.00000000000E+00 0. -1.
         23    2    1    2    0    0  0.50053255799E+02  0.59055234220E+01  0.60599781192E+02  0.14543418977E+03  0.12222342841E+03 0.  0.
          5    1    3    3  502    0  0.43242471379E+02 -0.28649052774E+02 -0.21264934687E+02  0.56216985005E+02  0.41800000000E+01 0. -1.
         -5    1    3    3    0  502  0.68107844195E+01  0.34554576196E+02  0.81864715880E+02  0.89217204768E+02  0.41800000000E+01 0.  1.
        -11    1    1    2    0    0  0.38385033057E+02  0.39285436042E+02  0.70118722473E+02  0.89069587902E+02  0.00000000000E+00 0. -1.
         11    1    1    2    0    0 -0.88438288856E+02 -0.45190959464E+02  0.59545122244E+02  0.11579799366E+03  0.00000000000E+00 0.  1.
</event>
<event>
 7    1  0.1068210E-005  0.2549561E+03  0.7561462E-02  0.1110212E+00
          3   -1    0    0  501    0  0.00000000000E+00  0.00000000000E+00  0.13326561046E+03  0.13326561046E+03  0.00000000000E+00 0. -1.
         -3   -1    0    0    0  501 -0.00000000000E+00 -0.00000000000E+00 -0.63665717046E+03  0.63665717046E+03  0.00000000000E+00 0.  1.
         23    2    1    2    0    0  0.14399722805E+03  0.19746771419E+03 -0.41040483139E+03  0.49323219245E+03  0.12295190199E+03 0.  0.
          5    1    3    3  502    0  0.42645448795E+02  0.10285943840E+03 -0.87109146707E+02  0.14143611353E+03  0.41800000000E+01 0. -1.
         -5    1    3    3    0  502  0.10135177926E+03  0.94608275794E+02 -0.32329568469E+03  0.35179607892E+03  0.41800000000E+01 0.  1.
        -11    1    1    2    0    0  0.12317289712E+02 -0.11666947099E+02 -0.11809829862E+02  0.20671365746E+02  0.00000000000E+00 0.  1.
         11    1    1    2    0    0 -0.15631451776E+03 -0.18580076709E+03 -0.81176898738E+02  0.25601922272E+03  0.00000000000E+00 0. -1.
</event>
<event>
 7    1  0.1068210E-005  0.1510619E+03  0.7561462E-02  0.1199174E+00
          1   -1    0    0  501    0  0.00000000000E+00  0.00000000000E+00  0.60469895764E+03  0.60469895764E+03  0.00000000000E+00 0. -1.
         -1   -1    0    0    0  501 -0.00000000000E+00 -0.00000000000E+00 -0.64431881538E+02  0.64431881538E+02  0.00000000000E+00 0.  1.
         23    2    1    2    0    0  0.10925041450E+03  0.65914814423E+02  0.10703668995E+03  0.20824388097E+03  0.12501297988E+03 0.  0.
          5    1    3    3  502    0  0.62595343317E+02  0.98687396660E+02  0.92911030556E+02  0.14935632315E+03  0.41800000000E+01 0. -1.
         -5    1    3    3    0  502  0.46655071181E+02 -0.32772582237E+02  0.14125659398E+02  0.58887557826E+02  0.41800000000E+01 0. -1.
        -11    1    1    2    0    0 -0.47440667227E+02 -0.34662376901E+02  0.33836366583E+03  0.34342694658E+03  0.00000000000E+00 0. -1.
         11    1    1    2    0    0 -0.61809747270E+02 -0.31252437522E+02  0.94866720321E+02  0.11746001163E+03  0.00000000000E+00 0.  1.
</event>
<event>
 7    1  0.1068210E-005  0.1135395E+03  0.7561462E-02  0.1254152E+00
          1   -1    0    0  501    0  0.00000000000E+00  0.00000000000E+00  0.28901805269E+03  0.28901805269E+03  0.00000000000E+00 0. -1.
         -1   -1    0    0    0  501 -0.00000000000E+00 -0.00000000000E+00 -0.13487192380E+03  0.13487192380E+03  0.00000000000E+00 0.  1.
         23    2    1    2    0    0  0.63111268705E+02 -0.22114921376E+02 -0.83863742931E+02  0.15376645575E+03  0.11017664703E+03 0.  0.
          5    1    3    3  502    0  0.36145839714E+02 -0.49090531298E+02  0.47740103014E+00  0.61107301556E+02  0.41800000000E+01 0. -1.
         -5    1    3    3    0  502  0.26965428991E+02  0.26975609922E+02 -0.84341143961E+02  0.92659154194E+02  0.41800000000E+01 0.  1.
        -11    1    1    2    0    0  0.99504639111E+01  0.48812518629E+02  0.86833267386E+02  0.10010839142E+03  0.00000000000E+00 0. -1.
         11    1    1    2    0    0 -0.73061732616E+02 -0.26697597253E+02  0.15117660443E+03  0.17001512932E+03  0.00000000000E+00 0.  1.
</event>
<event>
 7    1  0.1068210E-005  0.1324928E+03  0.7561462E-02  0.1223803E+00
          3   -1    0    0  501    0  0.00000000000E+00  0.00000000000E+00  0.25912808096E+03  0.25912808096E+03  0.00000000000E+00 0. -1.
         -3   -1    0    0    0  501 -0.00000000000E+00 -0.00000000000E+00 -0.11665983487E+03  0.11665983487E+03  0.00000000000E+00 0.  1.
         23    2    1    2    0    0 -0.21508334725E+02  0.10028941870E+03 -0.19952579181E+02  0.16299519660E+03  0.12509497485E+03 0.  0.
          5    1    3    3  502    0 -0.25902728231E+02 -0.73866756565E+01 -0.44690894066E+02  0.52347518752E+02  0.41800000000E+01 0. -1.
         -5    1    3    3    0  502  0.43943935054E+01  0.10767609436E+03  0.24738314885E+02  0.11064767785E+03  0.41800000000E+01 0. -1.
        -11    1    1    2    0    0  0.49379681666E+02 -0.40314716961E+02  0.45004377214E+02  0.78032194212E+02  0.00000000000E+00 0.  1.
         11    1    1    2    0    0 -0.27871346940E+02 -0.59974701739E+02  0.11741644806E+03  0.13476052502E+03  0.00000000000E+00 0. -1.
</event>
<event>
 6    1  0.1068210E-005  0.1385054E+03  0.7561462E-02  0.1215354E+00
         -1   -1    0    0    0  501 -0.00000000000E+00  0.00000000000E+00  0.10786752712E+04  0.10786752712E+04  0.00000000000E+00 0.  1.
          1   -1    0    0  501    0  0.00000000000E+00 -0.00000000000E+00 -0.43807563064E+02  0.43807563064E+02  0.00000000000E+00 0. -1.
          5    1    1    2  502    0  0.63886121851E+02  0.63292395689E+02  0.62402717435E+03  0.63048770856E+03  0.41800000000E+01 0. -1.
         -5    1    1    2    0  502 -0.33348077853E+02 -0.91268770797E+02  0.37481343867E+03  0.38722689605E+03  0.41800000000E+01 0.  1.
        -11    1    1    2    0    0  0.18363005829E+02  0.35767473084E+02 -0.49300837281E+01  0.40507009757E+02  0.00000000000E+00 0. -1.
         11    1    1    2    0    0 -0.48901049827E+02 -0.77910979748E+01  0.40957178808E+02  0.64261219858E+02  0.00000000000E+00 0.  1.
</event>
<event>
 7    1  0.1068210E-005  0.1705555E+03  0.7561462E-02  0.1177270E+00
         -1   -1    0    0    0  501 -0.00000000000E+00  0.00000000000E+00  0.42021450131E+02  0.42021450131E+02  0.00000000000E+00 0.  1.
          1   -1    0    0  501    0  0.00000000000E+00 -0.00000000000E+00 -0.96336117131E+03  0.96336117131E+03  0.00000000000E+00 0. -1.
         23    2    1    2    0    0 -0.88810968468E+02 -0.13607145284E+03 -0.36516199667E+03  0.41880042614E+03  0.12509070597E+03 0.  0.
          5    1    3    3  502    0 -0.61117793096E+02 -0.10793524197E+03 -0.12781400062E+03  0.17815524760E+03  0.41800000000E+01 0.  1.
         -5    1    3    3    0  502 -0.27693175372E+02 -0.28136210877E+02 -0.23734799605E+03  0.24064517854E+03  0.41800000000E+01 0.  1.
        -11    1    1    2    0    0  0.71228990190E+01  0.74930840724E+02 -0.32967114923E+03  0.33815445172E+03  0.00000000000E+00 0. -1.
         11    1    1    2    0    0  0.81688069449E+02  0.61140612120E+02 -0.22650657528E+03  0.24842774359E+03  0.00000000000E+00 0.  1.
</event>
<event>
 7    1  0.1068210E-005  0.1083288E+03  0.7561462E-02  0.1263696E+00
          2   -1    0    0  501    0  0.00000000000E+00  0.00000000000E+00  0.77666999966E+02  0.77666999966E+02  0.00000000000E+00 0. -1.
         -2   -1    0    0    0  501 -0.00000000000E+00 -0.00000000000E+00 -0.23719944313E+03  0.23719944313E+03  0.00000000000E+00 0.  1.
         23    2    1    2    0    0 -0.21604096494E+02 -0.68232511110E+02 -0.12666870379E+03  0.19185366941E+03  0.12506181427E+03 0.  0.
          5    1    3    3  502    0  0.11292065603E+02  0.25156302495E+02 -0.75155538368E+02  0.80163443341E+02  0.41800000000E+01 0. -1.
         -5    1    3    3    0  502 -0.32896162097E+02 -0.93388813605E+02 -0.51513165425E+02  0.11169022607E+03  0.41800000000E+01 0. -1.
        -11    1    1    2    0    0  0.33735141613E+02  0.18497668002E+02  0.24900380186E+02  0.45828511154E+02  0.00000000000E+00 0. -1.
         11    1    1    2    0    0 -0.12131045120E+02  0.49734843107E+02 -0.57764119556E+02  0.77184262533E+02  0.00000000000E+00 0.  1.
</event>
<event>
 7    1  0.1068210E-005  0.1523835E+03  0.7561462E-02  0.1197574E+00
          1   -1    0    0  501    0  0.00000000000E+00  0.00000000000E+00  0.20017565010E+03  0.20017565010E+03  0.00000000000E+00 0. -1.
         -1   -1    0    0    0  501 -0.00000000000E+00 -0.00000000000E+00 -0.14997099099E+03  0.14997099099E+03  0.00000000000E+00 0.  1.
         23    2    1    2    0    0  0.12009148426E+03  0.46750098541E+02 -0.12799561307E+02  0.18005403665E+03  0.12509233005E+03 0.  0.
          5    1    3    3  502    0  0.13262925538E+03  0.12789890963E+02  0.15095183570E+02  0.13416198292E+03  0.41800000000E+01 0.  1.
         -5    1    3    3    0  502 -0.12537771121E+02  0.33960207578E+02 -0.27894744877E+02  0.45892053726E+02  0.41800000000E+01 0.  1.
        -11    1    1    2    0    0 -0.45908499298E+02 -0.39349076955E+02  0.73094365667E+02  0.94861617408E+02  0.00000000000E+00 0. -1.
         11    1    1    2    0    0 -0.74182984965E+02 -0.74010215859E+01 -0.10090145252E+02  0.75230987033E+02  0.00000000000E+00 0.  1.
</event>
<event>
 7    1  0.1068210E-005  0.2127583E+03  0.7561462E-02  0.1139400E+00
         -2   -1    0    0    0  501 -0.00000000000E+00  0.00000000000E+00  0.95004556866E+02  0.95004556866E+02  0.00000000000E+00 0.  1.
          2   -1    0    0  501    0  0.00000000000E+00 -0.00000000000E+00 -0.58755503985E+03  0.58755503985E+03  0.00000000000E+00 0. -1.
         23    2    1    2    0    0  0.11536123602E+03 -0.15952972803E+03 -0.14738673209E+03  0.27591401278E+03  0.12509094592E+03 0.  0.
          5    1    3    3  502    0  0.46500251841E+02 -0.11334059529E+02  0.99134096151E+01  0.49055911131E+02  0.41800000000E+01 0. -1.
         -5    1    3    3    0  502  0.68860984176E+02 -0.14819566851E+03 -0.15730014170E+03  0.22685810165E+03  0.41800000000E+01 0. -1.
        -11    1    1    2    0    0 -0.10989213132E+03  0.84103877465E+02 -0.20410658021E+03  0.24659529358E+03  0.00000000000E+00 0.  1.
         11    1    1    2    0    0 -0.54691046993E+01  0.75425850570E+02 -0.14105717068E+03  0.16005029035E+03  0.00000000000E+00 0. -1.
</event>
<event>
 7    1  0.1068210E-005  0.1306443E+03  0.7561462E-02  0.1226503E+00
         -3   -1    0    0    0  501 -0.00000000000E+00  0.00000000000E+00  0.49365447892E+03  0.49365447892E+03  0.00000000000E+00 0.  1.
          3   -1    0    0  501    0  0.00000000000E+00 -0.00000000000E+00 -0.44252336297E+02  0.44252336297E+02  0.00000000000E+00 0. -1.
         23    2    1    2    0    0 -0.61898117601E+02 -0.76931208605E+02  0.26063879768E+03  0.30549708068E+03  0.12508435404E+03 0.  0.
          5    1    3    3  502    0 -0.32376013654E+02  0.29525276191E+02  0.11132331249E+03  0.11970923314E+03  0.41800000000E+01 0. -1.
         -5    1    3    3    0  502 -0.29522103947E+02 -0.10645648480E+03  0.14931548518E+03  0.18578784754E+03  0.41800000000E+01 0. -1.
        -11    1    1    2    0    0  0.17759532001E+02 -0.30330886222E+00 -0.56267576278E+01  0.18632052344E+02  0.00000000000E+00 0. -1.
         11    1    1    2    0    0  0.44138585600E+02  0.77234517467E+02  0.19439010257E+03  0.21377768220E+03  0.00000000000E+00 0.  1.
</event>
<event>
 6    1  0.1068210E-005  0.1450902E+03  0.7561462E-02  0.1206639E+00
         -1   -1    0    0    0  501 -0.00000000000E+00  0.00000000000E+00  0.23518503022E+02  0.23518503022E+02  0.00000000000E+00 0.  1.
          1   -1    0    0  501    0  0.00000000000E+00 -0.00000000000E+00 -0.11501073963E+04  0.11501073963E+04  0.00000000000E+00 0. -1.
          5    1    1    2  502    0 -0.26011996911E+02 -0.24809508076E+02 -0.21285060560E+03  0.21590504482E+03  0.41800000000E+01 0. -1.
         -5    1    1    2    0  502  0.12136875271E+02  0.13856199460E+03 -0.39768112930E+03  0.42132467658E+03  0.41800000000E+01 0.  1.
        -11    1    1    2    0    0  0.58446986807E+00 -0.32426549738E+02 -0.32665820319E+02  0.46031277954E+02  0.00000000000E+00 0.  1.
         11    1    1    2    0    0  0.13290651772E+02 -0.81325936783E+02 -0.48339133803E+03  0.49036489994E+03  0.00000000000E+00 0. -1.
</event>
<event>
 6    1  0.1068210E-005  0.7754528E+02  0.7561462E-02  0.1336166E+00
         -2   -1    0    0    0  501 -0.00000000000E+00  0.00000000000E+00  0.69081277256E+02  0.69081277256E+02  0.00000000000E+00 0.  1.
          2   -1    0    0  501    0  0.00000000000E+00 -0.00000000000E+00 -0.16715085832E+03  0.16715085832E+03  0.00000000000E+00 0. -1.
          5    1    1    2  502    0 -0.25368255060E+02 -0.59788500941E+02 -0.10200634621E+03  0.12099991850E+03  0.41800000000E+01 0. -1.
         -5    1    1    2    0  502  0.43030301955E+02  0.25360457441E+02  0.36318197463E+02  0.61897039953E+02  0.41800000000E+01 0.  1.
        -11    1    1    2    0    0 -0.11878058199E+02  0.12647224642E+02 -0.53808717950E+01  0.18165746310E+02  0.00000000000E+00 0.  1.
         11    1    1    2    0    0 -0.57839886951E+01  0.21780818858E+02 -0.27000560523E+02  0.35169430816E+02  0.00000000000E+00 0. -1.
</event>
<event>
 7    1  0.1068210E-005  0.1001290E+03  0.7561462E-02  0.1280025E+00
         -1   -1    0    0    0  501 -0.00000000000E+00  0.00000000000E+00  0.34838705194E+03  0.34838705194E+03  0.00000000000E+00 0.  1.
          1   -1    0    0  501    0  0.00000000000E+00 -0.00000000000E+00 -0.49538094548E+02  0.49538094548E+02  0.00000000000E+00 0. -1.
         23    2    1    2    0    0 -0.42914266119E+02 -0.17313653322E+01  0.26908449934E+03  0.29482453928E+03  0.11256291270E+03 0.  0.
          5    1    3    3  502    0  0.38156273672E+02  0.56678775375E+01  0.94071675526E+02  0.10175941525E+03  0.41800000000E+01 0. -1.
         -5    1    3    3    0  502 -0.81070539791E+02 -0.73992428697E+01  0.17501282381E+03  0.19306512403E+03  0.41800000000E+01 0.  1.
        -11    1    1    2    0    0 -0.17764381298E+02 -0.60513233357E+01  0.37011131268E+02  0.41497175744E+02  0.00000000000E+00 0.  1.
         11    1    1    2    0    0  0.60678647417E+02  0.77826886678E+01 -0.72466732158E+01  0.61603431462E+02  0.00000000000E+00 0. -1.
</event>
<event>
 7    1  0.1068210E-005  0.1774759E+03  0.7561462E-02  0.1170268E+00
          2   -1    0    0  501    0  0.00000000000E+00  0.00000000000E+00  0.23025185763E+03  0.23025185763E+03  0.00000000000E+00 0. -1.
         -2   -1    0    0    0  501 -0.00000000000E+00 -0.00000000000E+00 -0.16733328765E+03  0.16733328765E+03  0.00000000000E+00 0.  1.
         23    2    1    2    0    0  0.15356896336E+03 -0.15748282888E+01 -0.27318137973E+02  0.19994819384E+03  0.12508834066E+03 0.  0.
          5    1    3    3  502    0  0.59398958517E+02 -0.61923360374E+02 -0.69982441565E+01  0.86192729706E+02  0.41800000000E+01 0. -1.
         -5    1    3    3    0  502  0.94170004842E+02  0.60348532085E+02 -0.20319893816E+02  0.11375546414E+03  0.41800000000E+01 0. -1.
        -11    1    1    2    0    0 -0.35202004169E+02  0.14450455873E+02 -0.12831915312E+02  0.40157873736E+02  0.00000000000E+00 0.  1.
         11    1    1    2    0    0 -0.11836695919E+03 -0.12875627584E+02  0.10306862326E+03  0.15747907770E+03  0.00000000000E+00 0. -1.
</event>
<event>
 7    1  0.1068210E-005  0.9524776E+02  0.7561462E-02  0.1290619E+00
          2   -1    0    0  501    0  0.00000000000E+00  0.00000000000E+00  0.36017647762E+03  0.36017647762E+03  0.00000000000E+00 0.  1.
         -2   -1    0    0    0  501 -0.00000000000E+00 -0.00000000000E+00 -0.39632639709E+02  0.39632639709E+02  0.00000000000E+00 0. -1.
         23    2    1    2    0    0  0.44106097632E+02  0.24969245641E+02  0.18260643717E+03  0.22707166912E+03  0.12509045106E+03 0.  0.
          5    1    3    3  502    0  0.82230557830E+02  0.96937782423E+00  0.15063622845E+03  0.17167279940E+03  0.41800000000E+01 0.  1.
         -5    1    3    3    0  502 -0.38124460198E+02  0.23999867817E+02  0.31970208721E+02  0.55398869720E+02  0.41800000000E+01 0.  1.
        -11    1    1    2    0    0 -0.39221350271E+02 -0.18335277973E+01  0.72497542262E+01  0.39927873442E+02  0.00000000000E+00 0. -1.
         11    1    1    2    0    0 -0.48847473608E+01 -0.23135717844E+02  0.13068764652E+03  0.13280957477E+03  0.00000000000E+00 0.  1.
</event>
<event>
 7    1  0.1068210E-005  0.1082782E+03  0.7561462E-02  0.1263792E+00
          3   -1    0    0  501    0  0.00000000000E+00  0.00000000000E+00  0.24693600812E+03  0.24693600812E+03  0.00000000000E+00 0. -1.
         -3   -1    0    0    0  501 -0.00000000000E+00 -0.00000000000E+00 -0.91516907337E+02  0.91516907337E+02  0.00000000000E+00 0.  1.
         23    2    1    2    0    0  0.30666357060E+02 -0.26818394769E+02 -0.24142700987E+02  0.13371158210E+03  0.12504505358E+03 0.  0.
          5    1    3    3  502    0  0.37279429581E+02 -0.67690097081E+02 -0.42428724416E+02  0.88257431235E+02  0.41800000000E+01 0. -1.
         -5    1    3    3    0  502 -0.66130725206E+01  0.40871702312E+02  0.18286023429E+02  0.45454150865E+02  0.41800000000E+01 0. -1.
        -11    1    1    2    0    0 -0.62029308360E+02  0.13512279939E+02  0.12896673898E+03  0.14374504015E+03  0.00000000000E+00 0. -1.
         11    1    1    2    0    0  0.31362951300E+02  0.13306114829E+02  0.50595062791E+02  0.60996293206E+02  0.00000000000E+00 0.  1.
</event>
<event>
 7    1  0.1068210E-005  0.9857189E+02  0.7561462E-02  0.1283328E+00
         -3   -1    0    0    0  501 -0.00000000000E+00  0.00000000000E+00  0.23547061414E+03  0.23547061414E+03  0.00000000000E+00 0.  1.
          3   -1    0    0  501    0  0.00000000000E+00 -0.00000000000E+00 -0.63365768075E+02  0.63365768075E+02  0.00000000000E+00 0. -1.
         23    2    1    2    0    0  0.12550095271E+02  0.41674572871E+02  0.13694213073E+03  0.19051153530E+03  0.12508886041E+03 0.  0.
          5    1    3    3  502    0  0.63220440046E+02 -0.45245516840E+01  0.60225912314E+02  0.87532442680E+02  0.41800000000E+01 0. -1.
         -5    1    3    3    0  502 -0.50670344775E+02  0.46199124555E+02  0.76716218413E+02  0.10297909262E+03  0.41800000000E+01 0. -1.
        -11    1    1    2    0    0 -0.29444651870E+02 -0.37212717767E+02  0.60907101227E+02  0.77210419421E+02  0.00000000000E+00 0.  1.
         11    1    1    2    0    0  0.16894556599E+02 -0.44618551043E+01 -0.25744385887E+02  0.31114427495E+02  0.00000000000E+00 0. -1.
</event>
<event>
 7    1  0.1068210E-005  0.1249918E+03  0.7561462E-02  0.1235082E+00
          1   -1    0    0  501    0  0.00000000000E+00  0.00000000000E+00  0.18724018426E+03  0.18724018426E+03  0.00000000000E+00 0. -1.
         -1   -1    0    0    0  501 -0.00000000000E+00 -0.00000000000E+00 -0.96236109791E+02  0.96236109791E+02  0.00000000000E+00 0.  1.
         23    2    1    2    0    0  0.23134617003E+02 -0.59161762600E+02  0.33829308180E+02  0.14431539141E+03  0.12508871032E+03 0.  0.
          5    1    3    3  502    0 -0.27991706554E+01  0.34524599962E+02  0.31473308155E+02  0.46987497115E+02  0.41800000000E+01 0. -1.
         -5    1    3    3    0  502  0.25933787659E+02 -0.93686362562E+02  0.23560000252E+01  0.97327894298E+02  0.41800000000E+01 0. -1.
        -11    1    1    2    0    0 -0.92173085823E+01 -0.28026313382E+02  0.39193339191E+02  0.49056608690E+02  0.00000000000E+00 0.  1.
         11    1    1    2    0    0 -0.13917308421E+02  0.87188075982E+02  0.17981427096E+02  0.90104293946E+02  0.00000000000E+00 0. -1.
</event>
<event>
 7    1  0.1068210E-005  0.1837932E+03  0.7561462E-02  0.1164182E+00
         -1   -1    0    0    0  501 -0.00000000000E+00  0.00000000000E+00  0.81992555273E+02  0.81992555273E+02  0.00000000000E+00 0.  1.
          1   -1    0    0  501    0  0.00000000000E+00 -0.00000000000E+00 -0.47602997200E+03  0.47602997200E+03  0.00000000000E+00 0. -1.
         23    2    1    2    0    0  0.32386469686E+02  0.15970265358E+03 -0.23864740419E+03  0.31488946812E+03  0.12509585376E+03 0.  0.
          5    1    3    3  502    0  0.78638296883E+02  0.97145537674E+02 -0.17005798380E+03  0.21108867208E+03  0.41800000000E+01 0.  1.
         -5    1    3    3    0  502 -0.46251827196E+02  0.62557115910E+02 -0.68589420390E+02  0.10380079604E+03  0.41800000000E+01 0.  1.
        -11    1    1    2    0    0 -0.28497506172E+02 -0.81815096438E+02 -0.23257424736E+02  0.89703543233E+02  0.00000000000E+00 0.  1.
         11    1    1    2    0    0 -0.38889635149E+01 -0.77887557146E+02 -0.13213258780E+03  0.15342951592E+03  0.00000000000E+00 0. -1.
</event>
<event>
 7    1  0.1068210E-005  0.1204702E+03  0.7561462E-02  0.1242323E+00
          2   -1    0    0  501    0  0.00000000000E+00  0.00000000000E+00  0.81261804434E+03  0.81261804434E+03  0.00000000000E+00 0. -1.
         -2   -1    0    0    0  501 -0.00000000000E+00 -0.00000000000E+00 -0.26929895260E+02  0.26929895260E+02  0.00000000000E+00 0.  1.
         23    2    1    2    0    0 -0.71837516396E+02  0.64314684787E+02  0.34926957753E+03  0.38331898533E+03  0.12508876563E+03 0.  0.
          5    1    3    3  502    0 -0.63740951183E+02  0.25653522377E+02  0.33358605709E+03  0.34061435958E+03  0.41800000000E+01 0.  1.
         -5    1    3    3    0  502 -0.80965652128E+01  0.38661162410E+02  0.15683520440E+02  0.42704625751E+02  0.41800000000E+01 0.  1.
        -11    1    1    2    0    0  0.37275941709E+02  0.19250284313E+02  0.11891875147E+03  0.12610209645E+03  0.00000000000E+00 0. -1.
         11    1    1    2    0    0  0.34561574687E+02 -0.83564969100E+02  0.31749982008E+03  0.33012685782E+03  0.00000000000E+00 0.  1.
</event>
<event>
 7    1  0.1068210E-005  0.1160438E+03  0.7561462E-02  0.1249770E+00
         -4   -1    0    0    0  501 -0.00000000000E+00  0.00000000000E+00  0.73853766931E+03  0.73853766931E+03  0.00000000000E+00 0.  1.
          4   -1    0    0  501    0  0.00000000000E+00 -0.00000000000E+00 -0.24643677020E+02  0.24643677020E+02  0.00000000000E+00 0. -1.
         23    2    1    2    0    0  0.69656404341E+01 -0.24174325429E+02  0.55926294491E+03  0.57363935430E+03  0.12511654203E+03 0.  0.
          5    1    3    3  502    0 -0.36754455642E+02  0.34018049757E+02  0.30570211529E+03  0.30980537989E+03  0.41800000000E+01 0.  1.
         -5    1    3    3    0  502  0.43720096076E+02 -0.58192375186E+02  0.25356082963E+03  0.26383397441E+03  0.41800000000E+01 0.  1.
        -11    1    1    2    0    0  0.49143803855E+02  0.18579662159E+02  0.85215866364E+02  0.10011024515E+03  0.00000000000E+00 0. -1.
         11    1    1    2    0    0 -0.56109444289E+02  0.55946632699E+01  0.69415181007E+02  0.89431746878E+02  0.00000000000E+00 0.  1.
</event>
<event>
 7    1  0.1068210E-005  0.1065843E+03  0.7561462E-02  0.1267029E+00
          2   -1    0    0  501    0  0.00000000000E+00  0.00000000000E+00  0.56131172831E+03  0.56131172831E+03  0.00000000000E+00 0. -1.
         -2   -1    0    0    0  501 -0.00000000000E+00 -0.00000000000E+00 -0.22446569556E+02  0.22446569556E+02  0.00000000000E+00 0.  1.
         23    2    1    2    0    0  0.30813796714E+01  0.16550200449E+02  0.24879205938E+03  0.27898037843E+03  0.12509659748E+03 0.  0.
          5    1    3    3  502    0 -0.52362931305E+02  0.33376480622E+02  0.17040166986E+03  0.18141132138E+03  0.41800000000E+01 0.  1.
         -5    1    3    3    0  502  0.55444310976E+02 -0.16826280174E+02  0.78390389520E+02  0.97569057048E+02  0.41800000000E+01 0.  1.
        -11    1    1    2    0    0 -0.36020401044E+02 -0.38914745184E+02  0.18361070367E+03  0.19111440863E+03  0.00000000000E+00 0.  1.
         11    1    1    2    0    0  0.32939021373E+02  0.22364544736E+02  0.10646239571E+03  0.11366351081E+03  0.00000000000E+00 0. -1.
</event>
<event>
 7    1  0.1068210E-005  0.1177833E+03  0.7561462E-02  0.1246799E+00
          2   -1    0    0  501    0  0.00000000000E+00  0.00000000000E+00  0.42934350692E+03  0.42934350692E+03  0.00000000000E+00 0. -1.
         -2   -1    0    0    0  501 -0.00000000000E+00 -0.00000000000E+00 -0.41950234615E+02  0.41950234615E+02  0.00000000000E+00 0.  1.
         23    2    1    2    0    0  0.20159202341E+02  0.76652295738E+02  0.19553741550E+03  0.24527736367E+03  0.12507652212E+03 0.  0.
          5    1    3    3  502    0  0.31566658652E+00  0.10899816317E+03  0.13301707764E+03  0.17202242460E+03  0.41800000000E+01 0.  1.
         -5    1    3    3    0  502  0.19843535754E+02 -0.32345867436E+02  0.62520337864E+02  0.73254939070E+02  0.41800000000E+01 0.  1.
        -11    1    1    2    0    0 -0.24350467860E+02 -0.20020731561E+02  0.15533128944E+03  0.15849790048E+03  0.00000000000E+00 0. -1.
         11    1    1    2    0    0  0.41912655191E+01 -0.56631564177E+02  0.36524567360E+02  0.67518477387E+02  0.00000000000E+00 0.  1.
</event>
<event>
 7    1  0.1068210E-005  0.9995364E+02  0.7561462E-02  0.1280393E+00
          1   -1    0    0  501    0  0.00000000000E+00  0.00000000000E+00  0.65110731638E+02  0.65110731638E+02  0.00000000000E+00 0. -1.
         -1   -1    0    0    0  501 -0.00000000000E+00 -0.00000000000E+00 -0.30060372858E+03  0.30060372858E+03  0.00000000000E+00 0.  1.
         23    2    1    2    0    0  0.41369160031E+02 -0.58322342037E+02 -0.19559112055E+03  0.24293312023E+03  0.12509081295E+03 0.  0.
          5    1    3    3  502    0 -0.16556909767E+02  0.22185881028E+02 -0.10456266898E+03  0.10824587162E+03  0.41800000000E+01 0.  1.
         -5    1    3    3    0  502  0.57926069797E+02 -0.80508223065E+02 -0.91028451567E+02  0.13468724861E+03  0.41800000000E+01 0.  1.
        -11    1    1    2    0    0 -0.32084382519E+02  0.34703006413E+02 -0.69339207009E+02  0.83914431920E+02  0.00000000000E+00 0.  1.
         11    1    1    2    0    0 -0.92847775115E+01  0.23619335624E+02  0.29437330619E+02  0.38866908067E+02  0.00000000000E+00 0. -1.
</event>
<event>
 7    1  0.1068210E-005  0.1650694E+03  0.7561462E-02  0.1183089E+00
         -2   -1    0    0    0  501 -0.00000000000E+00  0.00000000000E+00  0.56435153635E+02  0.56435153635E+02  0.00000000000E+00 0. -1.
          2   -1    0    0  501    0  0.00000000000E+00 -0.00000000000E+00 -0.52509330525E+03  0.52509330525E+03  0.00000000000E+00 0.  1.
         23    2    1    2    0    0  0.63206021645E+02 -0.11667114009E+03 -0.22907791158E+03  0.29279804204E+03  0.12508736045E+03 0.  0.
          5    1    3    3  502    0  0.74753503654E+02 -0.13360654363E+02 -0.74445518177E+02  0.10642462577E+03  0.41800000000E+01 0. -1.
         -5    1    3    3    0  502 -0.11547482009E+02 -0.10331048573E+03 -0.15463239340E+03  0.18637341627E+03  0.41800000000E+01 0. -1.
        -11    1    1    2    0    0 -0.72703628433E+02  0.65038652253E+02 -0.20151376418E+03  0.22388309679E+03  0.00000000000E+00 0.  1.
         11    1    1    2    0    0  0.94976067874E+01  0.51632487837E+02 -0.38066475860E+02  0.64847320063E+02  0.00000000000E+00 0. -1.
</event>
<event>
 7    1  0.1068210E-005  0.1718052E+03  0.7561462E-02  0.1175978E+00
         -2   -1    0    0    0  501 -0.00000000000E+00  0.00000000000E+00  0.16824077669E+03  0.16824077669E+03  0.00000000000E+00 0. -1.
          2   -1    0    0  501    0  0.00000000000E+00 -0.00000000000E+00 -0.21049058968E+03  0.21049058968E+03  0.00000000000E+00 0.  1.
         23    2    1    2    0    0 -0.64771229914E+01  0.15303597687E+03 -0.29367003819E+02  0.19992669078E+03  0.12508516072E+03 0.  0.
          5    1    3    3  502    0 -0.33889901748E+02  0.49436416021E+02 -0.63460960271E+02  0.87391364264E+02  0.41800000000E+01 0. -1.
         -5    1    3    3    0  502  0.27412778756E+02  0.10359956085E+03  0.34093956452E+02  0.11253532651E+03  0.41800000000E+01 0. -1.
        -11    1    1    2    0    0 -0.23364670730E+02 -0.14285081590E+03 -0.17310250186E-01  0.14474896802E+03  0.00000000000E+00 0. -1.
         11    1    1    2    0    0  0.29841793721E+02 -0.10185160967E+02 -0.12865498923E+02  0.34055707583E+02  0.00000000000E+00 0.  1.
</event>
<event>
 7    1  0.1068210E-005  0.8772289E+02  0.7561462E-02  0.1308462E+00
         -2   -1    0    0    0  501 -0.00000000000E+00  0.00000000000E+00  0.34057458167E+03  0.34057458167E+03  0.00000000000E+00 0.  1.
          2   -1    0    0  501    0  0.00000000000E+00 -0.00000000000E+00 -0.43897173621E+02  0.43897173621E+02  0.00000000000E+00 0. -1.
         23    2    1    2    0    0 -0.51074501848E+02 -0.20554871892E+02  0.18117976588E+03  0.22694816741E+03  0.12509298792E+03 0.  0.
          5    1    3    3  502    0  0.15107669104E+01 -0.47135711509E+02  0.15548240699E+03  0.16253094783E+03  0.41800000000E+01 0.  1.
         -5    1    3    3    0  502 -0.52585268758E+02  0.26580839618E+02  0.25697358888E+02  0.64417219584E+02  0.41800000000E+01 0.  1.
        -11    1    1    2    0    0  0.50428691352E+02  0.30586099293E+02  0.12832323543E+03  0.14122823773E+03  0.00000000000E+00 0.  1.
         11    1    1    2    0    0  0.64581049568E+00 -0.10031227402E+02 -0.12825593256E+02  0.16295350157E+02  0.00000000000E+00 0. -1.
</event>
<event>
 7    1  0.1068210E-005  0.1041031E+03  0.7561462E-02  0.1271897E+00
          2   -1    0    0  501    0  0.00000000000E+00  0.00000000000E+00  0.43340804211E+03  0.43340804211E+03  0.00000000000E+00 0.  1.
         -2   -1    0    0    0  501 -0.00000000000E+00 -0.00000000000E+00 -0.43401961038E+02  0.43401961038E+02  0.00000000000E+00 0. -1.
         23    2    1    2    0    0  0.43268221274E+02  0.43301993788E+02  0.11670334385E+03  0.18168208274E+03  0.12506601092E+03 0.  0.
          5    1    3    3  502    0  0.81681093067E+02  0.54658542504E+02  0.74947116651E+02  0.12366850823E+03  0.41800000000E+01 0. -1.
         -5    1    3    3    0  502 -0.38412871793E+02 -0.11356548717E+02  0.41756227198E+02  0.58013574514E+02  0.41800000000E+01 0. -1.
        -11    1    1    2    0    0 -0.40471318495E+02 -0.18322375008E+02  0.26493804573E+03  0.26863693923E+03  0.00000000000E+00 0.  1.
         11    1    1    2    0    0 -0.27969027783E+01 -0.24979618780E+02  0.83646914938E+01  0.26490981170E+02  0.00000000000E+00 0. -1.
</event>
<event>
 7    1  0.1068210E-005  0.1490799E+03  0.7561462E-02  0.1201608E+00
          1   -1    0    0  501    0  0.00000000000E+00  0.00000000000E+00  0.23800677282E+03  0.23800677282E+03  0.00000000000E+00 0.  1.
         -1   -1    0    0    0  501 -0.00000000000E+00 -0.00000000000E+00 -0.96777563169E+02  0.96777563169E+02  0.00000000000E+00 0. -1.
         23    2    1    2    0    0  0.45058574652E+02  0.94912747196E+02  0.60414826705E+02  0.17417911809E+03  0.12509879761E+03 0.  0.
          5    1    3    3  502    0  0.84960772406E+02  0.82326625955E+02  0.58607028559E+02  0.13209187100E+03  0.41800000000E+01 0.  1.
         -5    1    3    3    0  502 -0.39902197754E+02  0.12586121241E+02  0.18077981460E+01  0.42087247090E+02  0.41800000000E+01 0.  1.
        -11    1    1    2    0    0 -0.66574744590E+02 -0.37475299891E+02  0.34917933109E+02  0.83999147446E+02  0.00000000000E+00 0.  1.
         11    1    1    2    0    0  0.21516169938E+02 -0.57437447305E+02  0.45896449834E+02  0.76606070446E+02  0.00000000000E+00 0. -1.
</event>
<event>
 7    1  0.1068210E-005  0.1188246E+03  0.7561462E-02  0.1245049E+00
         -1   -1    0    0    0  501 -0.00000000000E+00  0.00000000000E+00  0.46831293162E+02  0.46831293162E+02  0.00000000000E+00 0.  1.
          1   -1    0    0  501    0  0.00000000000E+00 -0.00000000000E+00 -0.42359799018E+03  0.42359799018E+03  0.00000000000E+00 0. -1.
         23    2    1    2    0    0 -0.50756107766E+02  0.42574565298E+02 -0.10812942611E+03  0.17812058228E+03  0.12508474309E+03 0.  0.
          5    1    3    3  502    0  0.30283036487E+02 -0.13023240073E+01  0.61952949594E+01  0.31218783229E+02  0.41800000000E+01 0.  1.
         -5    1    3    3    0  502 -0.81039144253E+02  0.43876889305E+02 -0.11432472107E+03  0.14690179905E+03  0.41800000000E+01 0.  1.
        -11    1    1    2    0    0  0.72489220517E+02 -0.53864591075E+02 -0.22111157995E+03  0.23884390729E+03  0.00000000000E+00 0. -1.
         11    1    1    2    0    0 -0.21733112751E+02  0.11290025777E+02 -0.47525690961E+02  0.53464793773E+02  0.00000000000E+00 0.  1.
</event>
<event>
 7    1  0.1068210E-005  0.2312648E+03  0.7561462E-02  0.1125753E+00
          2   -1    0    0  501    0  0.00000000000E+00  0.00000000000E+00  0.74118533181E+03  0.74118533181E+03  0.00000000000E+00 0. -1.
         -2   -1    0    0    0  501 -0.00000000000E+00 -0.00000000000E+00 -0.83487621429E+02  0.83487621429E+02  0.00000000000E+00 0.  1.
         23    2    1    2    0    0 -0.19512508791E+03 -0.70140709855E+02  0.20032333677E+03  0.31427609537E+03  0.12508599344E+03 0.  0.
          5    1    3    3  502    0 -0.17212426535E+03 -0.10385667376E+03  0.16888174996E+03  0.26258615591E+03  0.41800000000E+01 0.  1.
         -5    1    3    3    0  502 -0.23000822556E+02  0.33715963901E+02  0.31441586811E+02  0.51689939458E+02  0.41800000000E+01 0.  1.
        -11    1    1    2    0    0  0.17399270701E+03  0.32124260314E+02  0.40729527321E+03  0.44406628984E+03  0.00000000000E+00 0. -1.
         11    1    1    2    0    0  0.21132380901E+02  0.38016449541E+02  0.50079100397E+02  0.66330568028E+02  0.00000000000E+00 0.  1.
</event>
<event>
 7    1  0.1068210E-005  0.1247538E+03  0.7561462E-02  0.1235455E+00
          4   -1    0    0  501    0  0.00000000000E+00  0.00000000000E+00  0.60804851758E+02  0.60804851758E+02  0.00000000000E+00 0.  1.
         -4   -1    0    0    0  501 -0.00000000000E+00 -0.00000000000E+00 -0.45219301281E+03  0.45219301281E+03  0.00000000000E+00 0. -1.
         23    2    1    2    0    0  0.50052202355E+02 -0.10470550032E+03 -0.28015226628E+03  0.32802544602E+03  0.12508771394E+03 0.  0.
          5    1    3    3  502    0  0.12418024965E+01 -0.50189233592E+02 -0.23841858930E+03  0.24368298538E+03  0.41800000000E+01 0.  1.
         -5    1    3    3    0  502  0.48810399859E+02 -0.54516266726E+02 -0.41733676980E+02  0.84342460637E+02  0.41800000000E+01 0.  1.
        -11    1    1    2    0    0  0.56548629954E+01  0.40239970269E+02  0.49062550660E+01  0.40930477905E+02  0.00000000000E+00 0.  1.
         11    1    1    2    0    0 -0.55707065351E+02  0.64465530049E+02 -0.11614214984E+03  0.14404194064E+03  0.00000000000E+00 0. -1.
</event>
<event>
 7    1  0.1068210E-005  0.2286099E+03  0.7561462E-02  0.1127622E+00
          2   -1    0    0  501    0  0.00000000000E+00  0.00000000000E+00  0.74540313620E+03  0.74540313620E+03  0.00000000000E+00 0.  1.
         -2   -1    0    0    0  501 -0.00000000000E+00 -0.00000000000E+00 -0.79399148127E+02  0.79399148127E+02  0.00000000000E+00 0. -1.
         23    2    1    2    0    0 -0.17895126116E+03  0.12273637909E+03  0.33440485878E+03  0.41781023654E+03  0.12510400298E+03 0.  0.
          5    1    3    3  502    0 -0.70785643853E+02  0.10843880545E+03  0.24312891797E+03  0.27549723239E+03  0.41800000000E+01 0.  1.
         -5    1    3    3    0  502 -0.10816561731E+03  0.14297573647E+02  0.91275940806E+02  0.14231300415E+03  0.41800000000E+01 0.  1.
        -11    1    1    2    0    0  0.44193142103E+02 -0.44158197322E+02  0.34344348880E+02  0.71291756183E+02  0.00000000000E+00 0. -1.
         11    1    1    2    0    0  0.13475811906E+03 -0.78578181773E+02  0.29725478042E+03  0.33570029160E+03  0.00000000000E+00 0.  1.
</event>
<event>
 7    1  0.1068210E-005  0.9948643E+02  0.7561462E-02  0.1281380E+00
          1   -1    0    0  501    0  0.00000000000E+00  0.00000000000E+00  0.54550083110E+03  0.54550083110E+03  0.00000000000E+00 0. -1.
         -1   -1    0    0    0  501 -0.00000000000E+00 -0.00000000000E+00 -0.31381095695E+02  0.31381095695E+02  0.00000000000E+00 0.  1.
         23    2    1    2    0    0 -0.37503356226E+02  0.60836567349E+02  0.27725420435E+03  0.31245128661E+03  0.12509325728E+03 0.  0.
          5    1    3    3  502    0 -0.62823107729E+02  0.74922632978E+02  0.13225567114E+03  0.16452713681E+03  0.41800000000E+01 0.  1.
         -5    1    3    3    0  502  0.25319751503E+02 -0.14086065630E+02  0.14499853321E+03  0.14792414980E+03  0.41800000000E+01 0.  1.
        -11    1    1    2    0    0  0.77998633868E+01 -0.77126245430E+01 -0.70478120753E+01  0.13038178601E+02  0.00000000000E+00 0.  1.
         11    1    1    2    0    0  0.29703492839E+02 -0.53123942806E+02  0.24391334313E+03  0.25139246159E+03  0.00000000000E+00 0. -1.
</event>
<event>
 7    1  0.1068210E-005  0.1120852E+03  0.7561462E-02  0.1256757E+00
          1   -1    0    0  501    0  0.00000000000E+00  0.00000000000E+00  0.33442182470E+03  0.33442182470E+03  0.00000000000E+00 0. -1.
         -1   -1    0    0    0  501 -0.00000000000E+00 -0.00000000000E+00 -0.73495421285E+02  0.73495421285E+02  0.00000000000E+00 0.  1.
         23    2    1    2    0    0  0.63366380921E+02 -0.80055344171E+01  0.20544307183E+02  0.14194722660E+03  0.12509020652E+03 0.  0.
          5    1    3    3  502    0  0.88227664273E+02  0.52227191764E+00 -0.22673948631E+02  0.91191961584E+02  0.41800000000E+01 0. -1.
         -5    1    3    3    0  502 -0.24861283352E+02 -0.85278063348E+01  0.43218255814E+02  0.50755265012E+02  0.41800000000E+01 0. -1.
        -11    1    1    2    0    0 -0.65218874127E+02  0.40441412011E+02  0.13055673934E+03  0.15143999318E+03  0.00000000000E+00 0.  1.
         11    1    1    2    0    0  0.18524932067E+01 -0.32435877594E+02  0.10982535689E+03  0.11453002621E+03  0.00000000000E+00 0. -1.
</event>
<event>
 7    1  0.1068210E-005  0.1166900E+03  0.7561462E-02  0.1248660E+00
         -1   -1    0    0    0  501 -0.00000000000E+00  0.00000000000E+00  0.34478437112E+02  0.34478437112E+02  0.00000000000E+00 0.  1.
          1   -1    0    0  501    0  0.00000000000E+00 -0.00000000000E+00 -0.56069556144E+03  0.56069556144E+03  0.00000000000E+00 0. -1.
         23    2    1    2    0    0  0.42538438772E+02  0.69437295063E+02 -0.30836082621E+03  0.34258511745E+03  0.12508839608E+03 0.  0.
          5    1    3    3  502    0  0.56912631301E+02  0.15358137133E+00 -0.54119672158E+02  0.78647838516E+02  0.41800000000E+01 0. -1.
         -5    1    3    3    0  502 -0.14374192528E+02  0.69283713691E+02 -0.25424115406E+03  0.26393727893E+03  0.41800000000E+01 0. -1.
        -11    1    1    2    0    0 -0.14726822685E+02 -0.75536691299E+02 -0.20908076780E+03  0.22279461058E+03  0.00000000000E+00 0. -1.
         11    1    1    2    0    0 -0.27811616087E+02  0.60993962360E+01 -0.87755303116E+01  0.29794270524E+02  0.00000000000E+00 0.  1.
</event>
<event>
 7    1  0.1068210E-005  0.2500640E+03  0.7561462E-02  0.1113264E+00
         -1   -1    0    0    0  501 -0.00000000000E+00  0.00000000000E+00  0.25379834615E+03  0.25379834615E+03  0.00000000000E+00 0.  1.
          1   -1    0    0  501    0  0.00000000000E+00 -0.00000000000E+00 -0.27458929060E+03  0.27458929060E+03  0.00000000000E+00 0. -1.
         23    2    1    2    0    0  0.34072834705E+02 -0.22926084833E+03  0.52551864060E+02  0.26857249726E+03  0.12509193910E+03 0.  0.
          5    1    3    3  502    0  0.44396513006E+02 -0.23493971300E+03  0.27674375924E+02  0.24073026938E+03  0.41800000000E+01 0. -1.
         -5    1    3    3    0  502 -0.10323678301E+02  0.56788646706E+01  0.24877488136E+02  0.27842227885E+02  0.41800000000E+01 0. -1.
        -11    1    1    2    0    0  0.22663404816E+02  0.14593334052E+03 -0.53480630742E+02  0.15706797146E+03  0.00000000000E+00 0.  1.
         11    1    1    2    0    0 -0.56736239522E+02  0.83327507805E+02 -0.19862177765E+02  0.10274716803E+03  0.00000000000E+00 0. -1.
</event>
<event>
 7    1  0.1068210E-005  0.1099496E+03  0.7561462E-02  0.1260663E+00
          2   -1    0    0  501    0  0.00000000000E+00  0.00000000000E+00  0.26402814892E+03  0.26402814892E+03  0.00000000000E+00 0. -1.
         -2   -1    0    0    0  501 -0.00000000000E+00 -0.00000000000E+00 -0.64640505187E+02  0.64640505187E+02  0.00000000000E+00 0.  1.
         23    2    1    2    0    0 -0.34065788182E+02 -0.57276577816E+02  0.77739089535E+02  0.16165326610E+03  0.12508928055E+03 0.  0.
          5    1    3    3  502    0 -0.61225278813E+02 -0.41123511112E+02 -0.39372803425E+01  0.73977378356E+02  0.41800000000E+01 0. -1.
         -5    1    3    3    0  502  0.27159490630E+02 -0.16153066704E+02  0.81676369878E+02  0.87675887744E+02  0.41800000000E+01 0. -1.
        -11    1    1    2    0    0 -0.31386228756E+02  0.29416784057E+02  0.40203712288E+02  0.58879376878E+02  0.00000000000E+00 0. -1.
         11    1    1    2    0    0  0.65452016938E+02  0.27859793759E+02  0.81444841910E+02  0.10813601113E+03  0.00000000000E+00 0.  1.
</event>
<event>
 7    1  0.1068210E-005  0.1628833E+03  0.7561462E-02  0.1185479E+00
         -1   -1    0    0    0  501 -0.00000000000E+00  0.00000000000E+00  0.13507735899E+03  0.13507735899E+03  0.00000000000E+00 0.  1.
          1   -1    0    0  501    0  0.00000000000E+00 -0.00000000000E+00 -0.25749028716E+03  0.25749028716E+03  0.00000000000E+00 0. -1.
         23    2    1    2    0    0 -0.78902159508E+02  0.12919619224E+03 -0.65900615955E+02  0.20714936731E+03  0.12510300687E+03 0.  0.
          5    1    3    3  502    0 -0.48279512830E+02  0.69254285683E+02  0.30189111675E+02  0.89754789890E+02  0.41800000000E+01 0. -1.
         -5    1    3    3    0  502 -0.30622646678E+02  0.59941906560E+02 -0.96089727630E+02  0.11739457742E+03  0.41800000000E+01 0. -1.
        -11    1    1    2    0    0  0.96590520740E+01 -0.96927634779E+02 -0.47880160715E+02  0.10853927151E+03  0.00000000000E+00 0. -1.
         11    1    1    2    0    0  0.69243107434E+02 -0.32268557463E+02 -0.86321515012E+01  0.76879007325E+02  0.00000000000E+00 0.  1.
</event>
<event>
 7    1  0.1068210E-005  0.1131462E+03  0.7561462E-02  0.1254852E+00
         -2   -1    0    0    0  501 -0.00000000000E+00  0.00000000000E+00  0.39977583273E+02  0.39977583273E+02  0.00000000000E+00 0.  1.
          2   -1    0    0  501    0  0.00000000000E+00 -0.00000000000E+00 -0.53825799420E+03  0.53825799420E+03  0.00000000000E+00 0. -1.
         23    2    1    2    0    0  0.67447296107E+02  0.73020883167E+02 -0.26162240226E+03  0.30655393295E+03  0.12509134786E+03 0.  0.
          5    1    3    3  502    0  0.25224604281E+02  0.34323259096E+02 -0.44301897204E+01  0.43028662041E+02  0.41800000000E+01 0.  1.
         -5    1    3    3    0  502  0.42222691826E+02  0.38697624071E+02 -0.25719221254E+03  0.26352527090E+03  0.41800000000E+01 0.  1.
        -11    1    1    2    0    0  0.15287036318E+02  0.62865016598E+00 -0.69434333024E+02  0.71100037152E+02  0.00000000000E+00 0. -1.
         11    1    1    2    0    0 -0.82734332425E+02 -0.73649533333E+02 -0.16722367564E+03  0.20058160737E+03  0.00000000000E+00 0.  1.
</event>
<event>
 7    1  0.1068210E-005  0.1048715E+03  0.7561462E-02  0.1270373E+00
          1   -1    0    0  501    0  0.00000000000E+00  0.00000000000E+00  0.84623283445E+02  0.84623283445E+02  0.00000000000E+00 0.  1.
         -1   -1    0    0    0  501 -0.00000000000E+00 -0.00000000000E+00 -0.20482677377E+03  0.20482677377E+03  0.00000000000E+00 0. -1.
         23    2    1    2    0    0 -0.69434701831E+02 -0.11049694867E+02 -0.94442793277E+02  0.17178639097E+03  0.12509136399E+03 0.  0.
          5    1    3    3  502    0 -0.67343411666E+02 -0.45422571206E+02 -0.11839485948E+02  0.82194834979E+02  0.41800000000E+01 0.  1.
         -5    1    3    3    0  502 -0.20912901651E+01  0.34372876339E+02 -0.82603307329E+02  0.89591555986E+02  0.41800000000E+01 0.  1.
        -11    1    1    2    0    0  0.89864951115E+01  0.29240383953E+02  0.22690750556E+02  0.38087101608E+02  0.00000000000E+00 0.  1.
         11    1    1    2    0    0  0.60448206719E+02 -0.18190689086E+02 -0.48451447601E+02  0.79576564639E+02  0.00000000000E+00 0. -1.
</event>
<event>
 7    1  0.1068210E-005  0.6070923E+02  0.7561462E-02  0.1394879E+00
         -2   -1    0    0    0  501 -0.00000000000E+00  0.00000000000E+00  0.36000470523E+02  0.36000470523E+02  0.00000000000E+00 0.  1.
          2   -1    0    0  501    0  0.00000000000E+00 -0.00000000000E+00 -0.34989060830E+03  0.34989060830E+03  0.00000000000E+00 0. -1.
         23    2    1    2    0    0 -0.49409472183E+00 -0.27270594714E+02 -0.21853857349E+03  0.25327878131E+03  0.12508838273E+03 0.  0.
          5    1    3    3  502    0 -0.46362427781E+01 -0.42557753922E+02 -0.10081112946E+02  0.44178709852E+02  0.41800000000E+01 0.  1.
         -5    1    3    3    0  502  0.41421480563E+01  0.15287159208E+02 -0.20845746054E+03  0.20910007146E+03  0.41800000000E+01 0.  1.
        -11    1    1    2    0    0  0.88320612532E+01  0.43173948735E+02 -0.97318242432E+01  0.45129852187E+02  0.00000000000E+00 0.  1.
         11    1    1    2    0    0 -0.83379665314E+01 -0.15903354021E+02 -0.85619740046E+02  0.87482445328E+02  0.00000000000E+00 0. -1.
</event>
<event>
 7    1  0.1068210E-005  0.1508316E+03  0.7561462E-02  0.1199455E+00
          3   -1    0    0  501    0  0.00000000000E+00  0.00000000000E+00  0.33756391099E+03  0.33756391099E+03  0.00000000000E+00 0. -1.
         -3   -1    0    0    0  501 -0.00000000000E+00 -0.00000000000E+00 -0.75719081338E+02  0.75719081338E+02  0.00000000000E+00 0.  1.
         23    2    1    2    0    0  0.10982066704E+03  0.41067011379E+02  0.12328683916E+03  0.21118295268E+03  0.12510602088E+03 0.  0.
          5    1    3    3  502    0  0.13158420077E+03  0.20517886158E+02  0.71473711154E+02  0.15119970017E+03  0.41800000000E+01 0.  1.
         -5    1    3    3    0  502 -0.21763533733E+02  0.20549125221E+02  0.51813128007E+02  0.59983252511E+02  0.41800000000E+01 0.  1.
        -11    1    1    2    0    0 -0.22777483201E+00 -0.27808100847E+02  0.40665553086E+01  0.28104790093E+02  0.00000000000E+00 0. -1.
         11    1    1    2    0    0 -0.10959289221E+03 -0.13258910531E+02  0.13449143518E+03  0.17399524955E+03  0.00000000000E+00 0.  1.
</event>
<event>
 7    1  0.1068210E-005  0.1471864E+03  0.7561462E-02  0.1203974E+00
          2   -1    0    0  501    0  0.00000000000E+00  0.00000000000E+00  0.41333076889E+03  0.41333076889E+03  0.00000000000E+00 0. -1.
         -2   -1    0    0    0  501 -0.00000000000E+00 -0.00000000000E+00 -0.53848741152E+02  0.53848741152E+02  0.00000000000E+00 0.  1.
         23    2    1    2    0    0 -0.11504741764E+03  0.99860389027E+01  0.17121725687E+03  0.24145156683E+03  0.12509148970E+03 0.  0.
          5    1    3    3  502    0 -0.11446500336E+03 -0.38830353951E+02  0.12824463989E+03  0.17627873792E+03  0.41800000000E+01 0.  1.
         -5    1    3    3    0  502 -0.58241427643E+00  0.48816392854E+02  0.42972616983E+02  0.65172828910E+02  0.41800000000E+01 0.  1.
        -11    1    1    2    0    0  0.36002748009E+02 -0.25185204850E+02  0.62054016619E+02  0.76034159337E+02  0.00000000000E+00 0.  1.
         11    1    1    2    0    0  0.79044669631E+02  0.15199165948E+02  0.12621075425E+03  0.14969378387E+03  0.00000000000E+00 0. -1.
</event>
<event>
 7    1  0.1068210E-005  0.1671446E+03  0.7561462E-02  0.1180859E+00
          2   -1    0    0  501    0  0.00000000000E+00  0.00000000000E+00  0.38200651526E+03  0.38200651526E+03  0.00000000000E+00 0. -1.
         -2   -1    0    0    0  501 -0.00000000000E+00 -0.00000000000E+00 -0.95331357374E+02  0.95331357374E+02  0.00000000000E+00 0.  1.
         23    2    1    2    0    0 -0.13961385377E+03 -0.38010364787E+02  0.74678039929E+02  0.20532989157E+03  0.12508692470E+03 0.  0.
          5    1    3    3  502    0 -0.14374292099E+03 -0.59065537590E+02  0.89058988675E+02  0.17916400568E+03  0.41800000000E+01 0.  1.
         -5    1    3    3    0  502  0.41290672252E+01  0.21055172803E+02 -0.14380948746E+02  0.26165885897E+02  0.41800000000E+01 0.  1.
        -11    1    1    2    0    0  0.44718052013E+02  0.42870326157E+02  0.35086972161E+02  0.71194554961E+02  0.00000000000E+00 0.  1.
         11    1    1    2    0    0  0.94895801756E+02 -0.48599613703E+01  0.17691014580E+03  0.20081342610E+03  0.00000000000E+00 0. -1.
</event>
<event>
 7    1  0.1068210E-005  0.1287907E+03  0.7561462E-02  0.1229261E+00
         -1   -1    0    0    0  501 -0.00000000000E+00  0.00000000000E+00  0.47097685685E+02  0.47097685685E+02  0.00000000000E+00 0.  1.
          1   -1    0    0  501    0  0.00000000000E+00 -0.00000000000E+00 -0.49521392299E+03  0.49521392299E+03  0.00000000000E+00 0. -1.
         23    2    1    2    0    0 -0.22981024096E+02  0.99680396803E+02 -0.18237803628E+03  0.24366874339E+03  0.12509356263E+03 0.  0.
          5    1    3    3  502    0 -0.67833127614E+02  0.82394951519E+02 -0.90922905792E+02  0.14026656207E+03  0.41800000000E+01 0. -1.
         -5    1    3    3    0  502  0.44852103519E+02  0.17285445285E+02 -0.91455130488E+02  0.10340218132E+03  0.41800000000E+01 0. -1.
        -11    1    1    2    0    0  0.79191601310E+01 -0.21608695197E+02 -0.19095106954E+01  0.23093181600E+02  0.00000000000E+00 0.  1.
         11    1    1    2    0    0  0.15061863965E+02 -0.78071701606E+02 -0.26382869033E+03  0.27554968368E+03  0.00000000000E+00 0. -1.
</event>
<event>
 7    1  0.1068210E-005  0.1222250E+03  0.7561462E-02  0.1239471E+00
          1   -1    0    0  501    0  0.00000000000E+00  0.00000000000E+00  0.29844101428E+02  0.29844101428E+02  0.00000000000E+00 0. -1.
         -1   -1    0    0    0  501 -0.00000000000E+00 -0.00000000000E+00 -0.70199066968E+03  0.70199066968E+03  0.00000000000E+00 0.  1.
         23    2    1    2    0    0 -0.74117624458E+02  0.61121773928E+02 -0.34418027559E+03  0.37860178587E+03  0.12509978680E+03 0.  0.
          5    1    3    3  502    0 -0.81757639761E+02  0.27083578352E+02 -0.32937540909E+03  0.34047535063E+03  0.41800000000E+01 0.  1.
         -5    1    3    3    0  502  0.76400153033E+01  0.34038195575E+02 -0.14804866498E+02  0.38126435237E+02  0.41800000000E+01 0.  1.
        -11    1    1    2    0    0  0.26997014774E+02 -0.70099871612E+02 -0.13602594706E+03  0.15538947545E+03  0.00000000000E+00 0.  1.
         11    1    1    2    0    0  0.47120609683E+02  0.89780976845E+01 -0.19194034561E+03  0.19784350980E+03  0.00000000000E+00 0. -1.
</event>
<event>
 7    1  0.1068210E-005  0.2029650E+03  0.7561462E-02  0.1147261E+00
         -1   -1    0    0    0  501 -0.00000000000E+00  0.00000000000E+00  0.83069374734E+02  0.83069374734E+02  0.00000000000E+00 0.  1.
          1   -1    0    0  501    0  0.00000000000E+00 -0.00000000000E+00 -0.54259096981E+03  0.54259096981E+03  0.00000000000E+00 0. -1.
         23    2    1    2    0    0 -0.10910803076E+03  0.15064471920E+03 -0.18794477210E+03  0.29260985966E+03  0.12529524656E+03 0.  0.
          5    1    3    3  502    0 -0.10102211787E+03  0.41590074144E+02 -0.12615612300E+03  0.16693724071E+03  0.41800000000E+01 0. -1.
         -5    1    3    3    0  502 -0.80859128957E+01  0.10905464506E+03 -0.61788649094E+02  0.12567261895E+03  0.41800000000E+01 0. -1.
        -11    1    1    2    0    0  0.10397780820E+03 -0.13316405014E+03 -0.21396139307E+03  0.27262341530E+03  0.00000000000E+00 0.  1.
         11    1    1    2    0    0  0.51302225612E+01 -0.17480669065E+02 -0.57615429914E+02  0.60427069585E+02  0.00000000000E+00 0. -1.
</event>
<event>
 7    1  0.1068210E-005  0.1387752E+03  0.7561462E-02  0.1214987E+00
         -2   -1    0    0    0  501 -0.00000000000E+00  0.00000000000E+00  0.19579618621E+02  0.19579618621E+02  0.00000000000E+00 0.  1.
          2   -1    0    0  501    0  0.00000000000E+00 -0.00000000000E+00 -0.99597477255E+03  0.99597477255E+03  0.00000000000E+00 0. -1.
         23    2    1    2    0    0 -0.31271258804E+02 -0.80767893959E+02 -0.50970425437E+03  0.53192754571E+03  0.12508853922E+03 0.  0.
          5    1    3    3  502    0  0.16435904700E+02 -0.99314639692E+02 -0.33193875414E+03  0.34689241202E+03  0.41800000000E+01 0. -1.
         -5    1    3    3    0  502 -0.47707163504E+02  0.18546745732E+02 -0.17776550023E+03  0.18503513369E+03  0.41800000000E+01 0. -1.
        -11    1    1    2    0    0  0.27317552812E+02  0.10110190611E+03 -0.35908850176E+03  0.37404865486E+03  0.00000000000E+00 0.  1.
         11    1    1    2    0    0  0.39537059919E+01 -0.20334012151E+02 -0.10760239780E+03  0.10957819060E+03  0.00000000000E+00 0. -1.
</event>
<event>
 7    1  0.1068210E-005  0.1626446E+03  0.7561462E-02  0.1185743E+00
          1   -1    0    0  501    0  0.00000000000E+00  0.00000000000E+00  0.76510726718E+02  0.76510726718E+02  0.00000000000E+00 0. -1.
         -1   -1    0    0    0  501 -0.00000000000E+00 -0.00000000000E+00 -0.40275089178E+03  0.40275089178E+03  0.00000000000E+00 0.  1.
         23    2    1    2    0    0  0.84817674523E+02 -0.10846429141E+03 -0.17025041599E+03  0.25217119090E+03  0.12508623006E+03 0.  0.
          5    1    3    3  502    0  0.63637830808E+02 -0.27825713653E+01 -0.11366950005E+03  0.13036772551E+03  0.41800000000E+01 0.  1.
         -5    1    3    3    0  502  0.21179843715E+02 -0.10568172005E+03 -0.56580915945E+02  0.12180346539E+03  0.41800000000E+01 0.  1.
        -11    1    1    2    0    0 -0.96068259033E+02  0.10373230849E+03 -0.16066919946E+03  0.21401891008E+03  0.00000000000E+00 0.  1.
         11    1    1    2    0    0  0.11250584510E+02  0.47319829222E+01  0.46794503899E+01  0.13071517515E+02  0.00000000000E+00 0. -1.
</event>
<event>
 7    1  0.1068210E-005  0.1192408E+03  0.7561462E-02  0.1244355E+00
         -2   -1    0    0    0  501 -0.00000000000E+00  0.00000000000E+00  0.25144316748E+03  0.25144316748E+03  0.00000000000E+00 0.  1.
          2   -1    0    0  501    0  0.00000000000E+00 -0.00000000000E+00 -0.57876029901E+02  0.57876029901E+02  0.00000000000E+00 0. -1.
         23    2    1    2    0    0  0.50039262122E+02  0.31464573795E+01  0.13184589077E+03  0.18852891294E+03  0.12508390845E+03 0.  0.
          5    1    3    3  502    0  0.59922878982E+02 -0.51402622207E+02  0.81038038519E+02  0.11321491546E+03  0.41800000000E+01 0. -1.
         -5    1    3    3    0  502 -0.98836168607E+01  0.54549079586E+02  0.50807852253E+02  0.75313997481E+02  0.41800000000E+01 0. -1.
        -11    1    1    2    0    0  0.25313329354E+02  0.10219531550E+02  0.16651852664E+02  0.31976361038E+02  0.00000000000E+00 0.  1.
         11    1    1    2    0    0 -0.75352591476E+02 -0.13365988930E+02  0.45069394147E+02  0.88813923407E+02  0.00000000000E+00 0. -1.
</event>
<event>
 7    1  0.1068210E-005  0.1470032E+03  0.7561462E-02  0.1204205E+00
         -2   -1    0    0    0  501 -0.00000000000E+00  0.00000000000E+00  0.11115375323E+04  0.11115375323E+04  0.00000000000E+00 0.  1.
          2   -1    0    0  501    0  0.00000000000E+00 -0.00000000000E+00 -0.22523816574E+02  0.22523816574E+02  0.00000000000E+00 0. -1.
         23    2    1    2    0    0 -0.19731423214E+02  0.98284981005E+02  0.77763359600E+03  0.79398431216E+03  0.12509121380E+03 0.  0.
          5    1    3    3  502    0 -0.64308631017E+02  0.20643332691E+02  0.26074821805E+03  0.26938606650E+03  0.41800000000E+01 0.  1.
         -5    1    3    3    0  502  0.44577207803E+02  0.77641648314E+02  0.51688537795E+03  0.52459824566E+03  0.41800000000E+01 0.  1.
        -11    1    1    2    0    0 -0.37616886382E+02 -0.36565859609E+02  0.11677707863E+03  0.12801944510E+03  0.00000000000E+00 0.  1.
         11    1    1    2    0    0  0.57348309596E+02 -0.61719121396E+02  0.19460304109E+03  0.21205759161E+03  0.00000000000E+00 0. -1.
</event>
<event>
 7    1  0.1068210E-005  0.2472201E+03  0.7561462E-02  0.1115074E+00
          2   -1    0    0  501    0  0.00000000000E+00  0.00000000000E+00  0.52742913742E+03  0.52742913742E+03  0.00000000000E+00 0. -1.
         -2   -1    0    0    0  501 -0.00000000000E+00 -0.00000000000E+00 -0.11816000083E+03  0.11816000083E+03  0.00000000000E+00 0.  1.
         23    2    1    2    0    0 -0.29949035386E+02  0.22015001810E+03  0.17342433391E+03  0.30836111533E+03  0.12509037801E+03 0.  0.
          5    1    3    3  502    0  0.44355025102E+02  0.12642283682E+03  0.76358926287E+02  0.15426684655E+03  0.41800000000E+01 0.  1.
         -5    1    3    3    0  502 -0.74304060488E+02  0.93727181281E+02  0.97065407620E+02  0.15409426878E+03  0.41800000000E+01 0.  1.
        -11    1    1    2    0    0  0.49558659396E+02 -0.53537329908E+02  0.79618388409E+02  0.10798793538E+03  0.00000000000E+00 0. -1.
         11    1    1    2    0    0 -0.19609624010E+02 -0.16661268819E+03  0.15622641427E+03  0.22924008754E+03  0.00000000000E+00 0.  1.
</event>
<event>
 7    1  0.1068210E-005  0.1169939E+03  0.7561462E-02  0.1248140E+00
          2   -1    0    0  501    0  0.00000000000E+00  0.00000000000E+00  0.29346241005E+03  0.29346241005E+03  0.00000000000E+00 0. -1.
         -2   -1    0    0    0  501 -0.00000000000E+00 -0.00000000000E+00 -0.72654277784E+02  0.72654277784E+02  0.00000000000E+00 0.  1.
         23    2    1    2    0    0 -0.85793639514E+02 -0.28870650239E+02  0.70785221512E+02  0.16985729379E+03  0.12508752793E+03 0.  0.
          5    1    3    3  502    0 -0.15931325887E+02  0.33396949701E+02 -0.17490154429E+02  0.41140506752E+02  0.41800000000E+01 0.  1.
         -5    1    3    3    0  502 -0.69862313626E+02 -0.62267599940E+02  0.88275375942E+02  0.12871678704E+03  0.41800000000E+01 0.  1.
        -11    1    1    2    0    0  0.49790580711E+02  0.41603839797E+02  0.32264574820E+02  0.72463675050E+02  0.00000000000E+00 0.  1.
         11    1    1    2    0    0  0.36003058803E+02 -0.12733189557E+02  0.11775833593E+03  0.12379571899E+03  0.00000000000E+00 0. -1.
</event>
<event>
 7    1  0.1068210E-005  0.1111049E+03  0.7561462E-02  0.1258537E+00
         -3   -1    0    0    0  501 -0.00000000000E+00  0.00000000000E+00  0.88330346613E+02  0.88330346613E+02  0.00000000000E+00 0.  1.
          3   -1    0    0  501    0  0.00000000000E+00 -0.00000000000E+00 -0.18132019350E+03  0.18132019350E+03  0.00000000000E+00 0. -1.
         23    2    1    2    0    0  0.35126522803E+02  0.22882378236E+02  0.71736712846E+00  0.13193023505E+03  0.12509035321E+03 0.  0.
          5    1    3    3  502    0  0.20770996107E+02  0.69332313290E+02  0.25941952369E+02  0.76999098944E+02  0.41800000000E+01 0. -1.
         -5    1    3    3    0  502  0.14355526696E+02 -0.46449935054E+02 -0.25224585240E+02  0.54931136105E+02  0.41800000000E+01 0. -1.
        -11    1    1    2    0    0  0.27603210034E+02 -0.26254521452E+02 -0.34459543291E+02  0.51368251135E+02  0.00000000000E+00 0. -1.
         11    1    1    2    0    0 -0.62729732837E+02  0.33721432153E+01 -0.59247670725E+02  0.86352053930E+02  0.00000000000E+00 0.  1.
</event>
<event>
 6    1  0.1068210E-005  0.1857514E+03  0.7561462E-02  0.1162350E+00
          2   -1    0    0  501    0  0.00000000000E+00  0.00000000000E+00  0.19640384639E+03  0.19640384639E+03  0.00000000000E+00 0. -1.
         -2   -1    0    0    0  501 -0.00000000000E+00 -0.00000000000E+00 -0.25415003322E+03  0.25415003322E+03  0.00000000000E+00 0.  1.
          5    1    1    2  502    0 -0.99761534043E+02  0.10657314376E+03 -0.77928986421E+02  0.16553125979E+03  0.41800000000E+01 0. -1.
         -5    1    1    2    0  502  0.28165931407E+02 -0.10598126243E+03 -0.74980591875E+02  0.13290940236E+03  0.41800000000E+01 0.  1.
        -11    1    1    2    0    0  0.83897465155E+02 -0.25714842542E+02  0.85503946002E+02  0.12251923346E+03  0.00000000000E+00 0. -1.
         11    1    1    2    0    0 -0.12301862520E+02  0.25122961218E+02  0.96594454609E+01  0.29593983991E+02  0.00000000000E+00 0.  1.
</event>
<event>
 7    1  0.1068210E-005  0.1257389E+03  0.7561462E-02  0.1233919E+00
         -2   -1    0    0    0  501 -0.00000000000E+00  0.00000000000E+00  0.89176453724E+02  0.89176453724E+02  0.00000000000E+00 0. -1.
          2   -1    0    0  501    0  0.00000000000E+00 -0.00000000000E+00 -0.22675136527E+03  0.22675136527E+03  0.00000000000E+00 0.  1.
         23    2    1    2    0    0 -0.82451955566E+02  0.23501155806E+02 -0.53795359696E+02  0.16090922247E+03  0.12508879985E+03 0.  0.
          5    1    3    3  502    0  0.20452066597E+02 -0.13998144171E+02 -0.44251483924E+02  0.50891072869E+02  0.41800000000E+01 0.  1.
         -5    1    3    3    0  502 -0.10290402216E+03  0.37499299977E+02 -0.95438757722E+01  0.11001814960E+03  0.41800000000E+01 0.  1.
        -11    1    1    2    0    0  0.91466685880E+02  0.11030062938E+00 -0.31133491570E+02  0.96620189864E+02  0.00000000000E+00 0. -1.
         11    1    1    2    0    0 -0.90147303140E+01 -0.23611456435E+02 -0.52646060281E+02  0.58398406663E+02  0.00000000000E+00 0.  1.
</event>
<event>
 7    1  0.1068210E-005  0.1605045E+03  0.7561462E-02  0.1188128E+00
         -1   -1    0    0    0  501 -0.00000000000E+00  0.00000000000E+00  0.12041924821E+03  0.12041924821E+03  0.00000000000E+00 0.  1.
          1   -1    0    0  501    0  0.00000000000E+00 -0.00000000000E+00 -0.22624905356E+03  0.22624905356E+03  0.00000000000E+00 0. -1.
         23    2    1    2    0    0  0.90188337035E+02  0.84018418158E+02 -0.36511088882E+02  0.17937164467E+03  0.12509235218E+03 0.  0.
          5    1    3    3  502    0  0.11595257214E+03  0.39764485543E+02 -0.36588557721E+02  0.12799378209E+03  0.41800000000E+01 0.  1.
         -5    1    3    3    0  502 -0.25764235108E+02  0.44253932615E+02  0.77468839336E-01  0.51377862587E+02  0.41800000000E+01 0.  1.
        -11    1    1    2    0    0  0.11019974577E+02 -0.30629721811E+02  0.17453581982E+01  0.32598557838E+02  0.00000000000E+00 0.  1.
         11    1    1    2    0    0 -0.10120831161E+03 -0.53388696347E+02 -0.71064074664E+02  0.13469809926E+03  0.00000000000E+00 0. -1.
</event>
<event>
 7    1  0.1068210E-005  0.1125955E+03  0.7561462E-02  0.1255838E+00
         -2   -1    0    0    0  501 -0.00000000000E+00  0.00000000000E+00  0.63247518818E+02  0.63247518818E+02  0.00000000000E+00 0.  1.
          2   -1    0    0  501    0  0.00000000000E+00 -0.00000000000E+00 -0.24613211904E+03  0.24613211904E+03  0.00000000000E+00 0. -1.
         23    2    1    2    0    0 -0.25492798400E+02 -0.52614388184E+02 -0.77943119201E+02  0.15856894777E+03  0.12510325636E+03 0.  0.
          5    1    3    3  502    0  0.21883300802E+02  0.32902992255E+02 -0.16505753712E+02  0.43027875371E+02  0.41800000000E+01 0. -1.
         -5    1    3    3    0  502 -0.47376099203E+02 -0.85517380438E+02 -0.61437365489E+02  0.11554107240E+03  0.41800000000E+01 0. -1.
        -11    1    1    2    0    0  0.22267514178E+02 -0.10349738248E+02 -0.78838425786E+02  0.82573946556E+02  0.00000000000E+00 0. -1.
         11    1    1    2    0    0  0.32252842224E+01  0.62964126431E+02 -0.26103055236E+02  0.68236743535E+02  0.00000000000E+00 0.  1.
</event>
<event>
 7    1  0.1068210E-005  0.9155152E+02  0.7561462E-02  0.1299137E+00
          1   -1    0    0  501    0  0.00000000000E+00  0.00000000000E+00  0.22918890699E+03  0.22918890699E+03  0.00000000000E+00 0. -1.
         -1   -1    0    0    0  501 -0.00000000000E+00 -0.00000000000E+00 -0.69303884851E+02  0.69303884851E+02  0.00000000000E+00 0.  1.
         23    2    1    2    0    0  0.26610017573E+02 -0.53268047645E+02  0.62204336171E+02  0.15186344061E+03  0.12509015637E+03 0.  0.
          5    1    3    3  502    0  0.43307642721E+02 -0.48967897653E+02 -0.19428155853E+02  0.68325197098E+02  0.41800000000E+01 0.  1.
         -5    1    3    3    0  502 -0.16697625148E+02 -0.43001499921E+01  0.81632492024E+02  0.83538243515E+02  0.41800000000E+01 0.  1.
        -11    1    1    2    0    0 -0.52509873334E+02  0.16809734075E+02  0.23335593989E+02  0.59869891465E+02  0.00000000000E+00 0. -1.
         11    1    1    2    0    0  0.25899855761E+02  0.36458313570E+02  0.74345091978E+02  0.86759459761E+02  0.00000000000E+00 0.  1.
</event>
<event>
 7    1  0.1068210E-005  0.7903241E+02  0.7561462E-02  0.1331820E+00
          4   -1    0    0  501    0  0.00000000000E+00  0.00000000000E+00  0.14330443446E+03  0.14330443446E+03  0.00000000000E+00 0. -1.
         -4   -1    0    0    0  501 -0.00000000000E+00 -0.00000000000E+00 -0.81984253942E+02  0.81984253942E+02  0.00000000000E+00 0.  1.
         23    2    1    2    0    0  0.30679715793E+02  0.85781823720E+01  0.13166705133E+02  0.12975308685E+03  0.12509065212E+03 0.  0.
          5    1    3    3  502    0  0.70691941040E+02 -0.20760279669E+02  0.26158007857E+02  0.78294658279E+02  0.41800000000E+01 0.  1.
         -5    1    3    3    0  502 -0.40012225247E+02  0.29338462041E+02 -0.12991302724E+02  0.51458428568E+02  0.41800000000E+01 0.  1.
        -11    1    1    2    0    0 -0.14082516250E+02  0.27953908238E+01 -0.19917818990E+02  0.24553023991E+02  0.00000000000E+00 0.  1.
         11    1    1    2    0    0 -0.16597199543E+02 -0.11373573196E+02  0.68071294374E+02  0.70982577564E+02  0.00000000000E+00 0. -1.
</event>
<event>
 7    1  0.1068210E-005  0.1216939E+03  0.7561462E-02  0.1240329E+00
          1   -1    0    0  501    0  0.00000000000E+00  0.00000000000E+00  0.45382627192E+03  0.45382627192E+03  0.00000000000E+00 0. -1.
         -1   -1    0    0    0  501 -0.00000000000E+00 -0.00000000000E+00 -0.40959520579E+02  0.40959520579E+02  0.00000000000E+00 0.  1.
         23    2    1    2    0    0  0.21369420561E+02 -0.71389796132E+02  0.28768024425E+03  0.32242368195E+03  0.12507578754E+03 0.  0.
          5    1    3    3  502    0  0.20568437309E+02 -0.10422701576E+03  0.25321424270E+03  0.27462930750E+03  0.41800000000E+01 0.  1.
         -5    1    3    3    0  502  0.80098325158E+00  0.32837219632E+02  0.34466001544E+02  0.47794374457E+02  0.41800000000E+01 0.  1.
        -11    1    1    2    0    0 -0.44765580178E+02  0.66324781553E+02  0.12500615527E+03  0.14842328884E+03  0.00000000000E+00 0. -1.
         11    1    1    2    0    0  0.23396159617E+02  0.50650145792E+01  0.18035182596E+00  0.23938821698E+02  0.00000000000E+00 0.  1.
</event>
<event>
 7    1  0.1068210E-005  0.3576394E+02  0.7561462E-02  0.1541919E+00
         -2   -1    0    0    0  501 -0.00000000000E+00  0.00000000000E+00  0.11977416689E+03  0.11977416689E+03  0.00000000000E+00 0.  1.
          2   -1    0    0  501    0  0.00000000000E+00 -0.00000000000E+00 -0.55588701551E+02  0.55588701551E+02  0.00000000000E+00 0. -1.
         23    2    1    2    0    0  0.83162165755E+01  0.99262828032E+01  0.65474826454E+02  0.13833402020E+03  0.12116789054E+03 0.  0.
          5    1    3    3  502    0 -0.12283473832E+02  0.12003221622E+00 -0.33894633509E+02  0.36293480376E+02  0.41800000000E+01 0. -1.
         -5    1    3    3    0  502  0.20599690407E+02  0.98062505870E+01  0.99369459962E+02  0.10204053983E+03  0.41800000000E+01 0.  1.
        -11    1    1    2    0    0 -0.17817980957E+02 -0.16109861073E+02 -0.59895069444E+01  0.24756459008E+02  0.00000000000E+00 0.  1.
         11    1    1    2    0    0  0.95017643812E+01  0.61835782696E+01  0.47001458317E+01  0.12272389230E+02  0.00000000000E+00 0. -1.
</event>
<event>
 7    1  0.1068210E-005  0.2287369E+03  0.7561462E-02  0.1127532E+00
          2   -1    0    0  501    0  0.00000000000E+00  0.00000000000E+00  0.23971812325E+03  0.23971812325E+03  0.00000000000E+00 0.  1.
         -2   -1    0    0    0  501 -0.00000000000E+00 -0.00000000000E+00 -0.32794066326E+03  0.32794066326E+03  0.00000000000E+00 0. -1.
         23    2    1    2    0    0  0.12339151211E+03 -0.17332862455E+03 -0.19307340244E+03  0.31335709110E+03  0.12508817076E+03 0.  0.
          5    1    3    3  502    0 -0.70290058609E+01 -0.62616438184E+02 -0.12117263876E+02  0.64300277901E+02  0.41800000000E+01 0. -1.
         -5    1    3    3    0  502  0.13042051797E+03 -0.11071218637E+03 -0.18095613857E+03  0.24905681320E+03  0.41800000000E+01 0. -1.
        -11    1    1    2    0    0 -0.23388245369E+02  0.90121385326E+02  0.10712366233E+02  0.93721016346E+02  0.00000000000E+00 0. -1.
         11    1    1    2    0    0 -0.10000326674E+03  0.83207239223E+02  0.94138496201E+02  0.16058067905E+03  0.00000000000E+00 0.  1.
</event>
<event>
 7    1  0.1068210E-005  0.1122848E+03  0.7561462E-02  0.1256396E+00
          2   -1    0    0  501    0  0.00000000000E+00  0.00000000000E+00  0.61538716805E+03  0.61538716805E+03  0.00000000000E+00 0. -1.
         -2   -1    0    0    0  501 -0.00000000000E+00 -0.00000000000E+00 -0.21609759175E+02  0.21609759175E+02  0.00000000000E+00 0.  1.
         23    2    1    2    0    0  0.13386425808E+02 -0.39397554968E+02  0.25999411173E+03  0.28667553754E+03  0.11337796063E+03 0.  0.
          5    1    3    3  502    0 -0.44002154337E+01 -0.77135806482E+02  0.14637651304E+03  0.16556826540E+03  0.41800000000E+01 0. -1.
         -5    1    3    3    0  502  0.17786641242E+02  0.37738251514E+02  0.11361759868E+03  0.12110727214E+03  0.41800000000E+01 0.  1.
        -11    1    1    2    0    0 -0.21116789137E+02 -0.29310539179E+02  0.13950314930E+03  0.14410466736E+03  0.00000000000E+00 0. -1.
         11    1    1    2    0    0  0.77303633285E+01  0.68708094147E+02  0.19428014785E+03  0.20621672232E+03  0.00000000000E+00 0.  1.
</event>
<event>
 7    1  0.1217160E-005  0.1356072E+03  0.7561462E-02  0.1219365E+00
         -1   -1    0    0    0  501 -0.00000000000E+00  0.00000000000E+00  0.35981083808E+02  0.35981083808E+02  0.00000000000E+00 0.  1.
          1   -1    0    0  501    0  0.00000000000E+00 -0.00000000000E+00 -0.84322578755E+03  0.84322578755E+03  0.00000000000E+00 0. -1.
         23    2    1    2    0    0 -0.27032700093E+02 -0.12782693614E+03 -0.34333889955E+03  0.38807167182E+03  0.12509008772E+03 0.  0.
          5    1    3    3  502    0 -0.31829168787E+00 -0.16394613819E+02  0.78374866781E+01  0.18648948209E+02  0.41800000000E+01 0. -1.
         -5    1    3    3    0  502 -0.26714408405E+02 -0.11143232232E+03 -0.35117638623E+03  0.36942272361E+03  0.41800000000E+01 0. -1.
        -11    1    1    2    0    0 -0.98273014715E+01  0.72387330502E+02 -0.11725460983E+03  0.13814899564E+03  0.00000000000E+00 0.  1.
         11    1    1    2    0    0  0.36860001565E+02  0.55439605635E+02 -0.34665119437E+03  0.35298620390E+03  0.00000000000E+00 0. -1.
</event>
<event>
 7    1  0.1068210E-005  0.1253800E+03  0.7561462E-02  0.1234477E+00
         -2   -1    0    0    0  501 -0.00000000000E+00  0.00000000000E+00  0.31373790047E+02  0.31373790047E+02  0.00000000000E+00 0.  1.
          2   -1    0    0  501    0  0.00000000000E+00 -0.00000000000E+00 -0.59979628994E+03  0.59979628994E+03  0.00000000000E+00 0. -1.
         23    2    1    2    0    0  0.83232569350E+02 -0.25682189871E+01 -0.29718479919E+03  0.33301722566E+03  0.12508961335E+03 0.  0.
          5    1    3    3  502    0  0.22467964124E+02 -0.51930546141E+02 -0.20139645390E+03  0.20923574044E+03  0.41800000000E+01 0. -1.
         -5    1    3    3    0  502  0.60764605225E+02  0.49362327154E+02 -0.95788345295E+02  0.12378148523E+03  0.41800000000E+01 0. -1.
        -11    1    1    2    0    0  0.55928659255E+01  0.23673773275E+02 -0.11188790691E+03  0.11450166550E+03  0.00000000000E+00 0.  1.
         11    1    1    2    0    0 -0.88825435275E+02 -0.21105554288E+02 -0.15934979379E+03  0.18365118882E+03  0.00000000000E+00 0. -1.
</event>
<event>
 7    1  0.1068210E-005  0.1151707E+03  0.7561462E-02  0.1251283E+00
          2   -1    0    0  501    0  0.00000000000E+00  0.00000000000E+00  0.41809147949E+03  0.41809147949E+03  0.00000000000E+00 0. -1.
         -2   -1    0    0    0  501 -0.00000000000E+00 -0.00000000000E+00 -0.41522920400E+02  0.41522920400E+02  0.00000000000E+00 0.  1.
         23    2    1    2    0    0 -0.68338174449E+02  0.17232757003E+02  0.15990807347E+03  0.21490696383E+03  0.12508931666E+03 0.  0.
          5    1    3    3  502    0 -0.50862917954E+02 -0.44620272316E+02  0.12359646571E+03  0.14096653454E+03  0.41800000000E+01 0.  1.
         -5    1    3    3    0  502 -0.17475256495E+02  0.61853029320E+02  0.36311607762E+02  0.73940429292E+02  0.41800000000E+01 0.  1.
        -11    1    1    2    0    0  0.56774465893E+02  0.19187703922E+02  0.18690097773E+03  0.19627400092E+03  0.00000000000E+00 0. -1.
         11    1    1    2    0    0  0.11563708556E+02 -0.36420460926E+02  0.29759507881E+02  0.48433435135E+02  0.00000000000E+00 0.  1.
</event>
<event>
 7    1  0.1068210E-005  0.5924951E+02  0.7561462E-02  0.1401008E+00
          2   -1    0    0  501    0  0.00000000000E+00  0.00000000000E+00  0.13219091728E+03  0.13219091728E+03  0.00000000000E+00 0. -1.
         -2   -1    0    0    0  501 -0.00000000000E+00 -0.00000000000E+00 -0.10288298249E+03  0.10288298249E+03  0.00000000000E+00 0.  1.
         23    2    1    2    0    0  0.20729339239E+02  0.10299417347E+01 -0.12061701380E+02  0.12724817120E+03  0.12496337923E+03 0.  0.
          5    1    3    3  502    0  0.28160671452E+02  0.14977132462E+02  0.51993344803E+02  0.61140152250E+02  0.41800000000E+01 0. -1.
         -5    1    3    3    0  502 -0.74313322129E+01 -0.13947190727E+02 -0.64055046183E+02  0.66108018947E+02  0.41800000000E+01 0. -1.
        -11    1    1    2    0    0 -0.26476580150E+02  0.29081490538E+02  0.60156642949E+02  0.71871858743E+02  0.00000000000E+00 0. -1.
         11    1    1    2    0    0  0.57472409109E+01 -0.30111432273E+02 -0.18787006785E+02  0.35953869827E+02  0.00000000000E+00 0.  1.
</event>
<event>
 7    1  0.1068210E-005  0.1270797E+03  0.7561462E-02  0.1231854E+00
         -2   -1    0    0    0  501 -0.00000000000E+00  0.00000000000E+00  0.23477514815E+02  0.23477514815E+02  0.00000000000E+00 0.  1.
          2   -1    0    0  501    0  0.00000000000E+00 -0.00000000000E+00 -0.73812866940E+03  0.73812866940E+03  0.00000000000E+00 0. -1.
         23    2    1    2    0    0 -0.66771290046E+02 -0.28929960105E+02 -0.44383174811E+03  0.46683145522E+03  0.12509851793E+03 0.  0.
          5    1    3    3  502    0 -0.99028201935E+02 -0.29639768694E+01 -0.35739825501E+03  0.37089938666E+03  0.41800000000E+01 0.  1.
         -5    1    3    3    0  502  0.32256911889E+02 -0.25965983235E+02 -0.86433493091E+02  0.95932068558E+02  0.41800000000E+01 0.  1.
        -11    1    1    2    0    0 -0.14793111868E+02  0.28162010274E+02 -0.48868824631E+02  0.58310350730E+02  0.00000000000E+00 0.  1.
         11    1    1    2    0    0  0.81564401914E+02  0.76794983097E+00 -0.22195058185E+03  0.23646437827E+03  0.00000000000E+00 0. -1.
</event>
<event>
 7    1  0.1068210E-005  0.1172433E+03  0.7561462E-02  0.1247715E+00
          2   -1    0    0  501    0  0.00000000000E+00  0.00000000000E+00  0.34615769190E+03  0.34615769190E+03  0.00000000000E+00 0. -1.
         -2   -1    0    0    0  501 -0.00000000000E+00 -0.00000000000E+00 -0.98851327225E+02  0.98851327225E+02  0.00000000000E+00 0.  1.
         23    2    1    2    0    0  0.26277422576E+01 -0.10909082195E+03  0.54203463675E+01  0.16608572658E+03  0.12508947180E+03 0.  0.
          5    1    3    3  502    0  0.15435913043E+02 -0.40238246766E+02 -0.57408506866E+02  0.71906835384E+02  0.41800000000E+01 0. -1.
         -5    1    3    3    0  502 -0.12808170786E+02 -0.68852575180E+02  0.62828853233E+02  0.94178891193E+02  0.41800000000E+01 0. -1.
        -11    1    1    2    0    0  0.24426084036E+02  0.63213260134E+02  0.19998833682E+03  0.21115843507E+03  0.00000000000E+00 0.  1.
         11    1    1    2    0    0 -0.27053826293E+02  0.45877561812E+02  0.41897681490E+02  0.67764857479E+02  0.00000000000E+00 0. -1.
</event>
<event>
 7    1  0.1068210E-005  0.2154002E+03  0.7561462E-02  0.1137360E+00
         -2   -1    0    0    0  501 -0.00000000000E+00  0.00000000000E+00  0.37923589877E+03  0.37923589877E+03  0.00000000000E+00 0.  1.
          2   -1    0    0  501    0  0.00000000000E+00 -0.00000000000E+00 -0.15022491270E+03  0.15022491270E+03  0.00000000000E+00 0. -1.
         23    2    1    2    0    0  0.19154518934E+03 -0.70209714469E+02  0.44799834863E+02  0.24345979716E+03  0.12508670618E+03 0.  0.
          5    1    3    3  502    0  0.18049714281E+03 -0.84290207971E+02  0.70940839354E+02  0.21150445104E+03  0.41800000000E+01 0.  1.
         -5    1    3    3    0  502  0.11048046525E+02  0.14080493502E+02 -0.26141004491E+02  0.31955346111E+02  0.41800000000E+01 0.  1.
        -11    1    1    2    0    0 -0.45136707421E+02  0.46587535657E+02  0.87615477345E+02  0.10901464446E+03  0.00000000000E+00 0.  1.
         11    1    1    2    0    0 -0.14640848192E+03  0.23622178812E+02  0.96595673861E+02  0.17698636986E+03  0.00000000000E+00 0. -1.
</event>
<event>
 7    1  0.1068210E-005  0.9929781E+02  0.7561462E-02  0.1281780E+00
          4   -1    0    0  501    0  0.00000000000E+00  0.00000000000E+00  0.21544128608E+03  0.21544128608E+03  0.00000000000E+00 0. -1.
         -4   -1    0    0    0  501 -0.00000000000E+00 -0.00000000000E+00 -0.73238792802E+02  0.73238792802E+02  0.00000000000E+00 0.  1.
         23    2    1    2    0    0  0.32799946301E+02  0.42644603213E+02  0.38797414095E+02  0.14158729451E+03  0.12508926400E+03 0.  0.
          5    1    3    3  502    0 -0.44788361016E+02  0.79492379420E+01  0.32887438491E+02  0.56287153746E+02  0.41800000000E+01 0. -1.
         -5    1    3    3    0  502  0.77588307316E+02  0.34695365271E+02  0.59099756038E+01  0.85300140768E+02  0.41800000000E+01 0. -1.
        -11    1    1    2    0    0 -0.28961849301E+02 -0.42941565444E+01 -0.70424567403E+01  0.30113530054E+02  0.00000000000E+00 0.  1.
         11    1    1    2    0    0 -0.38380969998E+01 -0.38350446669E+02  0.11044753593E+03  0.11697925432E+03  0.00000000000E+00 0. -1.
</event>
<event>
 7    1  0.1068210E-005  0.1007911E+03  0.7561462E-02  0.1278641E+00
         -2   -1    0    0    0  501 -0.00000000000E+00  0.00000000000E+00  0.23161234262E+02  0.23161234262E+02  0.00000000000E+00 0. -1.
          2   -1    0    0  501    0  0.00000000000E+00 -0.00000000000E+00 -0.66554014407E+03  0.66554014407E+03  0.00000000000E+00 0.  1.
         23    2    1    2    0    0 -0.46937791694E+02 -0.85843001931E+01 -0.27475876326E+03  0.30564133381E+03  0.12508956971E+03 0.  0.
          5    1    3    3  502    0 -0.41523300178E+02  0.32993187092E+02 -0.38537187618E+02  0.65691111131E+02  0.41800000000E+01 0. -1.
         -5    1    3    3    0  502 -0.54144915164E+01 -0.41577487285E+02 -0.23622157564E+03  0.23995022268E+03  0.41800000000E+01 0. -1.
        -11    1    1    2    0    0 -0.16855740353E+02  0.33704985563E+02 -0.16141152158E+03  0.16575228907E+03  0.00000000000E+00 0. -1.
         11    1    1    2    0    0  0.63793532047E+02 -0.25120685370E+02 -0.20620862497E+03  0.21730775544E+03  0.00000000000E+00 0.  1.
</event>
<event>
 7    1  0.1068210E-005  0.9859877E+02  0.7561462E-02  0.1283270E+00
         -2   -1    0    0    0  501 -0.00000000000E+00  0.00000000000E+00  0.27939129541E+02  0.27939129541E+02  0.00000000000E+00 0.  1.
          2   -1    0    0  501    0  0.00000000000E+00 -0.00000000000E+00 -0.60217567724E+03  0.60217567724E+03  0.00000000000E+00 0. -1.
         23    2    1    2    0    0 -0.70104561901E+02  0.14603453426E+02 -0.29022603915E+03  0.32404528454E+03  0.12508509976E+03 0.  0.
          5    1    3    3  502    0 -0.86849723799E+00  0.13876907223E+02 -0.23481804628E+03  0.23526646616E+03  0.41800000000E+01 0. -1.
         -5    1    3    3    0  502 -0.69236064663E+02  0.72654620293E+00 -0.55407992871E+02  0.88778818383E+02  0.41800000000E+01 0. -1.
        -11    1    1    2    0    0  0.11093129917E+02  0.34690956361E+02 -0.75301524601E+02  0.83647113470E+02  0.00000000000E+00 0.  1.
         11    1    1    2    0    0  0.59011431984E+02 -0.49294409787E+02 -0.20870898395E+03  0.22242240877E+03  0.00000000000E+00 0. -1.
</event>
<event>
 7    1  0.1068210E-005  0.9578183E+02  0.7561462E-02  0.1289425E+00
         -3   -1    0    0    0  501 -0.00000000000E+00  0.00000000000E+00  0.86981886427E+03  0.86981886427E+03  0.00000000000E+00 0.  1.
          3   -1    0    0  501    0  0.00000000000E+00 -0.00000000000E+00 -0.15622929779E+02  0.15622929779E+02  0.00000000000E+00 0. -1.
         23    2    1    2    0    0  0.17752580740E+02 -0.38232602817E+02  0.51151157280E+03  0.52826961138E+03  0.12509119538E+03 0.  0.
          5    1    3    3  502    0  0.62123664707E+02 -0.24420875768E+02  0.42259241104E+03  0.42785224922E+03  0.41800000000E+01 0. -1.
         -5    1    3    3    0  502 -0.44371083967E+02 -0.13811727049E+02  0.88919161759E+02  0.10041736217E+03  0.41800000000E+01 0. -1.
        -11    1    1    2    0    0 -0.76565432677E+01 -0.18697603377E+02  0.17028148716E+02  0.26423112525E+02  0.00000000000E+00 0. -1.
         11    1    1    2    0    0 -0.10096037472E+02  0.56930206194E+02  0.32565621297E+03  0.33074907014E+03  0.00000000000E+00 0.  1.
</event>
<event>
 7    1  0.1068210E-005  0.2056680E+03  0.7561462E-02  0.1145043E+00
         -2   -1    0    0    0  501 -0.00000000000E+00  0.00000000000E+00  0.64903654390E+02  0.64903654390E+02  0.00000000000E+00 0.  1.
          2   -1    0    0  501    0  0.00000000000E+00 -0.00000000000E+00 -0.10110707814E+04  0.10110707814E+04  0.00000000000E+00 0. -1.
         23    2    1    2    0    0 -0.18368859921E+03  0.30348664033E+02 -0.19640325090E+03  0.29813581811E+03  0.12509271037E+03 0.  0.
          5    1    3    3  502    0 -0.86493302220E+02  0.57446153650E+02 -0.38740744559E+02  0.11090297375E+03  0.41800000000E+01 0.  1.
         -5    1    3    3    0  502 -0.97195296992E+02 -0.27097489617E+02 -0.15766250634E+03  0.18723284436E+03  0.41800000000E+01 0.  1.
        -11    1    1    2    0    0  0.88524338290E+02 -0.59781250046E+02 -0.41891264887E+03  0.43231720266E+03  0.00000000000E+00 0. -1.
         11    1    1    2    0    0  0.95164260922E+02  0.29432586013E+02 -0.33085122726E+03  0.34552141504E+03  0.00000000000E+00 0.  1.
</event>
<event>
 7    1  0.1068210E-005  0.1011435E+03  0.7561462E-02  0.1277910E+00
          1   -1    0    0  501    0  0.00000000000E+00  0.00000000000E+00  0.34922373921E+02  0.34922373921E+02  0.00000000000E+00 0. -1.
         -1   -1    0    0    0  501 -0.00000000000E+00 -0.00000000000E+00 -0.42630094715E+03  0.42630094715E+03  0.00000000000E+00 0.  1.
         23    2    1    2    0    0  0.26936326762E+02  0.23318840183E+01 -0.31274515438E+03  0.33791673427E+03  0.12508870583E+03 0.  0.
          5    1    3    3  502    0  0.78064731457E+01 -0.53757321059E+02 -0.22801944806E+03  0.23443790582E+03  0.41800000000E+01 0.  1.
         -5    1    3    3    0  502  0.19129853616E+02  0.56089205077E+02 -0.84725706324E+02  0.10347882845E+03  0.41800000000E+01 0.  1.
        -11    1    1    2    0    0 -0.22728476397E+02 -0.42400123152E+02 -0.64807624909E+02  0.80711723615E+02  0.00000000000E+00 0.  1.
         11    1    1    2    0    0 -0.42078503652E+01  0.40068239133E+02 -0.13825793936E+02  0.42594863187E+02  0.00000000000E+00 0. -1.
</event>
<event>
 7    1  0.1068210E-005  0.1620799E+03  0.7561462E-02  0.1186368E+00
         -2   -1    0    0    0  501 -0.00000000000E+00  0.00000000000E+00  0.98637220250E+02  0.98637220250E+02  0.00000000000E+00 0.  1.
          2   -1    0    0  501    0  0.00000000000E+00 -0.00000000000E+00 -0.56983092537E+03  0.56983092537E+03  0.00000000000E+00 0. -1.
         23    2    1    2    0    0  0.12025928393E+03  0.16558437443E+02 -0.13790886101E+01  0.17447001447E+03  0.12530525464E+03 0.  0.
          5    1    3    3  502    0  0.76346373697E+02  0.69934977304E+02 -0.12378138459E+02  0.10435689023E+03  0.41800000000E+01 0.  1.
         -5    1    3    3    0  502  0.43912910229E+02 -0.53376539861E+02  0.10999049849E+02  0.70113124234E+02  0.41800000000E+01 0.  1.
        -11    1    1    2    0    0 -0.27636865421E+02 -0.46379880559E+02 -0.20059193002E+03  0.20773062374E+03  0.00000000000E+00 0.  1.
         11    1    1    2    0    0 -0.92622418505E+02  0.29821443115E+02 -0.26922268650E+03  0.28626750742E+03  0.00000000000E+00 0. -1.
</event>
<event>
 7    1  0.1068210E-005  0.9865349E+02  0.7561462E-02  0.1283153E+00
         -2   -1    0    0    0  501 -0.00000000000E+00  0.00000000000E+00  0.75206270725E+02  0.75206270725E+02  0.00000000000E+00 0. -1.
          2   -1    0    0  501    0  0.00000000000E+00 -0.00000000000E+00 -0.19375539641E+03  0.19375539641E+03  0.00000000000E+00 0.  1.
         23    2    1    2    0    0  0.36606985803E+01  0.54343101716E+02 -0.58539103875E+02  0.14846309255E+03  0.12509152548E+03 0.  0.
          5    1    3    3  502    0  0.35459966588E+01  0.81901685351E+02  0.16838946223E+01  0.82102180584E+02  0.41800000000E+01 0.  1.
         -5    1    3    3    0  502  0.11470192153E+00 -0.27558583635E+02 -0.60222998498E+02  0.66360911963E+02  0.41800000000E+01 0.  1.
        -11    1    1    2    0    0 -0.32540403433E+02 -0.47653217510E+02 -0.68593103673E+02  0.89636604499E+02  0.00000000000E+00 0.  1.
         11    1    1    2    0    0  0.28879704853E+02 -0.66898842063E+01  0.85830818686E+01  0.30861970084E+02  0.00000000000E+00 0. -1.
</event>
<event>
 7    1  0.1068210E-005  0.7775781E+02  0.7561462E-02  0.1335538E+00
          2   -1    0    0  501    0  0.00000000000E+00  0.00000000000E+00  0.58563570810E+03  0.58563570810E+03  0.00000000000E+00 0. -1.
         -2   -1    0    0    0  501 -0.00000000000E+00 -0.00000000000E+00 -0.23350270744E+02  0.23350270744E+02  0.00000000000E+00 0.  1.
         23    2    1    2    0    0  0.81604218410E+01  0.29814277346E+02  0.23242033117E+03  0.26574715230E+03  0.12508738944E+03 0.  0.
          5    1    3    3  502    0 -0.11086202228E+02 -0.13457586804E+02  0.21401636893E+03  0.21476612650E+03  0.41800000000E+01 0.  1.
         -5    1    3    3    0  502  0.19246624069E+02  0.43271864150E+02  0.18403962237E+02  0.50981025795E+02  0.41800000000E+01 0.  1.
        -11    1    1    2    0    0  0.37353024288E+02 -0.36164361419E+01  0.86794856628E+02  0.94560426030E+02  0.00000000000E+00 0.  1.
         11    1    1    2    0    0 -0.45513446129E+02 -0.26197841204E+02  0.24307024956E+03  0.24867840052E+03  0.00000000000E+00 0. -1.
</event>
<event>
 7    1  0.1068210E-005  0.1366686E+03  0.7561462E-02  0.1217883E+00
          2   -1    0    0  501    0  0.00000000000E+00  0.00000000000E+00  0.19984592931E+03  0.19984592931E+03  0.00000000000E+00 0. -1.
         -2   -1    0    0    0  501 -0.00000000000E+00 -0.00000000000E+00 -0.18626961578E+03  0.18626961578E+03  0.00000000000E+00 0.  1.
         23    2    1    2    0    0  0.65444667567E+02 -0.85875053335E+02 -0.11002472103E+03  0.19851918398E+03  0.12508756081E+03 0.  0.
          5    1    3    3  502    0  0.43295704124E+02 -0.11766491398E+03 -0.75225798509E+02  0.14627352166E+03  0.41800000000E+01 0.  1.
         -5    1    3    3    0  502  0.22148963443E+02  0.31789860649E+02 -0.34798922525E+02  0.52245662314E+02  0.41800000000E+01 0.  1.
        -11    1    1    2    0    0 -0.52381412575E+02  0.58101329359E+02  0.21712030226E+02  0.81184906929E+02  0.00000000000E+00 0.  1.
         11    1    1    2    0    0 -0.13063254992E+02  0.27773723976E+02  0.10188900435E+03  0.10641145418E+03  0.00000000000E+00 0. -1.
</event>
<event>
 7    1  0.1068210E-005  0.1159975E+03  0.7561462E-02  0.1249850E+00
         -1   -1    0    0    0  501 -0.00000000000E+00  0.00000000000E+00  0.13615789056E+03  0.13615789056E+03  0.00000000000E+00 0.  1.
          1   -1    0    0  501    0  0.00000000000E+00 -0.00000000000E+00 -0.12155208460E+03  0.12155208460E+03  0.00000000000E+00 0. -1.
         23    2    1    2    0    0 -0.47135597138E+02  0.14285347949E+02  0.57951661513E+02  0.14639227194E+03  0.12508583664E+03 0.  0.
          5    1    3    3  502    0 -0.85799693237E+02  0.25010049873E+02  0.56916365564E+02  0.10603789428E+03  0.41800000000E+01 0. -1.
         -5    1    3    3    0  502  0.38664096099E+02 -0.10724701925E+02  0.10352959495E+01  0.40354377659E+02  0.41800000000E+01 0. -1.
        -11    1    1    2    0    0  0.44037725678E+02  0.32855246907E+02 -0.27851161189E+02  0.61599315838E+02  0.00000000000E+00 0.  1.
         11    1    1    2    0    0  0.30978714602E+01 -0.47140594855E+02 -0.15494694367E+02  0.49718387388E+02  0.00000000000E+00 0. -1.
</event>
<event>
 6    1  0.1068210E-005  0.1690917E+03  0.7561462E-02  0.1178798E+00
          2   -1    0    0  501    0  0.00000000000E+00  0.00000000000E+00  0.36630346076E+03  0.36630346076E+03  0.00000000000E+00 0. -1.
         -2   -1    0    0    0  501 -0.00000000000E+00 -0.00000000000E+00 -0.12744912427E+03  0.12744912427E+03  0.00000000000E+00 0.  1.
          5    1    1    2  502    0 -0.56224746489E+02  0.44171527653E+02 -0.42049602305E+02  0.83054123480E+02  0.41800000000E+01 0. -1.
         -5    1    1    2    0  502  0.46181672218E+02  0.93799014048E+02  0.26567454465E+02  0.10795510142E+03  0.41800000000E+01 0.  1.
        -11    1    1    2    0    0 -0.35884733645E+02 -0.40082800467E+02  0.61915590878E+02  0.82023688016E+02  0.00000000000E+00 0.  1.
         11    1    1    2    0    0  0.45927807916E+02 -0.97887741234E+02  0.19242089345E+03  0.22071967212E+03  0.00000000000E+00 0. -1.
</event>
<event>
 7    1  0.1068210E-005  0.1037313E+03  0.7561462E-02  0.1272640E+00
          2   -1    0    0  501    0  0.00000000000E+00  0.00000000000E+00  0.12148031238E+03  0.12148031238E+03  0.00000000000E+00 0. -1.
         -2   -1    0    0    0  501 -0.00000000000E+00 -0.00000000000E+00 -0.14516088648E+03  0.14516088648E+03  0.00000000000E+00 0.  1.
         23    2    1    2    0    0 -0.94087739108E+01  0.49480304463E+02 -0.72176592369E+02  0.15295161369E+03  0.12509160678E+03 0.  0.
          5    1    3    3  502    0  0.10902603211E+02  0.88771984127E+02 -0.56328858814E+02  0.10578158941E+03  0.41800000000E+01 0.  1.
         -5    1    3    3    0  502 -0.20311377122E+02 -0.39291679664E+02 -0.15847733555E+02  0.47170024276E+02  0.41800000000E+01 0.  1.
        -11    1    1    2    0    0  0.27865752783E+02 -0.94622839260E+01  0.61130261117E+02  0.67844998486E+02  0.00000000000E+00 0. -1.
         11    1    1    2    0    0 -0.18456978873E+02 -0.40018020537E+02 -0.12634242843E+02  0.45844586692E+02  0.00000000000E+00 0.  1.
</event>
<event>
 6    1  0.1068210E-005  0.1356994E+03  0.7561462E-02  0.1219236E+00
          2   -1    0    0  501    0  0.00000000000E+00  0.00000000000E+00  0.27632936415E+03  0.27632936415E+03  0.00000000000E+00 0. -1.
         -2   -1    0    0    0  501 -0.00000000000E+00 -0.00000000000E+00 -0.12573247409E+03  0.12573247409E+03  0.00000000000E+00 0.  1.
          5    1    1    2  502    0  0.52672468992E+02  0.75853301754E+02 -0.32007828956E+02  0.97826815808E+02  0.41800000000E+01 0. -1.
         -5    1    1    2    0  502 -0.33564994418E+02 -0.86756231573E+02 -0.58095659612E+01  0.93297781451E+02  0.41800000000E+01 0.  1.
        -11    1    1    2    0    0  0.33017962988E+02  0.44464747727E+01  0.12085307194E+03  0.12536116629E+03  0.00000000000E+00 0.  1.
         11    1    1    2    0    0 -0.52125437562E+02  0.64564550464E+01  0.67561213031E+02  0.85576074688E+02  0.00000000000E+00 0. -1.
</event>
<event>
 7    1  0.1068210E-005  0.1263340E+03  0.7561462E-02  0.1232999E+00
         -1   -1    0    0    0  501 -0.00000000000E+00  0.00000000000E+00  0.23899666177E+02  0.23899666177E+02  0.00000000000E+00 0.  1.
          1   -1    0    0  501    0  0.00000000000E+00 -0.00000000000E+00 -0.77280207540E+03  0.77280207540E+03  0.00000000000E+00 0. -1.
         23    2    1    2    0    0 -0.74432615400E+02 -0.19933539913E+02 -0.32826352872E+03  0.35964144037E+03  0.12508981212E+03 0.  0.
          5    1    3    3  502    0 -0.63133910891E+02  0.38942374308E+02 -0.25095944125E+03  0.26172602617E+03  0.41800000000E+01 0.  1.
         -5    1    3    3    0  502 -0.11298704509E+02 -0.58875914221E+02 -0.77304087472E+02  0.97915414205E+02  0.41800000000E+01 0.  1.
        -11    1    1    2    0    0  0.79975373983E+02  0.45570247477E+02 -0.34152666727E+03  0.35371340426E+03  0.00000000000E+00 0. -1.
         11    1    1    2    0    0 -0.55427585834E+01 -0.25636707564E+02 -0.79112213236E+02  0.83346896946E+02  0.00000000000E+00 0.  1.
</event>
<event>
 6    1  0.1068210E-005  0.1125958E+03  0.7561462E-02  0.1255837E+00
          2   -1    0    0  501    0  0.00000000000E+00  0.00000000000E+00  0.48832801219E+03  0.48832801219E+03  0.00000000000E+00 0. -1.
         -2   -1    0    0    0  501 -0.00000000000E+00 -0.00000000000E+00 -0.33868486938E+02  0.33868486938E+02  0.00000000000E+00 0.  1.
          5    1    1    2  502    0  0.49663634423E+02  0.72186347255E+02  0.95410734755E+02  0.12960719895E+03  0.41800000000E+01 0. -1.
         -5    1    1    2    0  502 -0.99018721946E+01 -0.46279295642E+02  0.86592535676E+02  0.98770237991E+02  0.41800000000E+01 0.  1.
        -11    1    1    2    0    0 -0.17481926263E+02 -0.52461442937E+02  0.24015356267E+03  0.24643772926E+03  0.00000000000E+00 0.  1.
         11    1    1    2    0    0 -0.22279835965E+02  0.26554391324E+02  0.32302692152E+02  0.47381332922E+02  0.00000000000E+00 0. -1.
</event>
<event>
 7    1  0.1068210E-005  0.1354617E+03  0.7561462E-02  0.1219569E+00
          1   -1    0    0  501    0  0.00000000000E+00  0.00000000000E+00  0.47182272183E+03  0.47182272183E+03  0.00000000000E+00 0. -1.
         -1   -1    0    0    0  501 -0.00000000000E+00 -0.00000000000E+00 -0.42640891703E+02  0.42640891703E+02  0.00000000000E+00 0.  1.
         23    2    1    2    0    0  0.64575188148E+02  0.13191748077E+02  0.17265993697E+03  0.22316912681E+03  0.12509607581E+03 0.  0.
          5    1    3    3  502    0 -0.36545126481E+02  0.30319928751E+01  0.67082972441E+02  0.76565898687E+02  0.41800000000E+01 0. -1.
         -5    1    3    3    0  502  0.10112031463E+03  0.10159755202E+02  0.10557696453E+03  0.14660322812E+03  0.41800000000E+01 0. -1.
        -11    1    1    2    0    0 -0.91454016251E+02 -0.34760381741E+02  0.14785862321E+03  0.17729719029E+03  0.00000000000E+00 0.  1.
         11    1    1    2    0    0  0.26878828103E+02  0.21568633664E+02  0.10866326995E+03  0.11399729644E+03  0.00000000000E+00 0. -1.
</event>
<event>
 7    1  0.1068210E-005  0.1458997E+03  0.7561462E-02  0.1205604E+00
          1   -1    0    0  501    0  0.00000000000E+00  0.00000000000E+00  0.67511184080E+03  0.67511184080E+03  0.00000000000E+00 0. -1.
         -1   -1    0    0    0  501 -0.00000000000E+00 -0.00000000000E+00 -0.44098409585E+02  0.44098409585E+02  0.00000000000E+00 0.  1.
         23    2    1    2    0    0  0.67208199314E+02 -0.11675201821E+03  0.35477739520E+03  0.39955859114E+03  0.12502836399E+03 0.  0.
          5    1    3    3  502    0  0.49802554157E+02 -0.46376769602E+02  0.30248404266E+03  0.31007284245E+03  0.41800000000E+01 0.  1.
         -5    1    3    3    0  502  0.17405645157E+02 -0.70375248605E+02  0.52293352534E+02  0.89485748691E+02  0.41800000000E+01 0.  1.
        -11    1    1    2    0    0 -0.76226834093E+02  0.70337495735E+02  0.23516379880E+03  0.25702121665E+03  0.00000000000E+00 0. -1.
         11    1    1    2    0    0  0.90186347793E+01  0.46414522471E+02  0.41072237220E+02  0.62630442596E+02  0.00000000000E+00 0.  1.
</event>
<event>
 7    1  0.1068210E-005  0.8548937E+02  0.7561462E-02  0.1314158E+00
          2   -1    0    0  501    0  0.00000000000E+00  0.00000000000E+00  0.51941548434E+03  0.51941548434E+03  0.00000000000E+00 0. -1.
         -2   -1    0    0    0  501 -0.00000000000E+00 -0.00000000000E+00 -0.24736534320E+02  0.24736534320E+02  0.00000000000E+00 0.  1.
         23    2    1    2    0    0  0.25597267539E+01  0.29924508979E+02  0.25000605539E+03  0.28116361585E+03  0.12509165722E+03 0.  0.
          5    1    3    3  502    0 -0.43073400176E+02  0.34187687879E+02  0.45364650178E+02  0.71411061405E+02  0.41800000000E+01 0. -1.
         -5    1    3    3    0  502  0.45633126930E+02 -0.42631788998E+01  0.20464140522E+03  0.20975255445E+03  0.41800000000E+01 0. -1.
        -11    1    1    2    0    0  0.27936103997E+02 -0.12774141625E+01  0.19822263261E+02  0.34277978562E+02  0.00000000000E+00 0.  1.
         11    1    1    2    0    0 -0.30495830751E+02 -0.28647094817E+02  0.22485063136E+03  0.22871042425E+03  0.00000000000E+00 0. -1.
</event>
<event>
 7    1  0.1068210E-005  0.1382469E+03  0.7561462E-02  0.1215708E+00
         -2   -1    0    0    0  501 -0.00000000000E+00  0.00000000000E+00  0.16563769047E+02  0.16563769047E+02  0.00000000000E+00 0. -1.
          2   -1    0    0  501    0  0.00000000000E+00 -0.00000000000E+00 -0.11617788316E+04  0.11617788316E+04  0.00000000000E+00 0.  1.
         23    2    1    2    0    0 -0.59218449731E+02 -0.61246550077E+02 -0.66141450649E+03  0.67850925304E+03  0.12509073661E+03 0.  0.
          5    1    3    3  502    0 -0.71096002712E+02  0.15940306507E+02 -0.33479375370E+03  0.34265589866E+03  0.41800000000E+01 0.  1.
         -5    1    3    3    0  502  0.11877552981E+02 -0.77186856584E+02 -0.32662075279E+03  0.33585335438E+03  0.41800000000E+01 0.  1.
        -11    1    1    2    0    0 -0.66399820634E+01 -0.19794646893E+02 -0.68984959303E+02  0.72075252462E+02  0.00000000000E+00 0. -1.
         11    1    1    2    0    0  0.65858431795E+02  0.81041196970E+02 -0.41481559680E+03  0.42775809518E+03  0.00000000000E+00 0.  1.
</event>
<event>
 7    1  0.1068210E-005  0.1043273E+03  0.7561462E-02  0.1271451E+00
          1   -1    0    0  501    0  0.00000000000E+00  0.00000000000E+00  0.59820665682E+03  0.59820665682E+03  0.00000000000E+00 0. -1.
         -1   -1    0    0    0  501 -0.00000000000E+00 -0.00000000000E+00 -0.31837749358E+02  0.31837749358E+02  0.00000000000E+00 0.  1.
         23    2    1    2    0    0 -0.30448057014E+02 -0.79855064427E+02  0.30042741951E+03  0.33646271672E+03  0.12508640958E+03 0.  0.
          5    1    3    3  502    0 -0.49301821253E+02 -0.34322155286E+02  0.27369604753E+03  0.28024217876E+03  0.41800000000E+01 0.  1.
         -5    1    3    3    0  502  0.18853764239E+02 -0.45532909141E+02  0.26731371977E+02  0.56220537960E+02  0.41800000000E+01 0.  1.
        -11    1    1    2    0    0  0.41029265777E+02  0.38406007053E+02  0.56040869148E+02  0.79366246244E+02  0.00000000000E+00 0.  1.
         11    1    1    2    0    0 -0.10581208763E+02  0.41449057374E+02  0.20990061881E+03  0.21421544322E+03  0.00000000000E+00 0. -1.
</event>
<event>
 7    1  0.1068210E-005  0.8017635E+02  0.7561462E-02  0.1328552E+00
          2   -1    0    0  501    0  0.00000000000E+00  0.00000000000E+00  0.39753972338E+03  0.39753972338E+03  0.00000000000E+00 0.  1.
         -2   -1    0    0    0  501 -0.00000000000E+00 -0.00000000000E+00 -0.38696919406E+02  0.38696919406E+02  0.00000000000E+00 0. -1.
         23    2    1    2    0    0  0.36687342827E+02  0.22700175751E+02  0.12800113401E+03  0.18411099548E+03  0.12510519271E+03 0.  0.
          5    1    3    3  502    0  0.47794670827E+02  0.41291183500E+01  0.14720358706E+03  0.15487978765E+03  0.41800000000E+01 0. -1.
         -5    1    3    3    0  502 -0.11107328000E+02  0.18571057401E+02 -0.19202453046E+02  0.29231207831E+02  0.41800000000E+01 0. -1.
        -11    1    1    2    0    0 -0.61689308437E+02 -0.11452006705E+02  0.20523427565E+03  0.21461087376E+03  0.00000000000E+00 0.  1.
         11    1    1    2    0    0  0.25001965610E+02 -0.11248169046E+02  0.25607394304E+02  0.37514773547E+02  0.00000000000E+00 0. -1.
</event>
<event>
 7    1  0.1068210E-005  0.1841108E+03  0.7561462E-02  0.1163883E+00
          1   -1    0    0  501    0  0.00000000000E+00  0.00000000000E+00  0.58711487204E+02  0.58711487204E+02  0.00000000000E+00 0. -1.
         -1   -1    0    0    0  501 -0.00000000000E+00 -0.00000000000E+00 -0.62383922112E+03  0.62383922112E+03  0.00000000000E+00 0.  1.
         23    2    1    2    0    0 -0.66113470296E+02 -0.14197747989E+03 -0.27599556911E+03  0.34109601896E+03  0.12507735301E+03 0.  0.
          5    1    3    3  502    0 -0.89893747227E+02 -0.80057482520E+02 -0.11335101163E+03  0.16539652516E+03  0.41800000000E+01 0.  1.
         -5    1    3    3    0  502  0.23780276930E+02 -0.61919997367E+02 -0.16264455748E+03  0.17569949380E+03  0.41800000000E+01 0.  1.
        -11    1    1    2    0    0  0.87295089592E+02  0.90953185521E+02 -0.19137192384E+03  0.22916397591E+03  0.00000000000E+00 0.  1.
         11    1    1    2    0    0 -0.21181619296E+02  0.51024294366E+02 -0.97760240967E+02  0.11229071344E+03  0.00000000000E+00 0. -1.
</event>
<event>
 7    1  0.1068210E-005  0.1560407E+03  0.7561462E-02  0.1193241E+00
         -2   -1    0    0    0  501 -0.00000000000E+00  0.00000000000E+00  0.18214591122E+03  0.18214591122E+03  0.00000000000E+00 0.  1.
          2   -1    0    0  501    0  0.00000000000E+00 -0.00000000000E+00 -0.16415548100E+03  0.16415548100E+03  0.00000000000E+00 0. -1.
         23    2    1    2    0    0 -0.12795936078E+03 -0.16680608240E+02  0.45387920759E+02  0.18536160135E+03  0.12508804580E+03 0.  0.
          5    1    3    3  502    0 -0.10796968038E+03  0.35161167127E+02  0.58959353446E+02  0.12801342631E+03  0.41800000000E+01 0.  1.
         -5    1    3    3    0  502 -0.19989680397E+02 -0.51841775368E+02 -0.13571432687E+02  0.57348175043E+02  0.41800000000E+01 0.  1.
        -11    1    1    2    0    0  0.92927863699E+02 -0.16618486794E+02 -0.50840605577E+02  0.10722186871E+03  0.00000000000E+00 0.  1.
         11    1    1    2    0    0  0.35031497083E+02  0.33299095034E+02  0.23443115032E+02  0.53717922152E+02  0.00000000000E+00 0. -1.
</event>
<event>
 7    1  0.1068210E-005  0.1117471E+03  0.7561462E-02  0.1257368E+00
          1   -1    0    0  501    0  0.00000000000E+00  0.00000000000E+00  0.39300666747E+03  0.39300666747E+03  0.00000000000E+00 0. -1.
         -1   -1    0    0    0  501 -0.00000000000E+00 -0.00000000000E+00 -0.48870701407E+02  0.48870701407E+02  0.00000000000E+00 0.  1.
         23    2    1    2    0    0  0.96746914677E+01  0.56832073622E+02  0.84076076427E+02  0.16024672088E+03  0.12363955952E+03 0.  0.
          5    1    3    3  502    0  0.45933781104E+02 -0.14983799872E+02  0.57932893204E+02  0.75552094743E+02  0.41800000000E+01 0. -1.
         -5    1    3    3    0  502 -0.36259089636E+02  0.71815873495E+02  0.26143183223E+02  0.84694626135E+02  0.41800000000E+01 0.  1.
        -11    1    1    2    0    0  0.16903738679E+02 -0.64578940936E+02  0.23497019296E+03  0.24426863813E+03  0.00000000000E+00 0. -1.
         11    1    1    2    0    0 -0.26578430147E+02  0.77468673136E+01  0.25089696675E+02  0.37362009869E+02  0.00000000000E+00 0.  1.
</event>
<event>
 7    1  0.1068210E-005  0.1463524E+03  0.7561462E-02  0.1205028E+00
         -2   -1    0    0    0  501 -0.00000000000E+00  0.00000000000E+00  0.81237733029E+02  0.81237733029E+02  0.00000000000E+00 0.  1.
          2   -1    0    0  501    0  0.00000000000E+00 -0.00000000000E+00 -0.36331559278E+03  0.36331559278E+03  0.00000000000E+00 0. -1.
         23    2    1    2    0    0 -0.13213470749E+03 -0.14425987295E+02 -0.14700989654E+03  0.23436454247E+03  0.12508852487E+03 0.  0.
          5    1    3    3  502    0 -0.34088478359E+02 -0.37583523782E+02 -0.11943177304E+03  0.12983052964E+03  0.41800000000E+01 0.  1.
         -5    1    3    3    0  502 -0.98046229128E+02  0.23157536488E+02 -0.27578123505E+02  0.10453401283E+03  0.41800000000E+01 0.  1.
        -11    1    1    2    0    0  0.77559111403E+02  0.31598422909E+02 -0.27144947490E+02  0.88038197768E+02  0.00000000000E+00 0.  1.
         11    1    1    2    0    0  0.54575596084E+02 -0.17172435614E+02 -0.10792301572E+03  0.12215058557E+03  0.00000000000E+00 0. -1.
</event>
<event>
 6    1  0.1068210E-005  0.9832432E+02  0.7561462E-02  0.1283860E+00
          1   -1    0    0  501    0  0.00000000000E+00  0.00000000000E+00  0.38351534705E+03  0.38351534705E+03  0.00000000000E+00 0. -1.
         -1   -1    0    0    0  501 -0.00000000000E+00 -0.00000000000E+00 -0.47921672278E+02  0.47921672278E+02  0.00000000000E+00 0.  1.
          5    1    1    2  502    0 -0.42429735271E+02  0.19718217799E+02  0.77266034574E+02  0.90424571036E+02  0.41800000000E+01 0. -1.
         -5    1    1    2    0  502  0.63632655260E+02 -0.77632321539E+01 -0.31094418346E+00  0.64241354867E+02  0.41800000000E+01 0.  1.
        -11    1    1    2    0    0 -0.52509056956E+02 -0.18656312161E+01  0.21923661576E+03  0.22544483878E+03  0.00000000000E+00 0.  1.
         11    1    1    2    0    0  0.31306136968E+02 -0.10089354429E+02  0.39401968622E+02  0.51326254646E+02  0.00000000000E+00 0. -1.
</event>
<event>
 7    1  0.1068210E-005  0.1692179E+03  0.7561462E-02  0.1178666E+00
         -2   -1    0    0    0  501 -0.00000000000E+00  0.00000000000E+00  0.35308529482E+03  0.35308529482E+03  0.00000000000E+00 0.  1.
          2   -1    0    0  501    0  0.00000000000E+00 -0.00000000000E+00 -0.98241817339E+02  0.98241817339E+02  0.00000000000E+00 0. -1.
         23    2    1    2    0    0 -0.23309707025E+02 -0.13261076886E+03  0.21823758178E+03  0.28531414587E+03  0.12509021255E+03 0.  0.
          5    1    3    3  502    0 -0.66862412331E+02 -0.10575840663E+03  0.18758325435E+03  0.22552244338E+03  0.41800000000E+01 0.  1.
         -5    1    3    3    0  502  0.43552705306E+02 -0.26852362226E+02  0.30654327426E+02  0.59791702489E+02  0.41800000000E+01 0.  1.
        -11    1    1    2    0    0  0.57809789332E+02  0.74086588906E+02  0.20013495035E+02  0.96079833377E+02  0.00000000000E+00 0.  1.
         11    1    1    2    0    0 -0.34500082306E+02  0.58524179954E+02  0.16592400667E+02  0.69933132908E+02  0.00000000000E+00 0. -1.
</event>
<event>
 6    1  0.1068210E-005  0.2260400E+03  0.7561462E-02  0.1129458E+00
          1   -1    0    0  501    0  0.00000000000E+00  0.00000000000E+00  0.89755160529E+02  0.89755160529E+02  0.00000000000E+00 0. -1.
         -1   -1    0    0    0  501 -0.00000000000E+00 -0.00000000000E+00 -0.70157844679E+03  0.70157844679E+03  0.00000000000E+00 0.  1.
          5    1    1    2  502    0 -0.89210622152E+02 -0.14608782826E+03 -0.37329809097E+03  0.41069346938E+03  0.41800000000E+01 0. -1.
         -5    1    1    2    0  502  0.34928485359E+02  0.17965070898E+03 -0.17172215923E+03  0.25099870258E+03  0.41800000000E+01 0.  1.
        -11    1    1    2    0    0  0.30184017072E+02 -0.56796837678E+02 -0.12007829421E+02  0.65430448755E+02  0.00000000000E+00 0. -1.
         11    1    1    2    0    0  0.24098119720E+02  0.23233956960E+02 -0.54795206641E+02  0.64210986605E+02  0.00000000000E+00 0.  1.
</event>
<event>
 7    1  0.1068210E-005  0.9814698E+02  0.7561462E-02  0.1284242E+00
         -2   -1    0    0    0  501 -0.00000000000E+00  0.00000000000E+00  0.25161038303E+03  0.25161038303E+03  0.00000000000E+00 0.  1.
          2   -1    0    0  501    0  0.00000000000E+00 -0.00000000000E+00 -0.53130337364E+02  0.53130337364E+02  0.00000000000E+00 0. -1.
         23    2    1    2    0    0  0.28519385272E+02 -0.14550521332E+02  0.14719916813E+03  0.19581061731E+03  0.12509648175E+03 0.  0.
          5    1    3    3  502    0  0.56456630583E+02 -0.55436966850E+02  0.95693555903E+02  0.12423903361E+03  0.41800000000E+01 0. -1.
         -5    1    3    3    0  502 -0.27937245311E+02  0.40886445519E+02  0.51505612228E+02  0.71571583702E+02  0.41800000000E+01 0. -1.
        -11    1    1    2    0    0 -0.56613176189E+01 -0.22844794243E+02  0.59815030942E+02  0.64278869528E+02  0.00000000000E+00 0.  1.
         11    1    1    2    0    0 -0.22858067653E+02  0.37395315574E+02 -0.85341534079E+01  0.44651233557E+02  0.00000000000E+00 0. -1.
</event>
<event>
 7    1  0.1068210E-005  0.1066526E+03  0.7561462E-02  0.1266897E+00
         -2   -1    0    0    0  501 -0.00000000000E+00  0.00000000000E+00  0.35809589842E+02  0.35809589842E+02  0.00000000000E+00 0.  1.
          2   -1    0    0  501    0  0.00000000000E+00 -0.00000000000E+00 -0.53764692966E+03  0.53764692966E+03  0.00000000000E+00 0. -1.
         23    2    1    2    0    0 -0.25060041878E+02 -0.83779967659E+02 -0.26603444516E+03  0.30670556916E+03  0.12508753521E+03 0.  0.
          5    1    3    3  502    0 -0.32194178301E+01 -0.30884382529E+02 -0.24277893596E+03  0.24479234850E+03  0.41800000000E+01 0.  1.
         -5    1    3    3    0  502 -0.21840624048E+02 -0.52895585131E+02 -0.23255509196E+02  0.61913220664E+02  0.41800000000E+01 0.  1.
        -11    1    1    2    0    0  0.54267770886E+02  0.77675596805E+02 -0.18417178580E+03  0.20711768630E+03  0.00000000000E+00 0. -1.
         11    1    1    2    0    0 -0.29207729008E+02  0.61043708538E+01 -0.51631108867E+02  0.59633264041E+02  0.00000000000E+00 0.  1.
</event>
<event>
 7    1  0.1068210E-005  0.9803904E+02  0.7561462E-02  0.1284474E+00
         -2   -1    0    0    0  501 -0.00000000000E+00  0.00000000000E+00  0.18361429055E+02  0.18361429055E+02  0.00000000000E+00 0.  1.
          2   -1    0    0  501    0  0.00000000000E+00 -0.00000000000E+00 -0.73309701005E+03  0.73309701005E+03  0.00000000000E+00 0. -1.
         23    2    1    2    0    0  0.40365934067E+02  0.13666077933E+02 -0.41289688695E+03  0.43352854798E+03  0.12508793843E+03 0.  0.
          5    1    3    3  502    0  0.78223133455E+02 -0.12187891611E+02 -0.32230638606E+03  0.33191306422E+03  0.41800000000E+01 0.  1.
         -5    1    3    3    0  502 -0.37857199388E+02  0.25853969544E+02 -0.90590500898E+02  0.10161548376E+03  0.41800000000E+01 0.  1.
        -11    1    1    2    0    0 -0.53717103222E+02 -0.18123350418E+02 -0.29799391706E+03  0.30333868466E+03  0.00000000000E+00 0. -1.
         11    1    1    2    0    0  0.13351169155E+02  0.44572724844E+01 -0.38447769771E+01  0.14591206454E+02  0.00000000000E+00 0.  1.
</event>
<event>
 7    1  0.1068210E-005  0.1276897E+03  0.7561462E-02  0.1230925E+00
         -2   -1    0    0    0  501 -0.00000000000E+00  0.00000000000E+00  0.25076872144E+02  0.25076872144E+02  0.00000000000E+00 0.  1.
          2   -1    0    0  501    0  0.00000000000E+00 -0.00000000000E+00 -0.80724488394E+03  0.80724488394E+03  0.00000000000E+00 0. -1.
         23    2    1    2    0    0  0.77997730794E+02 -0.48096560896E+02 -0.39738603512E+03  0.42656824181E+03  0.12509148187E+03 0.  0.
          5    1    3    3  502    0  0.21249643286E+02 -0.71701959025E+02 -0.31449956405E+03  0.32329578787E+03  0.41800000000E+01 0. -1.
         -5    1    3    3    0  502  0.56748087507E+02  0.23605398129E+02 -0.82886471067E+02  0.10327245394E+03  0.41800000000E+01 0. -1.
        -11    1    1    2    0    0 -0.30663537334E+02 -0.19510322137E+02 -0.20144256758E+03  0.20469492721E+03  0.00000000000E+00 0. -1.
         11    1    1    2    0    0 -0.47334193460E+02  0.67606883032E+02 -0.18333940910E+03  0.20105858706E+03  0.00000000000E+00 0.  1.
</event>
<event>
 7    1  0.1068210E-005  0.9629623E+02  0.7561462E-02  0.1288283E+00
         -1   -1    0    0    0  501 -0.00000000000E+00  0.00000000000E+00  0.26296042841E+02  0.26296042841E+02  0.00000000000E+00 0.  1.
          1   -1    0    0  501    0  0.00000000000E+00 -0.00000000000E+00 -0.50934394511E+03  0.50934394511E+03  0.00000000000E+00 0. -1.
         23    2    1    2    0    0 -0.18044951401E+02 -0.29415201166E+02 -0.22171822615E+03  0.25689380512E+03  0.12507829936E+03 0.  0.
          5    1    3    3  502    0 -0.51946705862E+02 -0.55660094900E+02 -0.18569384543E+03  0.20073909197E+03  0.41800000000E+01 0. -1.
         -5    1    3    3    0  502  0.33901754460E+02  0.26244893734E+02 -0.36024380710E+02  0.56154713143E+02  0.41800000000E+01 0. -1.
        -11    1    1    2    0    0  0.15043389631E+02 -0.19293589592E+02 -0.17497537388E+02  0.30078397324E+02  0.00000000000E+00 0.  1.
         11    1    1    2    0    0  0.30015617704E+01  0.48708790758E+02 -0.24383213874E+03  0.24866778551E+03  0.00000000000E+00 0. -1.
</event>
<event>
 7    1  0.1068210E-005  0.1926514E+03  0.7561462E-02  0.1156091E+00
         -1   -1    0    0    0  501 -0.00000000000E+00  0.00000000000E+00  0.75978405920E+03  0.75978405920E+03  0.00000000000E+00 0.  1.
          1   -1    0    0  501    0  0.00000000000E+00 -0.00000000000E+00 -0.58914894986E+02  0.58914894986E+02  0.00000000000E+00 0. -1.
         23    2    1    2    0    0 -0.14315638464E+03 -0.96984799105E+02  0.45863218282E+03  0.50585669703E+03  0.12509083536E+03 0.  0.
          5    1    3    3  502    0 -0.46495909838E+02  0.27914578228E+02  0.14031393109E+03  0.15048775687E+03  0.41800000000E+01 0. -1.
         -5    1    3    3    0  502 -0.96660474799E+02 -0.12489937733E+03  0.31831825173E+03  0.35536894016E+03  0.41800000000E+01 0. -1.
        -11    1    1    2    0    0  0.10326500795E+03  0.70696222781E+02  0.92367158805E+02  0.15554198728E+03  0.00000000000E+00 0. -1.
         11    1    1    2    0    0  0.39891376688E+02  0.26288576324E+02  0.14986982259E+03  0.15730026987E+03  0.00000000000E+00 0.  1.
</event>
<event>
 7    1  0.1068210E-005  0.3319245E+03  0.7561462E-02  0.1070288E+00
          1   -1    0    0  501    0  0.00000000000E+00  0.00000000000E+00  0.13209820247E+03  0.13209820247E+03  0.00000000000E+00 0. -1.
         -1   -1    0    0    0  501 -0.00000000000E+00 -0.00000000000E+00 -0.87200898848E+03  0.87200898848E+03  0.00000000000E+00 0.  1.
         23    2    1    2    0    0 -0.98369611588E+02  0.30579013698E+03 -0.38427730826E+03  0.51623742754E+03  0.12509134102E+03 0.  0.
          5    1    3    3  502    0 -0.84441121914E+02  0.96711145336E+02 -0.98646189897E+02  0.16196262496E+03  0.41800000000E+01 0. -1.
         -5    1    3    3    0  502 -0.13928489674E+02  0.20907899165E+03 -0.28563111836E+03  0.35427480259E+03  0.41800000000E+01 0. -1.
        -11    1    1    2    0    0  0.25780014937E+02 -0.25457847770E+02 -0.81169395775E+02  0.88888593159E+02  0.00000000000E+00 0.  1.
         11    1    1    2    0    0  0.72589596651E+02 -0.28033228921E+03 -0.27446408198E+03  0.39898117025E+03  0.00000000000E+00 0. -1.
</event>
<event>
 7    1  0.1068210E-005  0.1140837E+03  0.7561462E-02  0.1253189E+00
         -1   -1    0    0    0  501 -0.00000000000E+00  0.00000000000E+00  0.63011377764E+02  0.63011377764E+02  0.00000000000E+00 0.  1.
          1   -1    0    0  501    0  0.00000000000E+00 -0.00000000000E+00 -0.32409716918E+03  0.32409716918E+03  0.00000000000E+00 0. -1.
         23    2    1    2    0    0  0.49925862383E+02 -0.53945580595E+02 -0.66025640843E+02  0.15940739933E+03  0.12509442959E+03 0.  0.
          5    1    3    3  502    0  0.55123694365E+02  0.72460094520E+01 -0.78811574232E+02  0.96539437363E+02  0.41800000000E+01 0.  1.
         -5    1    3    3    0  502 -0.51978319817E+01 -0.61191590047E+02  0.12785933389E+02  0.62867961971E+02  0.41800000000E+01 0.  1.
        -11    1    1    2    0    0  0.22691095343E+02  0.21724521076E+02 -0.94263893685E+02  0.99360567010E+02  0.00000000000E+00 0.  1.
         11    1    1    2    0    0 -0.72616957726E+02  0.32221059519E+02 -0.10079625689E+03  0.12834058060E+03  0.00000000000E+00 0. -1.
</event>
<event>
 7    1  0.1068210E-005  0.1092651E+03  0.7561462E-02  0.1261937E+00
          1   -1    0    0  501    0  0.00000000000E+00  0.00000000000E+00  0.95797221579E+02  0.95797221579E+02  0.00000000000E+00 0. -1.
         -1   -1    0    0    0  501 -0.00000000000E+00 -0.00000000000E+00 -0.33079664109E+03  0.33079664109E+03  0.00000000000E+00 0.  1.
         23    2    1    2    0    0 -0.10450084465E+01  0.87767812597E+02 -0.25990266179E+03  0.29834513351E+03  0.11728658966E+03 0.  0.
          5    1    3    3  502    0  0.16150408291E+02  0.37600719216E+02 -0.93199162699E+01  0.42177992044E+02  0.41800000000E+01 0. -1.
         -5    1    3    3    0  502 -0.17195416737E+02  0.50167093380E+02 -0.25058274552E+03  0.25616714146E+03  0.41800000000E+01 0.  1.
        -11    1    1    2    0    0  0.38091300744E+02 -0.76528821458E+02  0.26513056141E+02  0.89501675135E+02  0.00000000000E+00 0. -1.
         11    1    1    2    0    0 -0.37046292297E+02 -0.11238991139E+02 -0.16098138614E+01  0.38747054023E+02  0.00000000000E+00 0.  1.
</event>
<event>
 7    1  0.1068210E-005  0.1698531E+03  0.7561462E-02  0.1178001E+00
         -2   -1    0    0    0  501 -0.00000000000E+00  0.00000000000E+00  0.14167402336E+03  0.14167402336E+03  0.00000000000E+00 0.  1.
          2   -1    0    0  501    0  0.00000000000E+00 -0.00000000000E+00 -0.27630490028E+03  0.27630490028E+03  0.00000000000E+00 0. -1.
         23    2    1    2    0    0 -0.97260668968E+02 -0.11533770620E+03 -0.45023562536E+00  0.19598404192E+03  0.12508843982E+03 0.  0.
          5    1    3    3  502    0 -0.46034193718E+01  0.22024932447E+02  0.18135713430E+02  0.29200438709E+02  0.41800000000E+01 0. -1.
         -5    1    3    3    0  502 -0.92657249596E+02 -0.13736263865E+03 -0.18585949055E+02  0.16678360321E+03  0.41800000000E+01 0. -1.
        -11    1    1    2    0    0  0.76786194996E+02  0.85887021644E+02 -0.41228172532E+02  0.12236201387E+03  0.00000000000E+00 0.  1.
         11    1    1    2    0    0  0.20474473972E+02  0.29450684556E+02 -0.92952468762E+02  0.99632867841E+02  0.00000000000E+00 0. -1.
</event>
<event>
 7    1  0.1068210E-005  0.1094016E+03  0.7561462E-02  0.1261682E+00
          2   -1    0    0  501    0  0.00000000000E+00  0.00000000000E+00  0.43530727649E+03  0.43530727649E+03  0.00000000000E+00 0. -1.
         -2   -1    0    0    0  501 -0.00000000000E+00 -0.00000000000E+00 -0.28843161229E+02  0.28843161229E+02  0.00000000000E+00 0.  1.
         23    2    1    2    0    0 -0.30374711348E+02 -0.21257948033E+01  0.24224389240E+03  0.27432964333E+03  0.12508999843E+03 0.  0.
          5    1    3    3  502    0  0.46668208127E+02  0.15947758726E+02  0.94056889246E+02  0.10628463423E+03  0.41800000000E+01 0.  1.
         -5    1    3    3    0  502 -0.77042919475E+02 -0.18073553529E+02  0.14818700316E+03  0.16804500910E+03  0.41800000000E+01 0.  1.
        -11    1    1    2    0    0  0.59686332251E+02  0.78441862768E+01  0.13601995693E+03  0.14874615356E+03  0.00000000000E+00 0. -1.
         11    1    1    2    0    0 -0.29311620903E+02 -0.57183914735E+01  0.28200265923E+02  0.41074640828E+02  0.00000000000E+00 0.  1.
</event>
<event>
 7    1  0.1068210E-005  0.7546216E+02  0.7561462E-02  0.1342446E+00
         -1   -1    0    0    0  501 -0.00000000000E+00  0.00000000000E+00  0.16319819206E+03  0.16319819206E+03  0.00000000000E+00 0.  1.
          1   -1    0    0  501    0  0.00000000000E+00 -0.00000000000E+00 -0.10178270247E+03  0.10178270247E+03  0.00000000000E+00 0. -1.
         23    2    1    2    0    0 -0.17540601588E+02  0.49870487337E+02  0.80774811022E+02  0.15802386677E+03  0.12510888922E+03 0.  0.
          5    1    3    3  502    0  0.17610288902E+02  0.10490995357E+02  0.99640138416E+02  0.10181263597E+03  0.41800000000E+01 0. -1.
         -5    1    3    3    0  502 -0.35150890490E+02  0.39379491980E+02 -0.18865327393E+02  0.56211230804E+02  0.41800000000E+01 0. -1.
        -11    1    1    2    0    0  0.34669049964E+02 -0.14163753719E+02  0.26863525835E+02  0.46089087267E+02  0.00000000000E+00 0.  1.
         11    1    1    2    0    0 -0.17128448376E+02 -0.35706733618E+02 -0.46222847267E+02  0.60867940485E+02  0.00000000000E+00 0. -1.
</event>
<event>
 6    1  0.1068210E-005  0.1602994E+03  0.7561462E-02  0.1188359E+00
          1   -1    0    0  501    0  0.00000000000E+00  0.00000000000E+00  0.34216573052E+03  0.34216573052E+03  0.00000000000E+00 0. -1.
         -1   -1    0    0    0  501 -0.00000000000E+00 -0.00000000000E+00 -0.80623987898E+02  0.80623987898E+02  0.00000000000E+00 0.  1.
          5    1    1    2  502    0  0.49040307445E+02 -0.87567942243E+02  0.73807693404E+02  0.12465209292E+03  0.41800000000E+01 0. -1.
         -5    1    1    2    0  502 -0.99212676721E+02  0.25543696327E+02  0.49389419238E+02  0.11380871134E+03  0.41800000000E+01 0.  1.
        -11    1    1    2    0    0  0.47860585752E+02 -0.71578198277E+01  0.81384942422E+02  0.94685684801E+02  0.00000000000E+00 0. -1.
         11    1    1    2    0    0  0.23117835240E+01  0.69182065743E+02  0.56959687559E+02  0.89643229362E+02  0.00000000000E+00 0.  1.
</event>
<event>
 6    1  0.1068210E-005  0.9761911E+02  0.7561462E-02  0.1285384E+00
          2   -1    0    0  501    0  0.00000000000E+00  0.00000000000E+00  0.11658346258E+03  0.11658346258E+03  0.00000000000E+00 0. -1.
         -2   -1    0    0    0  501 -0.00000000000E+00 -0.00000000000E+00 -0.20169470990E+03  0.20169470990E+03  0.00000000000E+00 0.  1.
          5    1    1    2  502    0  0.47054043246E+02 -0.13553733438E+02  0.43867475601E+01  0.49340679262E+02  0.41800000000E+01 0. -1.
         -5    1    1    2    0  502 -0.52861770596E+02 -0.37367462645E+01 -0.14865189177E+03  0.15787079334E+03  0.41800000000E+01 0.  1.
        -11    1    1    2    0    0  0.33657899654E+02  0.43289781299E+02  0.26565950933E+02  0.60931183502E+02  0.00000000000E+00 0. -1.
         11    1    1    2    0    0 -0.27850172304E+02 -0.25999301596E+02  0.32587945955E+02  0.50135516378E+02  0.00000000000E+00 0.  1.
</event>
<event>
 7    1  0.1068210E-005  0.8964749E+02  0.7561462E-02  0.1303708E+00
          1   -1    0    0  501    0  0.00000000000E+00  0.00000000000E+00  0.24962823699E+03  0.24962823699E+03  0.00000000000E+00 0. -1.
         -1   -1    0    0    0  501 -0.00000000000E+00 -0.00000000000E+00 -0.68813194013E+02  0.68813194013E+02  0.00000000000E+00 0.  1.
         23    2    1    2    0    0  0.58661095642E+02 -0.83611805489E+01  0.10139778378E+03  0.17158280599E+03  0.12509242692E+03 0.  0.
          5    1    3    3  502    0  0.23838532664E+01 -0.41120174962E+02 -0.98995521007E+01  0.42567887862E+02  0.41800000000E+01 0. -1.
         -5    1    3    3    0  502  0.56277242376E+02  0.32758994413E+02  0.11129733589E+03  0.12901491813E+03  0.41800000000E+01 0. -1.
        -11    1    1    2    0    0 -0.42537601984E+02 -0.14259419691E+02 -0.15882847562E+02  0.47592472925E+02  0.00000000000E+00 0.  1.
         11    1    1    2    0    0 -0.16123493658E+02  0.22620600240E+02  0.95300106757E+02  0.99266152091E+02  0.00000000000E+00 0. -1.
</event>
<event>
 7    1  0.1068210E-005  0.1048823E+03  0.7561462E-02  0.1270352E+00
         -1   -1    0    0    0  501 -0.00000000000E+00  0.00000000000E+00  0.75187163684E+03  0.75187163684E+03  0.00000000000E+00 0.  1.
          1   -1    0    0  501    0  0.00000000000E+00 -0.00000000000E+00 -0.38768326385E+02  0.38768326385E+02  0.00000000000E+00 0. -1.
         23    2    1    2    0    0 -0.14803529780E+02  0.88749211453E+02  0.59919859624E+03  0.61869341440E+03  0.12508803407E+03 0.  0.
          5    1    3    3  502    0 -0.32915338554E+02  0.52983502726E+02  0.55640431896E+03  0.55990526844E+03  0.41800000000E+01 0. -1.
         -5    1    3    3    0  502  0.18111808774E+02  0.35765708727E+02  0.42794277277E+02  0.58788145961E+02  0.41800000000E+01 0. -1.
        -11    1    1    2    0    0 -0.15344428023E+02 -0.69498000658E+02  0.11602368315E+03  0.13611362393E+03  0.00000000000E+00 0.  1.
         11    1    1    2    0    0  0.30147957803E+02 -0.19251210795E+02 -0.21189689373E+01  0.35832924889E+02  0.00000000000E+00 0. -1.
</event>
<event>
 7    1  0.1068210E-005  0.1777350E+03  0.7561462E-02  0.1170013E+00
         -2   -1    0    0    0  501 -0.00000000000E+00  0.00000000000E+00  0.51477781650E+02  0.51477781650E+02  0.00000000000E+00 0.  1.
          2   -1    0    0  501    0  0.00000000000E+00 -0.00000000000E+00 -0.72550468708E+03  0.72550468708E+03  0.00000000000E+00 0. -1.
         23    2    1    2    0    0 -0.14662237415E+03  0.54706030707E+02 -0.29001289972E+03  0.35248072954E+03  0.12507722531E+03 0.  0.
          5    1    3    3  502    0  0.10671571970E+02  0.12226874444E+02 -0.10325463867E+03  0.10460579197E+03  0.41800000000E+01 0.  1.
         -5    1    3    3    0  502 -0.15729394612E+03  0.42479156262E+02 -0.18675826106E+03  0.24787493757E+03  0.41800000000E+01 0.  1.
        -11    1    1    2    0    0  0.93282370147E+02 -0.73934287265E+02 -0.30367674319E+03  0.32617088124E+03  0.00000000000E+00 0. -1.
         11    1    1    2    0    0  0.53340004002E+02  0.19228256558E+02 -0.80337262515E+02  0.98330857952E+02  0.00000000000E+00 0.  1.
</event>
<event>
 7    1  0.1068210E-005  0.1214535E+03  0.7561462E-02  0.1240718E+00
          1   -1    0    0  501    0  0.00000000000E+00  0.00000000000E+00  0.58028690356E+02  0.58028690356E+02  0.00000000000E+00 0. -1.
         -1   -1    0    0    0  501 -0.00000000000E+00 -0.00000000000E+00 -0.32605392516E+03  0.32605392516E+03  0.00000000000E+00 0.  1.
         23    2    1    2    0    0 -0.75257243731E+02 -0.18648507126E+02 -0.18508446073E+03  0.23646516002E+03  0.12509234487E+03 0.  0.
          5    1    3    3  502    0 -0.58320748256E+02  0.48089644490E+02 -0.75085864950E+02  0.10662684043E+03  0.41800000000E+01 0.  1.
         -5    1    3    3    0  502 -0.16936495475E+02 -0.66738151617E+02 -0.10999859578E+03  0.12983831959E+03  0.41800000000E+01 0.  1.
        -11    1    1    2    0    0  0.17886813055E+02 -0.21670902059E+02  0.11184851278E+02  0.30243461697E+02  0.00000000000E+00 0. -1.
         11    1    1    2    0    0  0.57370430676E+02  0.40319409185E+02 -0.94125625345E+02  0.11737399380E+03  0.00000000000E+00 0.  1.
</event>
<event>
 7    1  0.1068210E-005  0.1452375E+03  0.7561462E-02  0.1206450E+00
         -1   -1    0    0    0  501 -0.00000000000E+00  0.00000000000E+00  0.70213653839E+02  0.70213653839E+02  0.00000000000E+00 0.  1.
          1   -1    0    0  501    0  0.00000000000E+00 -0.00000000000E+00 -0.31437145463E+03  0.31437145463E+03  0.00000000000E+00 0. -1.
         23    2    1    2    0    0 -0.40334367397E+02  0.88660382891E+02 -0.93792554821E+02  0.18420758142E+03  0.12509142666E+03 0.  0.
          5    1    3    3  502    0  0.43458339975E+02  0.47783914976E+02 -0.31340337193E+02  0.71913969291E+02  0.41800000000E+01 0. -1.
         -5    1    3    3    0  502 -0.83792707372E+02  0.40876467915E+02 -0.62452217628E+02  0.11229361213E+03  0.41800000000E+01 0. -1.
        -11    1    1    2    0    0 -0.28777284044E+02 -0.20310832951E+02 -0.41538552534E+02  0.54462035940E+02  0.00000000000E+00 0. -1.
         11    1    1    2    0    0  0.69111651441E+02 -0.68349549939E+02 -0.10882669344E+03  0.14591549111E+03  0.00000000000E+00 0.  1.
</event>
<event>
 7    1  0.1068210E-005  0.8649005E+02  0.7561462E-02  0.1311581E+00
          2   -1    0    0  501    0  0.00000000000E+00  0.00000000000E+00  0.40030517537E+03  0.40030517537E+03  0.00000000000E+00 0. -1.
         -2   -1    0    0    0  501 -0.00000000000E+00 -0.00000000000E+00 -0.36383478652E+02  0.36383478652E+02  0.00000000000E+00 0.  1.
         23    2    1    2    0    0 -0.30831639344E+01 -0.54467611858E+02  0.21221735477E+03  0.25231797260E+03  0.12510766160E+03 0.  0.
          5    1    3    3  502    0 -0.15400771814E+02 -0.39460119365E+00  0.19272580700E+03  0.19338575068E+03  0.41800000000E+01 0. -1.
         -5    1    3    3    0  502  0.12317607879E+02 -0.54073010664E+02  0.19491547772E+02  0.58932221922E+02  0.41800000000E+01 0. -1.
        -11    1    1    2    0    0 -0.12235289401E+00 -0.23433944238E+02  0.57465663316E+02  0.62060189922E+02  0.00000000000E+00 0. -1.
         11    1    1    2    0    0  0.32055168284E+01  0.77901556096E+02  0.94238678630E+02  0.12231049150E+03  0.00000000000E+00 0.  1.
</event>
<event>
 7    1  0.1068210E-005  0.1789987E+03  0.7561462E-02  0.1168776E+00
          2   -1    0    0  501    0  0.00000000000E+00  0.00000000000E+00  0.67068615080E+03  0.67068615080E+03  0.00000000000E+00 0. -1.
         -2   -1    0    0    0  501 -0.00000000000E+00 -0.00000000000E+00 -0.51226162746E+02  0.51226162746E+02  0.00000000000E+00 0.  1.
         23    2    1    2    0    0  0.13901165110E+03  0.48693050898E+02  0.37837635224E+03  0.42486561393E+03  0.12508746385E+03 0.  0.
          5    1    3    3  502    0  0.13294704554E+03  0.78034214477E+02  0.35359228596E+03  0.38575799750E+03  0.41800000000E+01 0.  1.
         -5    1    3    3    0  502  0.60646055656E+01 -0.29341163580E+02  0.24784066285E+02  0.39107616425E+02  0.41800000000E+01 0.  1.
        -11    1    1    2    0    0 -0.48643468173E+02  0.27015631213E+02  0.76222733340E+02  0.94371268952E+02  0.00000000000E+00 0. -1.
         11    1    1    2    0    0 -0.90368182928E+02 -0.75708682110E+02  0.16486090247E+03  0.20267543067E+03  0.00000000000E+00 0.  1.
</event>
<event>
 7    1  0.1068210E-005  0.1172901E+03  0.7561462E-02  0.1247636E+00
         -3   -1    0    0    0  501 -0.00000000000E+00  0.00000000000E+00  0.12996575814E+04  0.12996575814E+04  0.00000000000E+00 0.  1.
          3   -1    0    0  501    0  0.00000000000E+00 -0.00000000000E+00 -0.11807545832E+02  0.11807545832E+02  0.00000000000E+00 0. -1.
         23    2    1    2    0    0  0.69107517435E+01 -0.48061483438E+02  0.91129239898E+03  0.92111771616E+03  0.12508535444E+03 0.  0.
          5    1    3    3  502    0  0.29773450405E+02 -0.85183578447E+02  0.62514701658E+03  0.63163990147E+03  0.41800000000E+01 0.  1.
         -5    1    3    3    0  502 -0.22862698662E+02  0.37122095009E+02  0.28614538240E+03  0.28947781469E+03  0.41800000000E+01 0.  1.
        -11    1    1    2    0    0  0.11605771985E+02 -0.23672186271E+02  0.65897412627E+02  0.70975596772E+02  0.00000000000E+00 0.  1.
         11    1    1    2    0    0 -0.18516523728E+02  0.71733669709E+02  0.31066022398E+03  0.31937181432E+03  0.00000000000E+00 0. -1.
</event>
<event>
 7    1  0.1068210E-005  0.8844433E+02  0.7561462E-02  0.1306663E+00
          1   -1    0    0  501    0  0.00000000000E+00  0.00000000000E+00  0.42377458911E+03  0.42377458911E+03  0.00000000000E+00 0. -1.
         -1   -1    0    0    0  501 -0.00000000000E+00 -0.00000000000E+00 -0.34071634390E+02  0.34071634390E+02  0.00000000000E+00 0.  1.
         23    2    1    2    0    0 -0.46386506448E+02 -0.62052638203E+00  0.17021027704E+03  0.21614343726E+03  0.12487735593E+03 0.  0.
          5    1    3    3  502    0  0.12361341380E+02 -0.13704361756E+02  0.15192823532E+03  0.15310216647E+03  0.41800000000E+01 0. -1.
         -5    1    3    3    0  502 -0.58747847828E+02  0.13083835374E+02  0.18282041724E+02  0.63041270785E+02  0.41800000000E+01 0.  1.
        -11    1    1    2    0    0  0.36708243200E+02  0.41626873421E+02  0.15528839449E+03  0.16490839025E+03  0.00000000000E+00 0. -1.
         11    1    1    2    0    0  0.96782632485E+01 -0.41006347039E+02  0.64204283187E+02  0.76794395997E+02  0.00000000000E+00 0.  1.
</event>
<event>
 7    1  0.1068210E-005  0.1428429E+03  0.7561462E-02  0.1209554E+00
          1   -1    0    0  501    0  0.00000000000E+00  0.00000000000E+00  0.17473350262E+03  0.17473350262E+03  0.00000000000E+00 0. -1.
         -1   -1    0    0    0  501 -0.00000000000E+00 -0.00000000000E+00 -0.12818994389E+03  0.12818994389E+03  0.00000000000E+00 0.  1.
         23    2    1    2    0    0 -0.18726689147E+02 -0.95393798987E+02 -0.20777356363E+01  0.15843367594E+03  0.12508495878E+03 0.  0.
          5    1    3    3  502    0 -0.64462829879E+02 -0.81635728640E+02 -0.22192725650E+02  0.10644171221E+03  0.41800000000E+01 0. -1.
         -5    1    3    3    0  502  0.45736140733E+02 -0.13758070347E+02  0.20114990014E+02  0.51991963726E+02  0.41800000000E+01 0. -1.
        -11    1    1    2    0    0  0.19399827673E+00  0.11002676397E+03  0.49960410096E+02  0.12083860725E+03  0.00000000000E+00 0. -1.
         11    1    1    2    0    0  0.18532690870E+02 -0.14632964986E+02 -0.13391157299E+01  0.23651163314E+02  0.00000000000E+00 0.  1.
</event>
<event>
 7    1  0.1068210E-005  0.1158427E+03  0.7561462E-02  0.1250117E+00
         -1   -1    0    0    0  501 -0.00000000000E+00  0.00000000000E+00  0.11694523832E+03  0.11694523832E+03  0.00000000000E+00 0.  1.
          1   -1    0    0  501    0  0.00000000000E+00 -0.00000000000E+00 -0.11892250197E+03  0.11892250197E+03  0.00000000000E+00 0. -1.
         23    2    1    2    0    0 -0.18946207921E+02 -0.85931817149E+01 -0.13536606102E+02  0.12753032059E+03  0.12509173193E+03 0.  0.
          5    1    3    3  502    0 -0.15703103285E+02  0.56522775158E+02  0.65640577026E+01  0.59177451938E+02  0.41800000000E+01 0.  1.
         -5    1    3    3    0  502 -0.32431046363E+01 -0.65115956873E+02 -0.20100663805E+02  0.68352868649E+02  0.41800000000E+01 0.  1.
        -11    1    1    2    0    0  0.60670347498E+02  0.20688304533E+02  0.38447894582E+01  0.64215881338E+02  0.00000000000E+00 0. -1.
         11    1    1    2    0    0 -0.41724139577E+02 -0.12095122819E+02  0.77145529904E+01  0.44121538360E+02  0.00000000000E+00 0.  1.
</event>
<event>
 7    1  0.1068210E-005  0.9607067E+02  0.7561462E-02  0.1288783E+00
          2   -1    0    0  501    0  0.00000000000E+00  0.00000000000E+00  0.50061366600E+02  0.50061366600E+02  0.00000000000E+00 0. -1.
         -2   -1    0    0    0  501 -0.00000000000E+00 -0.00000000000E+00 -0.48471448634E+03  0.48471448634E+03  0.00000000000E+00 0.  1.
         23    2    1    2    0    0  0.67917909743E+02 -0.29313776511E+02 -0.38522435268E+03  0.41172772785E+03  0.12509908083E+03 0.  0.
          5    1    3    3  502    0 -0.71891670746E+01 -0.14492365712E+02 -0.28525157531E+03  0.28574052286E+03  0.41800000000E+01 0.  1.
         -5    1    3    3    0  502  0.75107076817E+02 -0.14821410800E+02 -0.99972777369E+02  0.12598720499E+03  0.41800000000E+01 0.  1.
        -11    1    1    2    0    0  0.13197208917E+02  0.40657764076E+01 -0.34009928500E+02  0.36706567499E+02  0.00000000000E+00 0.  1.
         11    1    1    2    0    0 -0.81115118660E+02  0.25248000104E+02 -0.15418838558E+02  0.86341557589E+02  0.00000000000E+00 0. -1.
</event>
<event>
 7    1  0.1068210E-005  0.9093426E+02  0.7561462E-02  0.1300605E+00
          1   -1    0    0  501    0  0.00000000000E+00  0.00000000000E+00  0.17678670455E+02  0.17678670455E+02  0.00000000000E+00 0. -1.
         -1   -1    0    0    0  501 -0.00000000000E+00 -0.00000000000E+00 -0.78342246629E+03  0.78342246629E+03  0.00000000000E+00 0.  1.
         23    2    1    2    0    0 -0.34640044718E+01  0.76622348923E+01 -0.60051545760E+03  0.61346340774E+03  0.12509128124E+03 0.  0.
          5    1    3    3  502    0 -0.96406605250E+00  0.66347592926E+02 -0.31773981722E+03  0.32462131224E+03  0.41800000000E+01 0.  1.
         -5    1    3    3    0  502 -0.24999384193E+01 -0.58685358034E+02 -0.28277564038E+03  0.28884209550E+03  0.41800000000E+01 0.  1.
        -11    1    1    2    0    0  0.13895441198E+02  0.21457339106E+02 -0.71263609840E+01  0.26538381798E+02  0.00000000000E+00 0. -1.
         11    1    1    2    0    0 -0.10431436726E+02 -0.29119573998E+02 -0.15810197725E+03  0.16109934721E+03  0.00000000000E+00 0.  1.
</event>
<event>
 7    1  0.1068210E-005  0.1236167E+03  0.7561462E-02  0.1237247E+00
          1   -1    0    0  501    0  0.00000000000E+00  0.00000000000E+00  0.19224091865E+03  0.19224091865E+03  0.00000000000E+00 0. -1.
         -1   -1    0    0    0  501 -0.00000000000E+00 -0.00000000000E+00 -0.17389542539E+03  0.17389542539E+03  0.00000000000E+00 0.  1.
         23    2    1    2    0    0 -0.87122923618E+02  0.32334978627E+02 -0.92534142025E+02  0.18123515506E+03  0.12509060447E+03 0.  0.
          5    1    3    3  502    0 -0.87601172383E+02  0.84497594422E+01 -0.26610386611E+01  0.88147134748E+02  0.41800000000E+01 0. -1.
         -5    1    3    3    0  502  0.47824876465E+00  0.23885219185E+02 -0.89873103364E+02  0.93088020313E+02  0.41800000000E+01 0. -1.
        -11    1    1    2    0    0  0.98726676089E+02 -0.52343000321E+02  0.55254037152E+02  0.12465855316E+03  0.00000000000E+00 0.  1.
         11    1    1    2    0    0 -0.11603752471E+02  0.20008021694E+02  0.55625598127E+02  0.60242635820E+02  0.00000000000E+00 0. -1.
</event>
<event>
 7    1  0.1068210E-005  0.1032384E+03  0.7561462E-02  0.1273630E+00
          1   -1    0    0  501    0  0.00000000000E+00  0.00000000000E+00  0.45914812490E+02  0.45914812490E+02  0.00000000000E+00 0. -1.
         -1   -1    0    0    0  501 -0.00000000000E+00 -0.00000000000E+00 -0.41756975022E+03  0.41756975022E+03  0.00000000000E+00 0.  1.
         23    2    1    2    0    0 -0.46463327165E+02  0.57069552666E+02 -0.27874199312E+03  0.31426235610E+03  0.12509178678E+03 0.  0.
          5    1    3    3  502    0 -0.56490638064E+02  0.33340536256E+02 -0.46392896925E+02  0.80452202156E+02  0.41800000000E+01 0.  1.
         -5    1    3    3    0  502  0.10027310899E+02  0.23729016411E+02 -0.23234909620E+03  0.23381015394E+03  0.41800000000E+01 0.  1.
        -11    1    1    2    0    0 -0.14098351133E+02 -0.51999724713E+02 -0.57877754003E+02  0.79073189409E+02  0.00000000000E+00 0.  1.
         11    1    1    2    0    0  0.60561678299E+02 -0.50698279531E+01 -0.35035190608E+02  0.70149017204E+02  0.00000000000E+00 0. -1.
</event>
<event>
 7    1  0.1068210E-005  0.1058394E+03  0.7561462E-02  0.1268475E+00
          1   -1    0    0  501    0  0.00000000000E+00  0.00000000000E+00  0.53587845038E+03  0.53587845038E+03  0.00000000000E+00 0. -1.
         -1   -1    0    0    0  501 -0.00000000000E+00 -0.00000000000E+00 -0.25870072583E+02  0.25870072583E+02  0.00000000000E+00 0.  1.
         23    2    1    2    0    0  0.26115417300E+02  0.32146719916E+02  0.23184697283E+03  0.26667644606E+03  0.12509149232E+03 0.  0.
          5    1    3    3  502    0  0.61153441467E+02  0.48197703003E+02  0.20552288763E+03  0.21981786032E+03  0.41800000000E+01 0. -1.
         -5    1    3    3    0  502 -0.35038024167E+02 -0.16050983086E+02  0.26324085207E+02  0.46858585740E+02  0.41800000000E+01 0. -1.
        -11    1    1    2    0    0  0.18897155620E+02  0.19004648002E+02  0.47294310612E+02  0.54360196398E+02  0.00000000000E+00 0.  1.
         11    1    1    2    0    0 -0.45012572920E+02 -0.51151367918E+02  0.23086709435E+03  0.24071188050E+03  0.00000000000E+00 0. -1.
</event>
<event>
 7    1  0.1068210E-005  0.1284202E+03  0.7561462E-02  0.1229819E+00
          2   -1    0    0  501    0  0.00000000000E+00  0.00000000000E+00  0.13342765060E+03  0.13342765060E+03  0.00000000000E+00 0. -1.
         -2   -1    0    0    0  501 -0.00000000000E+00 -0.00000000000E+00 -0.15032306952E+03  0.15032306952E+03  0.00000000000E+00 0.  1.
         23    2    1    2    0    0  0.75288413563E+02  0.48946463289E+02  0.33133023799E+01  0.15402208691E+03  0.12509086216E+03 0.  0.
          5    1    3    3  502    0  0.24371610965E+02 -0.28277296338E+02  0.39591101557E+02  0.54575714670E+02  0.41800000000E+01 0. -1.
         -5    1    3    3    0  502  0.50916802599E+02  0.77223759627E+02 -0.36277799177E+02  0.99446372236E+02  0.41800000000E+01 0. -1.
        -11    1    1    2    0    0  0.19773329218E+02 -0.17922292715E+02  0.36231831348E+01  0.26931776409E+02  0.00000000000E+00 0.  1.
         11    1    1    2    0    0 -0.95061742782E+02 -0.31024170574E+02 -0.23831904427E+02  0.10279685681E+03  0.00000000000E+00 0. -1.
</event>
<event>
 7    1  0.1068210E-005  0.8724950E+02  0.7561462E-02  0.1309653E+00
         -2   -1    0    0    0  501 -0.00000000000E+00  0.00000000000E+00  0.77022128947E+03  0.77022128947E+03  0.00000000000E+00 0.  1.
          2   -1    0    0  501    0  0.00000000000E+00 -0.00000000000E+00 -0.13918633149E+03  0.13918633149E+03  0.00000000000E+00 0. -1.
         23    2    1    2    0    0 -0.56674335570E+02  0.49435178228E+02  0.73795513755E+03  0.75058115767E+03  0.11462317416E+03 0.  0.
          5    1    3    3  502    0 -0.42737554480E+02  0.11484244965E+02  0.81208009378E+02  0.92577533087E+02  0.41800000000E+01 0. -1.
         -5    1    3    3    0  502 -0.13936781090E+02  0.37950933263E+02  0.65674712818E+03  0.65800362459E+03  0.41800000000E+01 0.  1.
        -11    1    1    2    0    0  0.33432079711E+02 -0.56028112361E+02 -0.11594082365E+03  0.13303806943E+03  0.00000000000E+00 0.  1.
         11    1    1    2    0    0  0.23242255859E+02  0.65929341330E+01  0.90206440743E+01  0.25788393851E+02  0.00000000000E+00 0. -1.
</event>
<event>
 7    1  0.1068210E-005  0.1028162E+03  0.7561462E-02  0.1274483E+00
          1   -1    0    0  501    0  0.00000000000E+00  0.00000000000E+00  0.91798831374E+02  0.91798831374E+02  0.00000000000E+00 0. -1.
         -1   -1    0    0    0  501 -0.00000000000E+00 -0.00000000000E+00 -0.18049648486E+03  0.18049648486E+03  0.00000000000E+00 0.  1.
         23    2    1    2    0    0  0.92361633470E+01 -0.24595993128E+02 -0.11086088733E+03  0.16919676837E+03  0.12508853063E+03 0.  0.
          5    1    3    3  502    0 -0.57436494024E+02 -0.15871786420E+02 -0.61035609717E+02  0.85403059099E+02  0.41800000000E+01 0.  1.
         -5    1    3    3    0  502  0.66672657371E+02 -0.87242067085E+01 -0.49825277617E+02  0.83793709270E+02  0.41800000000E+01 0.  1.
        -11    1    1    2    0    0 -0.52211777379E+01 -0.26633000686E+02 -0.22315389571E+02  0.35136221115E+02  0.00000000000E+00 0.  1.
         11    1    1    2    0    0 -0.40149856091E+01  0.51228993814E+02  0.44478623417E+02  0.67962326753E+02  0.00000000000E+00 0. -1.
</event>
<event>
 7    1  0.1068210E-005  0.9768112E+02  0.7561462E-02  0.1285249E+00
         -1   -1    0    0    0  501 -0.00000000000E+00  0.00000000000E+00  0.13552117152E+03  0.13552117152E+03  0.00000000000E+00 0.  1.
          1   -1    0    0  501    0  0.00000000000E+00 -0.00000000000E+00 -0.17894737358E+03  0.17894737358E+03  0.00000000000E+00 0. -1.
         23    2    1    2    0    0  0.87190521455E+01 -0.17520136228E+02  0.87345629696E+02  0.15381697067E+03  0.12508966542E+03 0.  0.
          5    1    3    3  502    0 -0.28772126022E+02  0.29733800953E+02  0.83436590947E+02  0.93225915194E+02  0.41800000000E+01 0.  1.
         -5    1    3    3    0  502  0.37491178167E+02 -0.47253937181E+02  0.39090387491E+01  0.60591055474E+02  0.41800000000E+01 0.  1.
        -11    1    1    2    0    0  0.41464505422E+02  0.83423073793E+01 -0.58578751931E+02  0.72252124399E+02  0.00000000000E+00 0.  1.
         11    1    1    2    0    0 -0.50183557567E+02  0.91778288490E+01 -0.72193079821E+02  0.88399450035E+02  0.00000000000E+00 0. -1.
</event>
<event>
 7    1  0.1068210E-005  0.9716051E+02  0.7561462E-02  0.1286383E+00
         -1   -1    0    0    0  501 -0.00000000000E+00  0.00000000000E+00  0.20749169026E+03  0.20749169026E+03  0.00000000000E+00 0.  1.
          1   -1    0    0  501    0  0.00000000000E+00 -0.00000000000E+00 -0.67173608816E+02  0.67173608816E+02  0.00000000000E+00 0. -1.
         23    2    1    2    0    0  0.43459535038E+02  0.12543710701E+02  0.61163629870E+02  0.14640664848E+03  0.12509133158E+03 0.  0.
          5    1    3    3  502    0 -0.26523314491E+02  0.10897359480E+02  0.69966000840E+02  0.75729468035E+02  0.41800000000E+01 0.  1.
         -5    1    3    3    0  502  0.69982849529E+02  0.16463512205E+01 -0.88023709700E+01  0.70677180442E+02  0.41800000000E+01 0.  1.
        -11    1    1    2    0    0 -0.16979671977E+02  0.36065481663E+02  0.54847390339E+02  0.67803130127E+02  0.00000000000E+00 0. -1.
         11    1    1    2    0    0 -0.26479863061E+02 -0.48609192364E+02  0.24307061239E+02  0.60455520476E+02  0.00000000000E+00 0.  1.
</event>
<event>
 7    1  0.1068210E-005  0.1139413E+03  0.7561462E-02  0.1253441E+00
          2   -1    0    0  501    0  0.00000000000E+00  0.00000000000E+00  0.43190145940E+03  0.43190145940E+03  0.00000000000E+00 0. -1.
         -2   -1    0    0    0  501 -0.00000000000E+00 -0.00000000000E+00 -0.44117609965E+02  0.44117609965E+02  0.00000000000E+00 0.  1.
         23    2    1    2    0    0 -0.41224409345E+02 -0.53129320980E+02  0.12153351794E+03  0.18692092828E+03  0.12508741252E+03 0.  0.
          5    1    3    3  502    0 -0.54734756184E+02 -0.79036524945E+02  0.12438984484E+03  0.15726719845E+03  0.41800000000E+01 0. -1.
         -5    1    3    3    0  502  0.13510346840E+02  0.25907203966E+02 -0.28563269031E+01  0.29653729823E+02  0.41800000000E+01 0. -1.
        -11    1    1    2    0    0  0.41850822573E+02 -0.66315234245E+01  0.54261926083E+02  0.68846387525E+02  0.00000000000E+00 0.  1.
         11    1    1    2    0    0 -0.62641322812E+00  0.59760844404E+02  0.21198840541E+03  0.22025175356E+03  0.00000000000E+00 0. -1.
</event>
<event>
 7    1  0.1068210E-005  0.1694682E+03  0.7561462E-02  0.1178404E+00
         -1   -1    0    0    0  501 -0.00000000000E+00  0.00000000000E+00  0.27553335061E+03  0.27553335061E+03  0.00000000000E+00 0.  1.
          1   -1    0    0  501    0  0.00000000000E+00 -0.00000000000E+00 -0.13272043762E+03  0.13272043762E+03  0.00000000000E+00 0. -1.
         23    2    1    2    0    0  0.14463329210E+03 -0.59313261327E+02  0.54923755047E+02  0.20760792886E+03  0.12509029181E+03 0.  0.
          5    1    3    3  502    0 -0.11664013647E+02 -0.14008408820E+02 -0.20886796996E+02  0.28035966557E+02  0.41800000000E+01 0. -1.
         -5    1    3    3    0  502  0.15629730575E+03 -0.45304852507E+02  0.75810552043E+02  0.17957196231E+03  0.41800000000E+01 0. -1.
        -11    1    1    2    0    0 -0.42944420070E+02  0.85206405819E+01  0.74203170715E+02  0.86156456957E+02  0.00000000000E+00 0.  1.
         11    1    1    2    0    0 -0.10168887203E+03  0.50792620745E+02  0.13685987227E+02  0.11448940241E+03  0.00000000000E+00 0. -1.
</event>
<event>
 7    1  0.1068210E-005  0.1023261E+03  0.7561462E-02  0.1275479E+00
         -1   -1    0    0    0  501 -0.00000000000E+00  0.00000000000E+00  0.23158441601E+03  0.23158441601E+03  0.00000000000E+00 0.  1.
          1   -1    0    0  501    0  0.00000000000E+00 -0.00000000000E+00 -0.57265187171E+02  0.57265187171E+02  0.00000000000E+00 0. -1.
         23    2    1    2    0    0  0.91099742682E+01  0.36171855901E+02  0.12089387791E+03  0.17791871695E+03  0.12509334649E+03 0.  0.
          5    1    3    3  502    0  0.10255653396E+02  0.80323679182E+02  0.53184403427E+02  0.96969711930E+02  0.41800000000E+01 0. -1.
         -5    1    3    3    0  502 -0.11456791281E+01 -0.44151823281E+02  0.67709474479E+02  0.80949005021E+02  0.41800000000E+01 0. -1.
        -11    1    1    2    0    0  0.14140814984E+02  0.16439473488E+02  0.48588686188E+02  0.53207888160E+02  0.00000000000E+00 0.  1.
         11    1    1    2    0    0 -0.23250789252E+02 -0.52611329389E+02  0.48366647494E+01  0.57722998075E+02  0.00000000000E+00 0. -1.
</event>
<event>
 7    1  0.1068210E-005  0.1028654E+03  0.7561462E-02  0.1274383E+00
          2   -1    0    0  501    0  0.00000000000E+00  0.00000000000E+00  0.70102958596E+03  0.70102958596E+03  0.00000000000E+00 0. -1.
         -2   -1    0    0    0  501 -0.00000000000E+00 -0.00000000000E+00 -0.17320679910E+02  0.17320679910E+02  0.00000000000E+00 0.  1.
         23    2    1    2    0    0 -0.14303209971E+01  0.10402984504E+02  0.31750124640E+03  0.34141781834E+03  0.12509523297E+03 0.  0.
          5    1    3    3  502    0  0.33428881626E+02  0.54360567206E+02  0.21716629805E+03  0.22638735566E+03  0.41800000000E+01 0.  1.
         -5    1    3    3    0  502 -0.34859202623E+02 -0.43957582702E+02  0.10033494835E+03  0.11503046268E+03  0.41800000000E+01 0.  1.
        -11    1    1    2    0    0 -0.20683304463E+01 -0.47857597123E+02  0.14958572160E+03  0.15706850639E+03  0.00000000000E+00 0. -1.
         11    1    1    2    0    0  0.34986514434E+01  0.37454612619E+02  0.21662193804E+03  0.21986394113E+03  0.00000000000E+00 0.  1.
</event>
<event>
 7    1  0.1068210E-005  0.9658783E+02  0.7561462E-02  0.1287639E+00
         -1   -1    0    0    0  501 -0.00000000000E+00  0.00000000000E+00  0.22632739398E+03  0.22632739398E+03  0.00000000000E+00 0.  1.
          1   -1    0    0  501    0  0.00000000000E+00 -0.00000000000E+00 -0.75091701089E+02  0.75091701089E+02  0.00000000000E+00 0. -1.
         23    2    1    2    0    0  0.50596669585E+02 -0.15983802121E+02  0.14197059736E+03  0.19651547923E+03  0.12508868117E+03 0.  0.
          5    1    3    3  502    0 -0.37349877885E+02  0.77878135867E+01  0.71912977447E+02  0.81514490391E+02  0.41800000000E+01 0. -1.
         -5    1    3    3    0  502  0.87946547469E+02 -0.23771615707E+02  0.70057619916E+02  0.11500098884E+03  0.41800000000E+01 0. -1.
        -11    1    1    2    0    0 -0.33402989327E+02  0.27191873668E+02  0.45879441458E+02  0.62929173187E+02  0.00000000000E+00 0.  1.
         11    1    1    2    0    0 -0.17193680258E+02 -0.11208071547E+02 -0.36614345927E+02  0.41974442656E+02  0.00000000000E+00 0. -1.
</event>
<event>
 7    1  0.1068210E-005  0.2822781E+03  0.7561462E-02  0.1094451E+00
          2   -1    0    0  501    0  0.00000000000E+00  0.00000000000E+00  0.41926039837E+03  0.41926039837E+03  0.00000000000E+00 0.  1.
         -2   -1    0    0    0  501 -0.00000000000E+00 -0.00000000000E+00 -0.24337004186E+03  0.24337004186E+03  0.00000000000E+00 0. -1.
         23    2    1    2    0    0  0.52709281047E+02  0.26669984013E+03  0.21858637297E+03  0.37058686521E+03  0.12509016422E+03 0.  0.
          5    1    3    3  502    0  0.38917474899E+02  0.84203048713E+02  0.10518390481E+02  0.93449623880E+02  0.41800000000E+01 0. -1.
         -5    1    3    3    0  502  0.13791806148E+02  0.18249679142E+03  0.20806798249E+03  0.27713724133E+03  0.41800000000E+01 0. -1.
        -11    1    1    2    0    0 -0.71449262411E+02 -0.11230019252E+03 -0.13396955249E+02  0.13377521724E+03  0.00000000000E+00 0.  1.
         11    1    1    2    0    0  0.18739981363E+02 -0.15439964761E+03 -0.29299061224E+02  0.15826835778E+03  0.00000000000E+00 0. -1.
</event>
<event>
 7    1  0.1068210E-005  0.1197284E+03  0.7561462E-02  0.1243546E+00
         -2   -1    0    0    0  501 -0.00000000000E+00  0.00000000000E+00  0.13785902382E+03  0.13785902382E+03  0.00000000000E+00 0.  1.
          2   -1    0    0  501    0  0.00000000000E+00 -0.00000000000E+00 -0.12715159405E+03  0.12715159405E+03  0.00000000000E+00 0. -1.
         23    2    1    2    0    0  0.16817569241E+02  0.64704381562E+02  0.51307416233E+02  0.15082931302E+03  0.12509013980E+03 0.  0.
          5    1    3    3  502    0  0.30017813669E+02  0.99691251991E+02  0.38523058435E+02  0.11108966330E+03  0.41800000000E+01 0.  1.
         -5    1    3    3    0  502 -0.13200244428E+02 -0.34986870428E+02  0.12784357798E+02  0.39739649717E+02  0.41800000000E+01 0.  1.
        -11    1    1    2    0    0 -0.12434915216E+02  0.14046907464E+02  0.92077264501E+01  0.20897965262E+02  0.00000000000E+00 0.  1.
         11    1    1    2    0    0 -0.43826540249E+01 -0.78751289026E+02 -0.49807712913E+02  0.93283339591E+02  0.00000000000E+00 0. -1.
</event>
<event>
 7    1  0.1068210E-005  0.9437995E+02  0.7561462E-02  0.1292579E+00
          1   -1    0    0  501    0  0.00000000000E+00  0.00000000000E+00  0.48901518825E+03  0.48901518825E+03  0.00000000000E+00 0. -1.
         -1   -1    0    0    0  501 -0.00000000000E+00 -0.00000000000E+00 -0.30088587815E+02  0.30088587815E+02  0.00000000000E+00 0.  1.
         23    2    1    2    0    0 -0.57696640962E+01  0.40026949848E+01  0.14274702936E+03  0.18992949442E+03  0.12508872000E+03 0.  0.
          5    1    3    3  502    0  0.21531249331E+02  0.46404162347E+02  0.12692538060E+03  0.13691042920E+03  0.41800000000E+01 0. -1.
         -5    1    3    3    0  502 -0.27300913427E+02 -0.42401467363E+02  0.15821648752E+02  0.53019065228E+02  0.41800000000E+01 0. -1.
        -11    1    1    2    0    0  0.37191634960E+02  0.24393902057E+02  0.10928515693E+03  0.11798951518E+03  0.00000000000E+00 0.  1.
         11    1    1    2    0    0 -0.31421970864E+02 -0.28396597042E+02  0.20689441415E+03  0.21118476646E+03  0.00000000000E+00 0. -1.
</event>
<event>
 7    1  0.1068210E-005  0.7287365E+02  0.7561462E-02  0.1350585E+00
          3   -1    0    0  501    0  0.00000000000E+00  0.00000000000E+00  0.60727958177E+02  0.60727958177E+02  0.00000000000E+00 0. -1.
         -3   -1    0    0    0  501 -0.00000000000E+00 -0.00000000000E+00 -0.34957692648E+03  0.34957692648E+03  0.00000000000E+00 0.  1.
         23    2    1    2    0    0  0.64735604341E+02  0.44369540364E+01 -0.26061172412E+03  0.29627169982E+03  0.12509222333E+03 0.  0.
          5    1    3    3  502    0  0.50709474002E+02  0.11817429956E+02 -0.21319817622E+02  0.56419051992E+02  0.41800000000E+01 0.  1.
         -5    1    3    3    0  502  0.14026130339E+02 -0.73804759196E+01 -0.23929190650E+03  0.23985264783E+03  0.41800000000E+01 0.  1.
        -11    1    1    2    0    0 -0.21896162837E+01 -0.13715983922E+02 -0.46247053905E+02  0.48287810360E+02  0.00000000000E+00 0.  1.
         11    1    1    2    0    0 -0.62545988057E+02  0.92790298852E+01  0.18009809725E+02  0.65745374469E+02  0.00000000000E+00 0. -1.
</event>
<event>
 7    1  0.1068210E-005  0.9499358E+02  0.7561462E-02  0.1291191E+00
          2   -1    0    0  501    0  0.00000000000E+00  0.00000000000E+00  0.25094698687E+03  0.25094698687E+03  0.00000000000E+00 0. -1.
         -2   -1    0    0    0  501 -0.00000000000E+00 -0.00000000000E+00 -0.44267190833E+02  0.44267190833E+02  0.00000000000E+00 0.  1.
         23    2    1    2    0    0  0.26672594891E+02  0.42461864691E+02  0.87605051645E+02  0.16073926073E+03  0.12509207646E+03 0.  0.
          5    1    3    3  502    0 -0.45617343375E+02  0.37285514424E+02  0.56580518371E+02  0.81792292189E+02  0.41800000000E+01 0. -1.
         -5    1    3    3    0  502  0.72289938265E+02  0.51763502673E+01  0.31024533274E+02  0.78946968538E+02  0.41800000000E+01 0. -1.
        -11    1    1    2    0    0 -0.21658785185E+02 -0.73692233027E+01  0.24726539483E+02  0.33686943800E+02  0.00000000000E+00 0.  1.
         11    1    1    2    0    0 -0.50138097059E+01 -0.35092641388E+02  0.94348204911E+02  0.10078797318E+03  0.00000000000E+00 0. -1.
</event>
<event>
 7    1  0.1068210E-005  0.7751025E+02  0.7561462E-02  0.1336269E+00
          1   -1    0    0  501    0  0.00000000000E+00  0.00000000000E+00  0.14471201735E+03  0.14471201735E+03  0.00000000000E+00 0. -1.
         -1   -1    0    0    0  501 -0.00000000000E+00 -0.00000000000E+00 -0.23356638005E+03  0.23356638005E+03  0.00000000000E+00 0.  1.
         23    2    1    2    0    0 -0.45113719209E+02  0.25245904629E+02 -0.18960642084E+03  0.23296124264E+03  0.12509093648E+03 0.  0.
          5    1    3    3  502    0 -0.26492960107E+02 -0.30549195056E+02 -0.16348956660E+03  0.16846792288E+03  0.41800000000E+01 0.  1.
         -5    1    3    3    0  502 -0.18620759101E+02  0.55795099685E+02 -0.26116854236E+02  0.64493319759E+02  0.41800000000E+01 0.  1.
        -11    1    1    2    0    0  0.22897017407E+02 -0.15980008819E+01  0.10936410539E+03  0.11174674295E+03  0.00000000000E+00 0. -1.
         11    1    1    2    0    0  0.22216701802E+02 -0.23647903747E+02 -0.86120472622E+01  0.33570411803E+02  0.00000000000E+00 0.  1.
</event>
<event>
 7    1  0.1068210E-005  0.1163644E+03  0.7561462E-02  0.1249218E+00
         -2   -1    0    0    0  501 -0.00000000000E+00  0.00000000000E+00  0.80449665007E+02  0.80449665007E+02  0.00000000000E+00 0.  1.
          2   -1    0    0  501    0  0.00000000000E+00 -0.00000000000E+00 -0.21168583000E+03  0.21168583000E+03  0.00000000000E+00 0. -1.
         23    2    1    2    0    0 -0.62157359001E+02  0.44629294969E+02 -0.71030132193E+02  0.16293682697E+03  0.12509124132E+03 0.  0.
          5    1    3    3  502    0 -0.84384408991E+01 -0.27532883417E+02 -0.66703436393E+02  0.72774224700E+02  0.41800000000E+01 0. -1.
         -5    1    3    3    0  502 -0.53718918102E+02  0.72162178386E+02 -0.43266958001E+01  0.90162602270E+02  0.41800000000E+01 0. -1.
        -11    1    1    2    0    0  0.30642267639E+02  0.23427308700E+02 -0.13606805017E+02  0.40901497549E+02  0.00000000000E+00 0.  1.
         11    1    1    2    0    0  0.31515091362E+02 -0.68056603669E+02 -0.46599227785E+02  0.88297170491E+02  0.00000000000E+00 0. -1.
</event>
<event>
 7    1  0.1068210E-005  0.1416443E+03  0.7561462E-02  0.1211133E+00
         -2   -1    0    0    0  501 -0.00000000000E+00  0.00000000000E+00  0.66480222900E+02  0.66480222900E+02  0.00000000000E+00 0.  1.
          2   -1    0    0  501    0  0.00000000000E+00 -0.00000000000E+00 -0.32718715334E+03  0.32718715334E+03  0.00000000000E+00 0. -1.
         23    2    1    2    0    0 -0.79993902663E+02  0.43265649781E+02 -0.91931230433E+02  0.17991567888E+03  0.12508940589E+03 0.  0.
          5    1    3    3  502    0  0.31152684262E+02  0.23878034761E+02 -0.38008131134E+02  0.54797269211E+02  0.41800000000E+01 0. -1.
         -5    1    3    3    0  502 -0.11114658692E+03  0.19387615020E+02 -0.53923099299E+02  0.12511840967E+03  0.41800000000E+01 0. -1.
        -11    1    1    2    0    0  0.88824594170E+02 -0.63264660912E+02 -0.13542006811E+03  0.17387012595E+03  0.00000000000E+00 0.  1.
         11    1    1    2    0    0 -0.88306915072E+01  0.19999011132E+02 -0.33355631895E+02  0.39881571406E+02  0.00000000000E+00 0. -1.
</event>
<event>
 7    1  0.1068210E-005  0.1174718E+03  0.7561462E-02  0.1247327E+00
         -1   -1    0    0    0  501 -0.00000000000E+00  0.00000000000E+00  0.60813713094E+02  0.60813713094E+02  0.00000000000E+00 0.  1.
          1   -1    0    0  501    0  0.00000000000E+00 -0.00000000000E+00 -0.46679716895E+03  0.46679716895E+03  0.00000000000E+00 0. -1.
         23    2    1    2    0    0 -0.41571432239E+02 -0.96758036371E+02 -0.10683235257E+03  0.19532240872E+03  0.12508952878E+03 0.  0.
          5    1    3    3  502    0  0.15005489492E+02 -0.44909977267E+02 -0.10849335394E+03  0.11844978270E+03  0.41800000000E+01 0. -1.
         -5    1    3    3    0  502 -0.56576921731E+02 -0.51848059104E+02  0.16610013662E+01  0.76872626018E+02  0.41800000000E+01 0. -1.
        -11    1    1    2    0    0  0.24997262771E+02  0.19961362952E+02 -0.11328771246E+02  0.33936119621E+02  0.00000000000E+00 0.  1.
         11    1    1    2    0    0  0.16574169468E+02  0.76796673419E+02 -0.28782233204E+03  0.29835235371E+03  0.00000000000E+00 0. -1.
</event>
<event>
 7    1  0.1068210E-005  0.8805847E+02  0.7561462E-02  0.1307623E+00
          1   -1    0    0  501    0  0.00000000000E+00  0.00000000000E+00  0.61491156518E+02  0.61491156518E+02  0.00000000000E+00 0.  1.
         -1   -1    0    0    0  501 -0.00000000000E+00 -0.00000000000E+00 -0.20919716849E+03  0.20919716849E+03  0.00000000000E+00 0. -1.
         23    2    1    2    0    0 -0.14448557415E+02 -0.48165458047E+01 -0.11759251469E+03  0.17235694393E+03  0.12508779590E+03 0.  0.
          5    1    3    3  502    0  0.10670279168E+02 -0.39512231348E+02  0.59170396717E+01  0.41563867025E+02  0.41800000000E+01 0. -1.
         -5    1    3    3    0  502 -0.25118836583E+02  0.34695685543E+02 -0.12350955436E+03  0.13079307690E+03  0.41800000000E+01 0. -1.
        -11    1    1    2    0    0 -0.35434687024E+02  0.18826789335E+02 -0.22377650230E+02  0.45943707632E+02  0.00000000000E+00 0.  1.
         11    1    1    2    0    0  0.49883244439E+02 -0.14010243530E+02 -0.77358470480E+01  0.52387673447E+02  0.00000000000E+00 0. -1.
</event>
<event>
 7    1  0.1068210E-005  0.1117130E+03  0.7561462E-02  0.1257430E+00
          2   -1    0    0  501    0  0.00000000000E+00  0.00000000000E+00  0.62380444008E+03  0.62380444008E+03  0.00000000000E+00 0. -1.
         -2   -1    0    0    0  501 -0.00000000000E+00 -0.00000000000E+00 -0.23478822435E+02  0.23478822435E+02  0.00000000000E+00 0.  1.
         23    2    1    2    0    0  0.22937793939E+02 -0.46606039928E+02  0.37699619366E+03  0.40058858542E+03  0.12508724708E+03 0.  0.
          5    1    3    3  502    0 -0.43004402860E+02 -0.11143690864E+02  0.59592020007E+02  0.74446234022E+02  0.41800000000E+01 0.  1.
         -5    1    3    3    0  502  0.65942196800E+02 -0.35462349064E+02  0.31740417365E+03  0.32614235139E+03  0.41800000000E+01 0.  1.
        -11    1    1    2    0    0  0.33071712159E+02  0.31804472634E+02  0.11566971575E+03  0.12443771842E+03  0.00000000000E+00 0. -1.
         11    1    1    2    0    0 -0.56009506098E+02  0.14801567295E+02  0.10765970823E+03  0.12225695868E+03  0.00000000000E+00 0.  1.
</event>
<event>
 7    1  0.1068210E-005  0.9086385E+02  0.7561462E-02  0.1300773E+00
          1   -1    0    0  501    0  0.00000000000E+00  0.00000000000E+00  0.70053564114E+02  0.70053564114E+02  0.00000000000E+00 0. -1.
         -1   -1    0    0    0  501 -0.00000000000E+00 -0.00000000000E+00 -0.24265882375E+03  0.24265882375E+03  0.00000000000E+00 0.  1.
         23    2    1    2    0    0 -0.29836871134E+02 -0.16561904873E+02 -0.17331204253E+03  0.21644672054E+03  0.12509030008E+03 0.  0.
          5    1    3    3  502    0  0.37221529362E+02 -0.43384614002E+02 -0.76963905706E+02  0.95961357648E+02  0.41800000000E+01 0. -1.
         -5    1    3    3    0  502 -0.67058400495E+02  0.26822709129E+02 -0.96348136826E+02  0.12048536289E+03  0.41800000000E+01 0. -1.
        -11    1    1    2    0    0  0.61463819107E+00  0.22281627066E+02 -0.40023344433E+02  0.45811753780E+02  0.00000000000E+00 0.  1.
         11    1    1    2    0    0  0.29222232943E+02 -0.57197221935E+01  0.40730127324E+02  0.50453913545E+02  0.00000000000E+00 0. -1.
</event>
<event>
 7    1  0.1068210E-005  0.1108424E+03  0.7561462E-02  0.1259018E+00
         -1   -1    0    0    0  501 -0.00000000000E+00  0.00000000000E+00  0.58488009988E+02  0.58488009988E+02  0.00000000000E+00 0.  1.
          1   -1    0    0  501    0  0.00000000000E+00 -0.00000000000E+00 -0.26537603067E+03  0.26537603067E+03  0.00000000000E+00 0. -1.
         23    2    1    2    0    0  0.39185366176E+02  0.38359429451E+02 -0.94412251773E+02  0.16603614256E+03  0.12508952235E+03 0.  0.
          5    1    3    3  502    0 -0.51058380311E+01 -0.32396431261E+02  0.78329589486E+01  0.33976844856E+02  0.41800000000E+01 0. -1.
         -5    1    3    3    0  502  0.44291204207E+02  0.70755860712E+02 -0.10224521072E+03  0.13205929771E+03  0.41800000000E+01 0. -1.
        -11    1    1    2    0    0 -0.45513369373E+02  0.17547986714E+02 -0.77516574894E+02  0.91587215334E+02  0.00000000000E+00 0. -1.
         11    1    1    2    0    0  0.63280031968E+01 -0.55907416165E+02 -0.34959194020E+02  0.66240682766E+02  0.00000000000E+00 0.  1.
</event>
<event>
 7    1  0.1068210E-005  0.1023269E+03  0.7561462E-02  0.1275478E+00
         -3   -1    0    0    0  501 -0.00000000000E+00  0.00000000000E+00  0.28776334321E+03  0.28776334321E+03  0.00000000000E+00 0.  1.
          3   -1    0    0  501    0  0.00000000000E+00 -0.00000000000E+00 -0.45145666728E+02  0.45145666728E+02  0.00000000000E+00 0. -1.
         23    2    1    2    0    0 -0.16626044302E+02  0.27686059463E+02  0.15588974576E+03  0.20246411390E+03  0.12508861397E+03 0.  0.
          5    1    3    3  502    0 -0.35781914083E+02 -0.36640317435E+02  0.10893446324E+03  0.12044520712E+03  0.41800000000E+01 0.  1.
         -5    1    3    3    0  502  0.19155869781E+02  0.64326376898E+02  0.46955282524E+02  0.82018906776E+02  0.41800000000E+01 0.  1.
        -11    1    1    2    0    0 -0.18350539394E+02 -0.43816965784E+02  0.77398418018E+02  0.90814007170E+02  0.00000000000E+00 0.  1.
         11    1    1    2    0    0  0.34976583696E+02  0.16130906321E+02  0.93295127065E+01  0.39630888876E+02  0.00000000000E+00 0. -1.
</event>
<event>
 7    1  0.1068210E-005  0.2367012E+03  0.7561462E-02  0.1122010E+00
         -1   -1    0    0    0  501 -0.00000000000E+00  0.00000000000E+00  0.87652051660E+02  0.87652051660E+02  0.00000000000E+00 0.  1.
          1   -1    0    0  501    0  0.00000000000E+00 -0.00000000000E+00 -0.70492338257E+03  0.70492338257E+03  0.00000000000E+00 0. -1.
         23    2    1    2    0    0 -0.21322984446E+03  0.60197815444E+02 -0.27364748787E+03  0.37365075837E+03  0.12506477545E+03 0.  0.
          5    1    3    3  502    0 -0.22203742603E+01  0.29797442896E+02 -0.80425355703E+02  0.85898357988E+02  0.41800000000E+01 0.  1.
         -5    1    3    3    0  502 -0.21100947020E+03  0.30400372548E+02 -0.19322213217E+03  0.28775240038E+03  0.41800000000E+01 0.  1.
        -11    1    1    2    0    0  0.97431903246E+02  0.41621349243E+01 -0.89615882713E+02  0.13244359393E+03  0.00000000000E+00 0.  1.
         11    1    1    2    0    0  0.11579794121E+03 -0.64359950368E+02 -0.25400796032E+03  0.28648108194E+03  0.00000000000E+00 0. -1.
</event>
<event>
 7    1  0.1068210E-005  0.1330286E+03  0.7561462E-02  0.1223030E+00
         -2   -1    0    0    0  501 -0.00000000000E+00  0.00000000000E+00  0.99567384361E+02  0.99567384361E+02  0.00000000000E+00 0.  1.
          2   -1    0    0  501    0  0.00000000000E+00 -0.00000000000E+00 -0.21121289599E+03  0.21121289599E+03  0.00000000000E+00 0. -1.
         23    2    1    2    0    0 -0.20415075668E+01  0.98391515414E+02 -0.36715551275E+02  0.16334237477E+03  0.12509053374E+03 0.  0.
          5    1    3    3  502    0 -0.29658919601E+02 -0.20405990291E+02 -0.15752386783E+02  0.39517920505E+02  0.41800000000E+01 0. -1.
         -5    1    3    3    0  502  0.27617412034E+02  0.11879750570E+03 -0.20963164492E+02  0.12382445427E+03  0.41800000000E+01 0. -1.
        -11    1    1    2    0    0  0.12050018692E+02 -0.37667851675E+01 -0.46419679535E+02  0.48105906801E+02  0.00000000000E+00 0. -1.
         11    1    1    2    0    0 -0.10008511125E+02 -0.94624730246E+02 -0.28510280821E+02  0.99331998780E+02  0.00000000000E+00 0.  1.
</event>
<event>
 7    1  0.1068210E-005  0.8486270E+02  0.7561462E-02  0.1315792E+00
         -1   -1    0    0    0  501 -0.00000000000E+00  0.00000000000E+00  0.10212666622E+03  0.10212666622E+03  0.00000000000E+00 0.  1.
          1   -1    0    0  501    0  0.00000000000E+00 -0.00000000000E+00 -0.19058333990E+03  0.19058333990E+03  0.00000000000E+00 0. -1.
         23    2    1    2    0    0  0.14852227698E+02 -0.14170786645E+01  0.44561801193E+02  0.13362139779E+03  0.12508527908E+03 0.  0.
          5    1    3    3  502    0 -0.10574618531E+02 -0.51843790749E+02  0.54558917074E+02  0.76116680358E+02  0.41800000000E+01 0. -1.
         -5    1    3    3    0  502  0.25426846229E+02  0.50426712085E+02 -0.99971158809E+01  0.57504717431E+02  0.41800000000E+01 0. -1.
        -11    1    1    2    0    0 -0.12378501880E+02  0.29414884836E+02 -0.10817464568E+02  0.33696888556E+02  0.00000000000E+00 0.  1.
         11    1    1    2    0    0 -0.24737258181E+01 -0.27997806171E+02 -0.12220101031E+03  0.12539171978E+03  0.00000000000E+00 0. -1.
</event>
<event>
 6    1  0.1068210E-005  0.1024751E+03  0.7561462E-02  0.1275176E+00
         -2   -1    0    0    0  501 -0.00000000000E+00  0.00000000000E+00  0.39685753860E+03  0.39685753860E+03  0.00000000000E+00 0.  1.
          2   -1    0    0  501    0  0.00000000000E+00 -0.00000000000E+00 -0.94419726573E+02  0.94419726573E+02  0.00000000000E+00 0. -1.
          5    1    1    2  502    0 -0.27058418766E-01  0.17515870643E+02 -0.52783282020E+02  0.55770545249E+02  0.41800000000E+01 0. -1.
         -5    1    1    2    0  502  0.39873731596E+02  0.53037693904E+02  0.29018558237E+03  0.29770464568E+03  0.41800000000E+01 0.  1.
        -11    1    1    2    0    0  0.26766103627E+02 -0.54549149685E+01  0.75119860566E+01  0.28330378310E+02  0.00000000000E+00 0.  1.
         11    1    1    2    0    0 -0.66612776804E+02 -0.65098649578E+02  0.57523525625E+02  0.10947169593E+03  0.00000000000E+00 0. -1.
</event>
<event>
 7    1  0.1068210E-005  0.1232756E+03  0.7561462E-02  0.1237789E+00
          1   -1    0    0  501    0  0.00000000000E+00  0.00000000000E+00  0.31323459247E+03  0.31323459247E+03  0.00000000000E+00 0.  1.
         -1   -1    0    0    0  501 -0.00000000000E+00 -0.00000000000E+00 -0.79222977338E+02  0.79222977338E+02  0.00000000000E+00 0. -1.
         23    2    1    2    0    0  0.76286002936E+02 -0.20732870184E+02  0.23676473399E+02  0.14986192059E+03  0.12509441914E+03 0.  0.
          5    1    3    3  502    0  0.49467544751E+02  0.37022347565E+02 -0.27790981330E+02  0.67878591958E+02  0.41800000000E+01 0. -1.
         -5    1    3    3    0  502  0.26818458186E+02 -0.57755217750E+02  0.51467454729E+02  0.81983328629E+02  0.41800000000E+01 0. -1.
        -11    1    1    2    0    0  0.10281504876E+02 -0.21987479760E+02  0.38983675285E+02  0.45922603884E+02  0.00000000000E+00 0.  1.
         11    1    1    2    0    0 -0.86567507813E+02  0.42720349944E+02  0.17135146644E+03  0.19667304533E+03  0.00000000000E+00 0. -1.
</event>
<event>
 7    1  0.1068210E-005  0.1030913E+03  0.7561462E-02  0.1273927E+00
         -1   -1    0    0    0  501 -0.00000000000E+00  0.00000000000E+00  0.27051847389E+02  0.27051847389E+02  0.00000000000E+00 0.  1.
          1   -1    0    0  501    0  0.00000000000E+00 -0.00000000000E+00 -0.51940469173E+03  0.51940469173E+03  0.00000000000E+00 0. -1.
         23    2    1    2    0    0  0.11168135601E+02 -0.46029949234E+02 -0.29512887359E+03  0.32402426744E+03  0.12508873004E+03 0.  0.
          5    1    3    3  502    0  0.61265520241E+02  0.55960258000E+01 -0.13240912015E+03  0.14606309244E+03  0.41800000000E+01 0. -1.
         -5    1    3    3    0  502 -0.50097384639E+02 -0.51625975034E+02 -0.16271975344E+03  0.17796117499E+03  0.41800000000E+01 0. -1.
        -11    1    1    2    0    0 -0.40020056356E+01  0.58200424839E+02 -0.19974121259E+03  0.20808617808E+03  0.00000000000E+00 0. -1.
         11    1    1    2    0    0 -0.71661299658E+01 -0.12170475605E+02  0.25172418395E+01  0.14346093601E+02  0.00000000000E+00 0.  1.
</event>
<event>
 7    1  0.1068210E-005  0.1344624E+03  0.7561462E-02  0.1220981E+00
         -2   -1    0    0    0  501 -0.00000000000E+00  0.00000000000E+00  0.78637272238E+02  0.78637272238E+02  0.00000000000E+00 0. -1.
          2   -1    0    0  501    0  0.00000000000E+00 -0.00000000000E+00 -0.30945715522E+03  0.30945715522E+03  0.00000000000E+00 0.  1.
         23    2    1    2    0    0 -0.37249282277E+02 -0.71471472957E+02 -0.28117142819E+02  0.15143540130E+03  0.12508567692E+03 0.  0.
          5    1    3    3  502    0 -0.26741750845E+02  0.32622252861E+02 -0.18624308548E+02  0.46299782817E+02  0.41800000000E+01 0. -1.
         -5    1    3    3    0  502 -0.10507531431E+02 -0.10409372582E+03 -0.94928342708E+01  0.10513561848E+03  0.41800000000E+01 0. -1.
        -11    1    1    2    0    0  0.67608169705E+02  0.55819230452E+02 -0.15326471237E+03  0.17656931544E+03  0.00000000000E+00 0.  1.
         11    1    1    2    0    0 -0.30358887428E+02  0.15652242505E+02 -0.49438027795E+02  0.60089710712E+02  0.00000000000E+00 0. -1.
</event>
<event>
 7    1  0.1068210E-005  0.9896735E+02  0.7561462E-02  0.1282483E+00
          2   -1    0    0  501    0  0.00000000000E+00  0.00000000000E+00  0.54976092925E+02  0.54976092925E+02  0.00000000000E+00 0. -1.
         -2   -1    0    0    0  501 -0.00000000000E+00 -0.00000000000E+00 -0.45724749504E+03  0.45724749504E+03  0.00000000000E+00 0.  1.
         23    2    1    2    0    0 -0.55669933916E+02  0.43745135754E+02 -0.36390555602E+03  0.39126035314E+03  0.12507850254E+03 0.  0.
          5    1    3    3  502    0 -0.68719487351E+02  0.49444250725E+02 -0.36651809714E+03  0.37619155998E+03  0.41800000000E+01 0. -1.
         -5    1    3    3    0  502  0.13049553435E+02 -0.56991149707E+01  0.26125411186E+01  0.15068793164E+02  0.41800000000E+01 0. -1.
        -11    1    1    2    0    0 -0.52241302151E+00  0.16176493520E+02 -0.35214137141E+02  0.38755481064E+02  0.00000000000E+00 0.  1.
         11    1    1    2    0    0  0.56192346937E+02 -0.59921629274E+02 -0.31517089612E+01  0.82207753762E+02  0.00000000000E+00 0. -1.
</event>
<event>
 7    1  0.1068210E-005  0.1024214E+03  0.7561462E-02  0.1275285E+00
         -2   -1    0    0    0  501 -0.00000000000E+00  0.00000000000E+00  0.30510992293E+03  0.30510992293E+03  0.00000000000E+00 0.  1.
          2   -1    0    0  501    0  0.00000000000E+00 -0.00000000000E+00 -0.61611020954E+02  0.61611020954E+02  0.00000000000E+00 0. -1.
         23    2    1    2    0    0  0.10172219455E+01  0.82733672195E+02  0.16261809061E+03  0.22121070109E+03  0.12507452030E+03 0.  0.
          5    1    3    3  502    0  0.24787774368E+02  0.59236952371E+02  0.10246883705E+02  0.65160734418E+02  0.41800000000E+01 0. -1.
         -5    1    3    3    0  502 -0.23770552422E+02  0.23496719824E+02  0.15237120690E+03  0.15604996667E+03  0.41800000000E+01 0. -1.
        -11    1    1    2    0    0  0.18627873381E+02 -0.85014897658E+02  0.31910990997E+02  0.92697582692E+02  0.00000000000E+00 0. -1.
         11    1    1    2    0    0 -0.19645095326E+02  0.22812254636E+01  0.48969820370E+02  0.52812660102E+02  0.00000000000E+00 0.  1.
</event>
<event>
 7    1  0.1068210E-005  0.1366119E+03  0.7561462E-02  0.1217962E+00
          1   -1    0    0  501    0  0.00000000000E+00  0.00000000000E+00  0.29467444938E+02  0.29467444938E+02  0.00000000000E+00 0. -1.
         -1   -1    0    0    0  501 -0.00000000000E+00 -0.00000000000E+00 -0.80434153061E+03  0.80434153061E+03  0.00000000000E+00 0.  1.
         23    2    1    2    0    0  0.56921085675E+02  0.72447131564E+02 -0.58065749643E+03  0.60108217574E+03  0.12509219384E+03 0.  0.
          5    1    3    3  502    0 -0.58783142758E+01 -0.28241888682E+02 -0.55732547807E+02  0.62894738573E+02  0.41800000000E+01 0. -1.
         -5    1    3    3    0  502  0.62799399951E+02  0.10068902025E+03 -0.52492494863E+03  0.53818743717E+03  0.41800000000E+01 0. -1.
        -11    1    1    2    0    0 -0.31485490267E+02 -0.89389461076E+02 -0.16590818218E+03  0.19106893197E+03  0.00000000000E+00 0.  1.
         11    1    1    2    0    0 -0.25435595408E+02  0.16942329512E+02 -0.28308407063E+02  0.41657867846E+02  0.00000000000E+00 0. -1.
</event>
<event>
 7    1  0.1068210E-005  0.1020691E+03  0.7561462E-02  0.1276004E+00
          1   -1    0    0  501    0  0.00000000000E+00  0.00000000000E+00  0.15801631485E+03  0.15801631485E+03  0.00000000000E+00 0. -1.
         -1   -1    0    0    0  501 -0.00000000000E+00 -0.00000000000E+00 -0.12522044967E+03  0.12522044967E+03  0.00000000000E+00 0.  1.
         23    2    1    2    0    0 -0.53610899233E+02 -0.51903025923E+02 -0.29611445138E+02  0.14863213889E+03  0.12508645974E+03 0.  0.
          5    1    3    3  502    0  0.93675337634E+01  0.54703068896E+01  0.38032213712E+02  0.39769292502E+02  0.41800000000E+01 0. -1.
         -5    1    3    3    0  502 -0.62978432996E+02 -0.57373332813E+02 -0.67643658851E+02  0.10886284639E+03  0.41800000000E+01 0. -1.
        -11    1    1    2    0    0 -0.10219905779E+02 -0.12765087040E+02 -0.93375928994E+01  0.18830415886E+02  0.00000000000E+00 0.  1.
         11    1    1    2    0    0  0.63830805011E+02  0.64668112963E+02  0.71744903219E+02  0.11577420974E+03  0.00000000000E+00 0. -1.
</event>
<event>
 7    1  0.1068210E-005  0.2117043E+03  0.7561462E-02  0.1140223E+00
         -1   -1    0    0    0  501 -0.00000000000E+00  0.00000000000E+00  0.18157794980E+03  0.18157794980E+03  0.00000000000E+00 0.  1.
          1   -1    0    0  501    0  0.00000000000E+00 -0.00000000000E+00 -0.27707510304E+03  0.27707510304E+03  0.00000000000E+00 0. -1.
         23    2    1    2    0    0  0.39587288132E+02  0.19647321280E+03 -0.43285646547E+02  0.23522701868E+03  0.11527890696E+03 0.  0.
          5    1    3    3  502    0 -0.24365753528E+02  0.24077399556E+02  0.20995397076E+02  0.40394185383E+02  0.41800000000E+01 0. -1.
         -5    1    3    3    0  502  0.63953041660E+02  0.17239581324E+03 -0.64281043623E+02  0.19483283329E+03  0.41800000000E+01 0.  1.
        -11    1    1    2    0    0 -0.34647224291E+02 -0.67177484720E+02 -0.55855804698E+02  0.93984655784E+02  0.00000000000E+00 0. -1.
         11    1    1    2    0    0 -0.49400638407E+01 -0.12929572808E+03  0.36442980007E+01  0.12944137838E+03  0.00000000000E+00 0.  1.
</event>
<event>
 7    1  0.1068210E-005  0.7200633E+02  0.7561462E-02  0.1353400E+00
         -1   -1    0    0    0  501 -0.00000000000E+00  0.00000000000E+00  0.19272686964E+03  0.19272686964E+03  0.00000000000E+00 0.  1.
          1   -1    0    0  501    0  0.00000000000E+00 -0.00000000000E+00 -0.69376898741E+02  0.69376898741E+02  0.00000000000E+00 0. -1.
         23    2    1    2    0    0  0.28614168007E+02  0.97593940707E+01  0.12528642932E+03  0.17960592358E+03  0.12509029551E+03 0.  0.
          5    1    3    3  502    0  0.23576636509E+02  0.31830188777E+02 -0.11053517377E+02  0.41336078104E+02  0.41800000000E+01 0. -1.
         -5    1    3    3    0  502  0.50375314982E+01 -0.22070794707E+02  0.13633994669E+03  0.13826984547E+03  0.41800000000E+01 0. -1.
        -11    1    1    2    0    0 -0.51171212817E+02  0.88343161844E+01 -0.82818164448E+01  0.52584471541E+02  0.00000000000E+00 0. -1.
         11    1    1    2    0    0  0.22557044810E+02 -0.18593710255E+02  0.63453580300E+01  0.29913373266E+02  0.00000000000E+00 0.  1.
</event>
<event>
 7    1  0.1068210E-005  0.1098960E+03  0.7561462E-02  0.1260763E+00
          1   -1    0    0  501    0  0.00000000000E+00  0.00000000000E+00  0.56130129156E+03  0.56130129156E+03  0.00000000000E+00 0. -1.
         -1   -1    0    0    0  501 -0.00000000000E+00 -0.00000000000E+00 -0.27950802901E+02  0.27950802901E+02  0.00000000000E+00 0.  1.
         23    2    1    2    0    0 -0.53760482738E+02  0.86066559301E+01  0.22318300999E+03  0.26157379650E+03  0.12508369613E+03 0.  0.
          5    1    3    3  502    0 -0.41238800929E+02 -0.52997901297E+02  0.15369237995E+03  0.16777436127E+03  0.41800000000E+01 0. -1.
         -5    1    3    3    0  502 -0.12521681809E+02  0.61604557227E+02  0.69490630038E+02  0.93799435230E+02  0.41800000000E+01 0. -1.
        -11    1    1    2    0    0 -0.16747485550E+02  0.54486322962E+01  0.12874606291E+02  0.21815621772E+02  0.00000000000E+00 0.  1.
         11    1    1    2    0    0  0.70507968288E+02 -0.14055288226E+02  0.29729287238E+03  0.30586267619E+03  0.00000000000E+00 0. -1.
</event>
<event>
 7    1  0.1068210E-005  0.1770661E+03  0.7561462E-02  0.1170673E+00
          2   -1    0    0  501    0  0.00000000000E+00  0.00000000000E+00  0.11048293581E+04  0.11048293581E+04  0.00000000000E+00 0. -1.
         -2   -1    0    0    0  501 -0.00000000000E+00 -0.00000000000E+00 -0.32934301676E+02  0.32934301676E+02  0.00000000000E+00 0.  1.
         23    2    1    2    0    0  0.42810473473E+02 -0.14964371420E+03  0.49058842095E+03  0.52967013996E+03  0.12508988994E+03 0.  0.
          5    1    3    3  502    0  0.59202780598E+02 -0.13961349907E+02  0.11872534661E+03  0.13346560924E+03  0.41800000000E+01 0. -1.
         -5    1    3    3    0  502 -0.16392307125E+02 -0.13568236429E+03  0.37186307434E+03  0.39620453073E+03  0.41800000000E+01 0. -1.
        -11    1    1    2    0    0 -0.15159786958E+01  0.26555708782E+02  0.23875346922E+02  0.35742636318E+02  0.00000000000E+00 0.  1.
         11    1    1    2    0    0 -0.41294494777E+02  0.12308800542E+03  0.55743128859E+03  0.57235088353E+03  0.00000000000E+00 0. -1.
</event>
<event>
 7    1  0.1068210E-005  0.1418943E+03  0.7561462E-02  0.1210803E+00
          1   -1    0    0  501    0  0.00000000000E+00  0.00000000000E+00  0.34297770700E+02  0.34297770700E+02  0.00000000000E+00 0. -1.
         -1   -1    0    0    0  501 -0.00000000000E+00 -0.00000000000E+00 -0.81414491627E+03  0.81414491627E+03  0.00000000000E+00 0.  1.
         23    2    1    2    0    0 -0.99576463705E+02 -0.51328752193E+02 -0.56624515588E+03  0.59061871921E+03  0.12508709765E+03 0.  0.
          5    1    3    3  502    0 -0.87853646778E+02  0.21345529102E+02 -0.37196963852E+03  0.38282212481E+03  0.41800000000E+01 0.  1.
         -5    1    3    3    0  502 -0.11722816927E+02 -0.72674281295E+02 -0.19427551736E+03  0.20779659440E+03  0.41800000000E+01 0.  1.
        -11    1    1    2    0    0  0.64944618496E+02  0.10131161818E+02 -0.42054962863E+02  0.78032453587E+02  0.00000000000E+00 0. -1.
         11    1    1    2    0    0  0.34631845210E+02  0.41197590375E+02 -0.17154702683E+03  0.17979151417E+03  0.00000000000E+00 0.  1.
</event>
<event>
 6    1  0.1068210E-005  0.1813248E+03  0.7561462E-02  0.1166527E+00
         -2   -1    0    0    0  501 -0.00000000000E+00  0.00000000000E+00  0.51418457310E+03  0.51418457310E+03  0.00000000000E+00 0.  1.
          2   -1    0    0  501    0  0.00000000000E+00 -0.00000000000E+00 -0.25810951135E+03  0.25810951135E+03  0.00000000000E+00 0. -1.
          5    1    1    2  502    0 -0.67179015510E+02  0.16118843211E+03  0.27198626527E+03  0.32324716807E+03  0.41800000000E+01 0. -1.
         -5    1    1    2    0  502  0.18612238786E+02 -0.55315528435E+02  0.18812066374E+03  0.19701035416E+03  0.41800000000E+01 0.  1.
        -11    1    1    2    0    0  0.61383180631E+02 -0.82873699945E+02 -0.96187635746E+02  0.14102484277E+03  0.00000000000E+00 0. -1.
         11    1    1    2    0    0 -0.12816403906E+02 -0.22999203730E+02 -0.10784423152E+03  0.11101171945E+03  0.00000000000E+00 0.  1.
</event>
<event>
 7    1  0.1068210E-005  0.5743205E+02  0.7561462E-02  0.1408935E+00
          2   -1    0    0  501    0  0.00000000000E+00  0.00000000000E+00  0.78016795833E+02  0.78016795833E+02  0.00000000000E+00 0. -1.
         -2   -1    0    0    0  501 -0.00000000000E+00 -0.00000000000E+00 -0.18294518957E+03  0.18294518957E+03  0.00000000000E+00 0.  1.
         23    2    1    2    0    0  0.30006507023E+01  0.42063696026E+02 -0.87954754702E+02  0.15862645097E+03  0.12509178089E+03 0.  0.
          5    1    3    3  502    0 -0.12422515563E+02 -0.63610744818E+01 -0.10411845368E+03  0.10513280629E+03  0.41800000000E+01 0. -1.
         -5    1    3    3    0  502  0.15423166266E+02  0.48424770508E+02  0.16163698983E+02  0.53493644680E+02  0.41800000000E+01 0. -1.
        -11    1    1    2    0    0 -0.12785626757E+02 -0.11452337921E+02 -0.52023750975E+02  0.54782286926E+02  0.00000000000E+00 0.  1.
         11    1    1    2    0    0  0.97849760551E+01 -0.30611358105E+02  0.35050111937E+02  0.47553247505E+02  0.00000000000E+00 0. -1.
</event>
<event>
 7    1  0.1068210E-005  0.6856978E+02  0.7561462E-02  0.1365025E+00
         -2   -1    0    0    0  501 -0.00000000000E+00  0.00000000000E+00  0.18979863635E+02  0.18979863635E+02  0.00000000000E+00 0.  1.
          2   -1    0    0  501    0  0.00000000000E+00 -0.00000000000E+00 -0.74957876027E+03  0.74957876027E+03  0.00000000000E+00 0. -1.
         23    2    1    2    0    0 -0.70288669656E+01  0.41664759230E+02 -0.39552519416E+03  0.41698079562E+03  0.12508975804E+03 0.  0.
          5    1    3    3  502    0 -0.72645090448E+00  0.46862296830E+02 -0.40263323615E+03  0.40537340546E+03  0.41800000000E+01 0.  1.
         -5    1    3    3    0  502 -0.63024160611E+01 -0.51975376004E+01  0.71080419969E+01  0.11607390161E+02  0.41800000000E+01 0.  1.
        -11    1    1    2    0    0 -0.59027422476E+00  0.19380885851E+02 -0.12229232769E+02  0.22924251223E+02  0.00000000000E+00 0.  1.
         11    1    1    2    0    0  0.76191411904E+01 -0.61045645081E+02 -0.32284446971E+03  0.32865357707E+03  0.00000000000E+00 0. -1.
</event>
<event>
 7    1  0.1068210E-005  0.1116226E+03  0.7561462E-02  0.1257594E+00
         -1   -1    0    0    0  501 -0.00000000000E+00  0.00000000000E+00  0.20360702291E+02  0.20360702291E+02  0.00000000000E+00 0.  1.
          1   -1    0    0  501    0  0.00000000000E+00 -0.00000000000E+00 -0.98451924419E+03  0.98451924419E+03  0.00000000000E+00 0. -1.
         23    2    1    2    0    0 -0.87743371188E+02  0.14169687992E+02 -0.47063237045E+03  0.49501728813E+03  0.12509040006E+03 0.  0.
          5    1    3    3  502    0 -0.65015561242E+02  0.25665089925E+02 -0.92548752668E+02  0.11605371198E+03  0.41800000000E+01 0.  1.
         -5    1    3    3    0  502 -0.22727809946E+02 -0.11495401934E+02 -0.37808361778E+03  0.37896357615E+03  0.41800000000E+01 0.  1.
        -11    1    1    2    0    0  0.23718120841E+02 -0.49063504926E+02 -0.18666263491E+03  0.19445492034E+03  0.00000000000E+00 0.  1.
         11    1    1    2    0    0  0.64025250347E+02  0.34893816935E+02 -0.30686353654E+03  0.31540773802E+03  0.00000000000E+00 0. -1.
</event>
<event>
 7    1  0.1068210E-005  0.7671830E+02  0.7561462E-02  0.1338631E+00
          1   -1    0    0  501    0  0.00000000000E+00  0.00000000000E+00  0.18742580034E+03  0.18742580034E+03  0.00000000000E+00 0. -1.
         -1   -1    0    0    0  501 -0.00000000000E+00 -0.00000000000E+00 -0.54864399643E+02  0.54864399643E+02  0.00000000000E+00 0.  1.
         23    2    1    2    0    0  0.11158928519E+01  0.52188902829E+01  0.75276088492E+02  0.14608917167E+03  0.12508826703E+03 0.  0.
          5    1    3    3  502    0  0.26624720444E+02 -0.41458730298E+02 -0.49971394982E+01  0.49700561967E+02  0.41800000000E+01 0. -1.
         -5    1    3    3    0  502 -0.25508827592E+02  0.46677620581E+02  0.80273227990E+02  0.96388609702E+02  0.41800000000E+01 0. -1.
        -11    1    1    2    0    0  0.20386890380E+02 -0.16610447343E+02 -0.72102977761E+01  0.27267575146E+02  0.00000000000E+00 0.  1.
         11    1    1    2    0    0 -0.21502783232E+02  0.11391557060E+02  0.64495609984E+02  0.68933453172E+02  0.00000000000E+00 0. -1.
</event>
<event>
 7    1  0.1068210E-005  0.8775109E+02  0.7561462E-02  0.1308391E+00
         -2   -1    0    0    0  501 -0.00000000000E+00  0.00000000000E+00  0.52005865710E+02  0.52005865710E+02  0.00000000000E+00 0.  1.
          2   -1    0    0  501    0  0.00000000000E+00 -0.00000000000E+00 -0.32907820021E+03  0.32907820021E+03  0.00000000000E+00 0. -1.
         23    2    1    2    0    0  0.70476764523E+02  0.21649303259E+02 -0.14167439609E+03  0.20286958155E+03  0.12509502765E+03 0.  0.
          5    1    3    3  502    0 -0.77948380918E-01 -0.70316847678E+01 -0.12439123727E+03  0.12465994937E+03  0.41800000000E+01 0.  1.
         -5    1    3    3    0  502  0.70554712904E+02  0.28680988026E+02 -0.17283158813E+02  0.78209632180E+02  0.41800000000E+01 0.  1.
        -11    1    1    2    0    0 -0.47324156832E+02  0.13268642155E+02 -0.16013600642E+02  0.51692050550E+02  0.00000000000E+00 0.  1.
         11    1    1    2    0    0 -0.23152607691E+02 -0.34917945413E+02 -0.11938433777E+03  0.12652243382E+03  0.00000000000E+00 0. -1.
</event>
<event>
 7    1  0.1068210E-005  0.9873721E+02  0.7561462E-02  0.1282974E+00
          1   -1    0    0  501    0  0.00000000000E+00  0.00000000000E+00  0.29177995806E+03  0.29177995806E+03  0.00000000000E+00 0. -1.
         -1   -1    0    0    0  501 -0.00000000000E+00 -0.00000000000E+00 -0.50452189938E+02  0.50452189938E+02  0.00000000000E+00 0.  1.
         23    2    1    2    0    0  0.16492459966E+02  0.27213422066E+02  0.72011825452E+02  0.14780212218E+03  0.12508873946E+03 0.  0.
          5    1    3    3  502    0 -0.49233959046E+02  0.23389580921E+02  0.68826009278E+01  0.55098981973E+02  0.41800000000E+01 0. -1.
         -5    1    3    3    0  502  0.65726419012E+02  0.38238411449E+01  0.65129224524E+02  0.92703140208E+02  0.41800000000E+01 0. -1.
        -11    1    1    2    0    0 -0.40559004012E+02 -0.67859974332E-01  0.29946922121E+02  0.50416818186E+02  0.00000000000E+00 0.  1.
         11    1    1    2    0    0  0.24066544046E+02 -0.27145562091E+02  0.13936902055E+03  0.14401320763E+03  0.00000000000E+00 0. -1.
</event>
<event>
 7    1  0.1068210E-005  0.8161075E+02  0.7561462E-02  0.1324542E+00
          4   -1    0    0  501    0  0.00000000000E+00  0.00000000000E+00  0.14990870615E+02  0.14990870615E+02  0.00000000000E+00 0. -1.
         -4   -1    0    0    0  501 -0.00000000000E+00 -0.00000000000E+00 -0.85108072809E+03  0.85108072809E+03  0.00000000000E+00 0.  1.
         23    2    1    2    0    0  0.31623538944E+02  0.76508107068E+01 -0.52498225111E+03  0.54065842574E+03  0.12508631506E+03 0.  0.
          5    1    3    3  502    0  0.53480827948E+02  0.17654601220E+02 -0.98978601792E+02  0.11395665805E+03  0.41800000000E+01 0. -1.
         -5    1    3    3    0  502 -0.21857289004E+02 -0.10003790513E+02 -0.42600364932E+03  0.42670176768E+03  0.41800000000E+01 0. -1.
        -11    1    1    2    0    0 -0.30310436360E+02  0.31186354335E+02 -0.79956189263E+02  0.91018149017E+02  0.00000000000E+00 0. -1.
         11    1    1    2    0    0 -0.13131025843E+01 -0.38837165042E+02 -0.23115141710E+03  0.23439502395E+03  0.00000000000E+00 0.  1.
</event>
<event>
 7    1  0.1068210E-005  0.9888544E+02  0.7561462E-02  0.1282657E+00
         -4   -1    0    0    0  501 -0.00000000000E+00  0.00000000000E+00  0.15966378493E+03  0.15966378493E+03  0.00000000000E+00 0. -1.
          4   -1    0    0  501    0  0.00000000000E+00 -0.00000000000E+00 -0.83073777650E+02  0.83073777650E+02  0.00000000000E+00 0.  1.
         23    2    1    2    0    0 -0.20102448289E+02 -0.31269046484E+02  0.57173872119E+02  0.14247316183E+03  0.12509152047E+03 0.  0.
          5    1    3    3  502    0 -0.35094472301E+02  0.41888152123E+02  0.15996396788E+02  0.57092875077E+02  0.41800000000E+01 0. -1.
         -5    1    3    3    0  502  0.14992024012E+02 -0.73157198607E+02  0.41177475331E+02  0.85380286757E+02  0.41800000000E+01 0. -1.
        -11    1    1    2    0    0  0.11653035202E+02 -0.16199644896E+02 -0.26842275342E+02  0.33447413498E+02  0.00000000000E+00 0.  1.
         11    1    1    2    0    0  0.84494130873E+01  0.47468691380E+02  0.46258410507E+02  0.66816987252E+02  0.00000000000E+00 0. -1.
</event>
<event>
 7    1  0.1068210E-005  0.7585463E+02  0.7561462E-02  0.1341245E+00
          1   -1    0    0  501    0  0.00000000000E+00  0.00000000000E+00  0.25182949550E+03  0.25182949550E+03  0.00000000000E+00 0. -1.
         -1   -1    0    0    0  501 -0.00000000000E+00 -0.00000000000E+00 -0.52412944921E+02  0.52412944921E+02  0.00000000000E+00 0.  1.
         23    2    1    2    0    0 -0.31449026949E+02  0.15438667437E+02  0.92005172838E+02  0.15918814196E+03  0.12509404048E+03 0.  0.
          5    1    3    3  502    0 -0.25401802992E+02 -0.10134917527E+02 -0.26152748018E+02  0.38071075338E+02  0.41800000000E+01 0.  1.
         -5    1    3    3    0  502 -0.60472239575E+01  0.25573584964E+02  0.11815792086E+03  0.12111706662E+03  0.41800000000E+01 0.  1.
        -11    1    1    2    0    0  0.61770495008E+02  0.31793498670E+01  0.65875274476E+02  0.90361795613E+02  0.00000000000E+00 0. -1.
         11    1    1    2    0    0 -0.30321468059E+02 -0.18618017303E+02  0.41536103262E+02  0.54692502848E+02  0.00000000000E+00 0.  1.
</event>
<event>
 7    1  0.1068210E-005  0.1388577E+03  0.7561462E-02  0.1214874E+00
         -2   -1    0    0    0  501 -0.00000000000E+00  0.00000000000E+00  0.36503387301E+03  0.36503387301E+03  0.00000000000E+00 0.  1.
          2   -1    0    0  501    0  0.00000000000E+00 -0.00000000000E+00 -0.82222993324E+02  0.82222993324E+02  0.00000000000E+00 0. -1.
         23    2    1    2    0    0  0.46085797070E+02  0.10214868134E+03  0.24525416158E+03  0.29724614478E+03  0.12508961998E+03 0.  0.
          5    1    3    3  502    0  0.20945256270E+02  0.11497256307E+03  0.24169050962E+03  0.26849426224E+03  0.41800000000E+01 0.  1.
         -5    1    3    3    0  502  0.25140540801E+02 -0.12823881728E+02  0.35636519605E+01  0.28751882540E+02  0.41800000000E+01 0.  1.
        -11    1    1    2    0    0  0.17597365606E+02 -0.37885707228E+02  0.42252990472E+02  0.59416405919E+02  0.00000000000E+00 0.  1.
         11    1    1    2    0    0 -0.63683162676E+02 -0.64262974110E+02 -0.46962723680E+01  0.90594315627E+02  0.00000000000E+00 0. -1.
</event>
<event>
 7    1  0.1068210E-005  0.1509320E+03  0.7561462E-02  0.1199332E+00
          2   -1    0    0  501    0  0.00000000000E+00  0.00000000000E+00  0.80473781283E+03  0.80473781283E+03  0.00000000000E+00 0.  1.
         -2   -1    0    0    0  501 -0.00000000000E+00 -0.00000000000E+00 -0.33351740061E+02  0.33351740061E+02  0.00000000000E+00 0. -1.
         23    2    1    2    0    0 -0.21462788902E+02 -0.11506562637E+03  0.32000615636E+03  0.36297635532E+03  0.12508854758E+03 0.  0.
          5    1    3    3  502    0  0.24324580834E+02  0.81855664708E+01  0.13208236461E+02  0.29165367160E+02  0.41800000000E+01 0. -1.
         -5    1    3    3    0  502 -0.45787369736E+02 -0.12325119284E+03  0.30679791989E+03  0.33381098816E+03  0.41800000000E+01 0. -1.
        -11    1    1    2    0    0 -0.32680018704E+02  0.48963781139E+02  0.24005812198E+03  0.24717066455E+03  0.00000000000E+00 0.  1.
         11    1    1    2    0    0  0.54142807606E+02  0.66101845229E+02  0.21132179444E+03  0.22794253302E+03  0.00000000000E+00 0. -1.
</event>
<event>
 7    1  0.1068210E-005  0.1501062E+03  0.7561462E-02  0.1200343E+00
          2   -1    0    0  501    0  0.00000000000E+00  0.00000000000E+00  0.49699247282E+03  0.49699247282E+03  0.00000000000E+00 0. -1.
         -2   -1    0    0    0  501 -0.00000000000E+00 -0.00000000000E+00 -0.48141468405E+02  0.48141468405E+02  0.00000000000E+00 0.  1.
         23    2    1    2    0    0  0.45963284527E+02 -0.10002201422E+03  0.25193876387E+03  0.30205444360E+03  0.12508684704E+03 0.  0.
          5    1    3    3  502    0 -0.40683755451E+01  0.23609357562E+02  0.11126063512E+02  0.26743506377E+02  0.41800000000E+01 0. -1.
         -5    1    3    3    0  502  0.50031660072E+02 -0.12363137178E+03  0.24081270036E+03  0.27531093722E+03  0.41800000000E+01 0. -1.
        -11    1    1    2    0    0 -0.18727060241E+02 -0.15162413255E+02  0.36184593245E+02  0.43473283167E+02  0.00000000000E+00 0.  1.
         11    1    1    2    0    0 -0.27236224286E+02  0.11518442747E+03  0.16072764730E+03  0.19960621446E+03  0.00000000000E+00 0. -1.
</event>
<event>
 7    1  0.1068210E-005  0.1217896E+03  0.7561462E-02  0.1240174E+00
         -2   -1    0    0    0  501 -0.00000000000E+00  0.00000000000E+00  0.51572005793E+02  0.51572005793E+02  0.00000000000E+00 0. -1.
          2   -1    0    0  501    0  0.00000000000E+00 -0.00000000000E+00 -0.42336460425E+03  0.42336460425E+03  0.00000000000E+00 0.  1.
         23    2    1    2    0    0 -0.10017548551E+03  0.76376174008E+01 -0.19799839001E+03  0.25484170711E+03  0.12508985626E+03 0.  0.
          5    1    3    3  502    0 -0.57796143652E+02  0.48938769817E+02 -0.17586504881E+03  0.19152385023E+03  0.41800000000E+01 0.  1.
         -5    1    3    3    0  502 -0.42379341862E+02 -0.41301152417E+02 -0.22133341200E+02  0.63317856883E+02  0.41800000000E+01 0.  1.
        -11    1    1    2    0    0  0.61445349096E+02 -0.24521588113E+02 -0.16383264941E+03  0.17668609516E+03  0.00000000000E+00 0.  1.
         11    1    1    2    0    0  0.38730136418E+02  0.16883970712E+02 -0.99615590326E+01  0.43408807774E+02  0.00000000000E+00 0. -1.
</event>
<event>
 7    1  0.1068210E-005  0.8919773E+02  0.7561462E-02  0.1304806E+00
         -1   -1    0    0    0  501 -0.00000000000E+00  0.00000000000E+00  0.81172853771E+02  0.81172853771E+02  0.00000000000E+00 0.  1.
          1   -1    0    0  501    0  0.00000000000E+00 -0.00000000000E+00 -0.16135836048E+03  0.16135836048E+03  0.00000000000E+00 0. -1.
         23    2    1    2    0    0 -0.24728265068E+02  0.30924306267E+02 -0.45398903295E+02  0.13883866675E+03  0.12508922876E+03 0.  0.
          5    1    3    3  502    0  0.32433887380E+02 -0.10170568462E+02 -0.57845975761E+02  0.67223707314E+02  0.41800000000E+01 0.  1.
         -5    1    3    3    0  502 -0.57162152447E+02  0.41094874729E+02  0.12447072466E+02  0.71614959432E+02  0.41800000000E+01 0.  1.
        -11    1    1    2    0    0 -0.12426758935E+02 -0.34138103909E+02 -0.51336976896E+02  0.62891332256E+02  0.00000000000E+00 0. -1.
         11    1    1    2    0    0  0.37155024003E+02  0.32137976416E+01  0.16550373478E+02  0.40801215254E+02  0.00000000000E+00 0.  1.
</event>
<event>
 7    1  0.1068210E-005  0.1183227E+03  0.7561462E-02  0.1245890E+00
         -1   -1    0    0    0  501 -0.00000000000E+00  0.00000000000E+00  0.17276729308E+02  0.17276729308E+02  0.00000000000E+00 0.  1.
          1   -1    0    0  501    0  0.00000000000E+00 -0.00000000000E+00 -0.96201570254E+03  0.96201570254E+03  0.00000000000E+00 0. -1.
         23    2    1    2    0    0  0.57775465458E+02 -0.15445149288E+02 -0.39006475183E+03  0.41397374321E+03  0.12508873812E+03 0.  0.
          5    1    3    3  502    0  0.64463826346E+02 -0.56432489948E+02 -0.32906314355E+03  0.34005916496E+03  0.41800000000E+01 0.  1.
         -5    1    3    3    0  502 -0.66883608884E+01  0.40987340661E+02 -0.61001608273E+02  0.73914578249E+02  0.41800000000E+01 0.  1.
        -11    1    1    2    0    0 -0.50188105588E+01  0.47257437272E+02 -0.25068716545E+03  0.25515193270E+03  0.00000000000E+00 0. -1.
         11    1    1    2    0    0 -0.52756654899E+02 -0.31812287985E+02 -0.30398705595E+03  0.31016675594E+03  0.00000000000E+00 0.  1.
</event>
<event>
 7    1  0.1068210E-005  0.1133212E+03  0.7561462E-02  0.1254540E+00
          2   -1    0    0  501    0  0.00000000000E+00  0.00000000000E+00  0.20756302264E+03  0.20756302264E+03  0.00000000000E+00 0. -1.
         -2   -1    0    0    0  501 -0.00000000000E+00 -0.00000000000E+00 -0.99150322235E+02  0.99150322235E+02  0.00000000000E+00 0.  1.
         23    2    1    2    0    0 -0.70639787425E+02 -0.19048635222E+02 -0.34337668789E+01  0.14495123412E+03  0.12508492893E+03 0.  0.
          5    1    3    3  502    0 -0.10171828595E+03 -0.36892058454E+02 -0.80312314401E+01  0.10857995557E+03  0.41800000000E+01 0.  1.
         -5    1    3    3    0  502  0.31078498521E+02  0.17843423232E+02  0.45974645612E+01  0.36371278550E+02  0.41800000000E+01 0.  1.
        -11    1    1    2    0    0  0.10218237399E+02  0.19322758556E+02 -0.11288763004E+02  0.24601169564E+02  0.00000000000E+00 0.  1.
         11    1    1    2    0    0  0.60421550025E+02 -0.27412333328E+00  0.12313523028E+03  0.13716094119E+03  0.00000000000E+00 0. -1.
</event>
<event>
 7    1  0.1068210E-005  0.1026918E+03  0.7561462E-02  0.1274735E+00
          2   -1    0    0  501    0  0.00000000000E+00  0.00000000000E+00  0.52580291023E+03  0.52580291023E+03  0.00000000000E+00 0. -1.
         -2   -1    0    0    0  501 -0.00000000000E+00 -0.00000000000E+00 -0.21223692810E+02  0.21223692810E+02  0.00000000000E+00 0.  1.
         23    2    1    2    0    0 -0.27827548644E+01 -0.12271568281E+02  0.27767471556E+03  0.30480952959E+03  0.12508903451E+03 0.  0.
          5    1    3    3  502    0  0.11928511490E+01  0.54355333958E+02  0.16506583772E+03  0.17383937530E+03  0.41800000000E+01 0. -1.
         -5    1    3    3    0  502 -0.39756060135E+01 -0.66626902240E+02  0.11260887784E+03  0.13097015428E+03  0.41800000000E+01 0. -1.
        -11    1    1    2    0    0 -0.12646615006E+02  0.45562967749E+02  0.11127159121E+03  0.12090197646E+03  0.00000000000E+00 0.  1.
         11    1    1    2    0    0  0.15429369871E+02 -0.33291399467E+02  0.11563291065E+03  0.12131509699E+03  0.00000000000E+00 0. -1.
</event>
<event>
 7    1  0.1068210E-005  0.1235056E+03  0.7561462E-02  0.1237423E+00
         -1   -1    0    0    0  501 -0.00000000000E+00  0.00000000000E+00  0.26255220007E+03  0.26255220007E+03  0.00000000000E+00 0.  1.
          1   -1    0    0  501    0  0.00000000000E+00 -0.00000000000E+00 -0.99755944922E+02  0.99755944922E+02  0.00000000000E+00 0. -1.
         23    2    1    2    0    0  0.98025002153E+02  0.64777383768E+02  0.10313491454E+03  0.20022335071E+03  0.12509024373E+03 0.  0.
          5    1    3    3  502    0  0.20542423978E+02  0.29379003994E+02 -0.26691012874E+02  0.44888747218E+02  0.41800000000E+01 0. -1.
         -5    1    3    3    0  502  0.77482578175E+02  0.35398379774E+02  0.12982592742E+03  0.15533460349E+03  0.41800000000E+01 0. -1.
        -11    1    1    2    0    0 -0.58193882148E+02 -0.62994913988E+02  0.80039310036E+02  0.11730804857E+03  0.00000000000E+00 0.  1.
         11    1    1    2    0    0 -0.39831120005E+02 -0.17824697791E+01 -0.20377969428E+02  0.44776745721E+02  0.00000000000E+00 0. -1.
</event>
<event>
 7    1  0.1068210E-005  0.9784917E+02  0.7561462E-02  0.1284885E+00
         -2   -1    0    0    0  501 -0.00000000000E+00  0.00000000000E+00  0.11263109959E+03  0.11263109959E+03  0.00000000000E+00 0.  1.
          2   -1    0    0  501    0  0.00000000000E+00 -0.00000000000E+00 -0.11641567741E+03  0.11641567741E+03  0.00000000000E+00 0. -1.
         23    2    1    2    0    0 -0.23265366615E+02  0.20903360820E+02  0.17727450891E+02  0.13015210697E+03  0.12508829145E+03 0.  0.
          5    1    3    3  502    0  0.25473514292E+02  0.39563459885E+02 -0.32705325112E+02  0.57456748769E+02  0.41800000000E+01 0. -1.
         -5    1    3    3    0  502 -0.48738880906E+02 -0.18660099065E+02  0.50432776003E+02  0.72695358205E+02  0.41800000000E+01 0. -1.
        -11    1    1    2    0    0 -0.32139504358E+02 -0.24748488900E+02 -0.45184855803E+01  0.40814852139E+02  0.00000000000E+00 0.  1.
         11    1    1    2    0    0  0.55404870972E+02  0.38451280802E+01 -0.16993543137E+02  0.58079817887E+02  0.00000000000E+00 0. -1.
</event>
<event>
 7    1  0.1068210E-005  0.8400335E+02  0.7561462E-02  0.1318060E+00
          1   -1    0    0  501    0  0.00000000000E+00  0.00000000000E+00  0.92717086466E+02  0.92717086466E+02  0.00000000000E+00 0. -1.
         -1   -1    0    0    0  501 -0.00000000000E+00 -0.00000000000E+00 -0.18906038183E+03  0.18906038183E+03  0.00000000000E+00 0.  1.
         23    2    1    2    0    0  0.64031267282E+02  0.40528574363E+02 -0.82982211507E+02  0.16815911177E+03  0.12509544723E+03 0.  0.
          5    1    3    3  502    0 -0.18567466781E+01  0.40991273476E+01 -0.92011388349E+02  0.92216150100E+02  0.41800000000E+01 0.  1.
         -5    1    3    3    0  502  0.65888013960E+02  0.36429447016E+02  0.90291768420E+01  0.75942961675E+02  0.41800000000E+01 0.  1.
        -11    1    1    2    0    0 -0.38046266481E+02  0.31980146426E+00 -0.42555509443E+02  0.57084078779E+02  0.00000000000E+00 0.  1.
         11    1    1    2    0    0 -0.25985000801E+02 -0.40848375827E+02  0.29194425587E+02  0.56534277741E+02  0.00000000000E+00 0. -1.
</event>
<event>
 7    1  0.1068210E-005  0.1489109E+03  0.7561462E-02  0.1201818E+00
          1   -1    0    0  501    0  0.00000000000E+00  0.00000000000E+00  0.81795174618E+03  0.81795174618E+03  0.00000000000E+00 0. -1.
         -1   -1    0    0    0  501 -0.00000000000E+00 -0.00000000000E+00 -0.32596661968E+02  0.32596661968E+02  0.00000000000E+00 0.  1.
         23    2    1    2    0    0 -0.44502381315E+02  0.11084914904E+03  0.34317258111E+03  0.38429450919E+03  0.12508738381E+03 0.  0.
          5    1    3    3  502    0 -0.81519640395E+02  0.97927560741E+02  0.29922534645E+03  0.32525150158E+03  0.41800000000E+01 0. -1.
         -5    1    3    3    0  502  0.37017259080E+02  0.12921588300E+02  0.43947234654E+02  0.59043007611E+02  0.41800000000E+01 0. -1.
        -11    1    1    2    0    0 -0.62327492991E+01 -0.55394594887E+02  0.87894815773E+02  0.10408125166E+03  0.00000000000E+00 0.  1.
         11    1    1    2    0    0  0.50735130614E+02 -0.55454554154E+02  0.35428768734E+03  0.36217264730E+03  0.00000000000E+00 0. -1.
</event>
<event>
 7    1  0.1068210E-005  0.1404549E+03  0.7561462E-02  0.1212718E+00
          2   -1    0    0  501    0  0.00000000000E+00  0.00000000000E+00  0.48054756080E+03  0.48054756080E+03  0.00000000000E+00 0. -1.
         -2   -1    0    0    0  501 -0.00000000000E+00 -0.00000000000E+00 -0.59819755725E+02  0.59819755725E+02  0.00000000000E+00 0.  1.
         23    2    1    2    0    0 -0.48251318598E+02  0.11770444499E+03  0.18510096076E+03  0.25708289502E+03  0.12508686230E+03 0.  0.
          5    1    3    3  502    0 -0.32279802000E+02  0.49463778618E+02  0.17671870655E+03  0.18637495717E+03  0.41800000000E+01 0. -1.
         -5    1    3    3    0  502 -0.15971516597E+02  0.68240666374E+02  0.83822542029E+01  0.70707937850E+02  0.41800000000E+01 0. -1.
        -11    1    1    2    0    0  0.11033834223E+02 -0.11349842297E+03  0.20628365319E+03  0.23570444011E+03  0.00000000000E+00 0. -1.
         11    1    1    2    0    0  0.37217484374E+02 -0.42060220230E+01  0.29343191129E+02  0.47579981400E+02  0.00000000000E+00 0.  1.
</event>
<event>
 7    1  0.1068210E-005  0.1288412E+03  0.7561462E-02  0.1229185E+00
         -1   -1    0    0    0  501 -0.00000000000E+00  0.00000000000E+00  0.28022315516E+02  0.28022315516E+02  0.00000000000E+00 0.  1.
          1   -1    0    0  501    0  0.00000000000E+00 -0.00000000000E+00 -0.61428331875E+03  0.61428331875E+03  0.00000000000E+00 0. -1.
         23    2    1    2    0    0  0.67667521482E+02 -0.27022775835E+02 -0.31604445407E+03  0.34762086704E+03  0.12508815441E+03 0.  0.
          5    1    3    3  502    0  0.17794256451E+02  0.48855653510E+02 -0.90631989029E+02  0.10457122108E+03  0.41800000000E+01 0.  1.
         -5    1    3    3    0  502  0.49873265031E+02 -0.75878429345E+02 -0.22541246504E+03  0.24304964596E+03  0.41800000000E+01 0.  1.
        -11    1    1    2    0    0 -0.64533450173E+02  0.56019641886E+02 -0.16940202115E+03  0.18973616218E+03  0.00000000000E+00 0.  1.
         11    1    1    2    0    0 -0.31340713081E+01 -0.28996866051E+02 -0.10081452801E+03  0.10494860505E+03  0.00000000000E+00 0. -1.
</event>
<event>
 7    1  0.1068210E-005  0.9926688E+02  0.7561462E-02  0.1281845E+00
          2   -1    0    0  501    0  0.00000000000E+00  0.00000000000E+00  0.37015207466E+03  0.37015207466E+03  0.00000000000E+00 0. -1.
         -2   -1    0    0    0  501 -0.00000000000E+00 -0.00000000000E+00 -0.38957265313E+02  0.38957265313E+02  0.00000000000E+00 0.  1.
         23    2    1    2    0    0  0.85516723525E+01  0.38088731925E+02  0.12510084478E+03  0.18116742108E+03  0.12509008952E+03 0.  0.
          5    1    3    3  502    0 -0.54485920539E+02  0.23447647463E+02  0.31488922321E+02  0.67286940319E+02  0.41800000000E+01 0.  1.
         -5    1    3    3    0  502  0.63037592892E+02  0.14641084462E+02  0.93611922458E+02  0.11388048076E+03  0.41800000000E+01 0.  1.
        -11    1    1    2    0    0 -0.14475964740E+02  0.14973764302E+02  0.72475341331E+01  0.22052072999E+02  0.00000000000E+00 0.  1.
         11    1    1    2    0    0  0.59242923874E+01 -0.53062496228E+02  0.19884643044E+03  0.20588984590E+03  0.00000000000E+00 0. -1.
</event>
<event>
 7    1  0.1068210E-005  0.1352288E+03  0.7561462E-02  0.1219897E+00
          2   -1    0    0  501    0  0.00000000000E+00  0.00000000000E+00  0.28862937242E+03  0.28862937242E+03  0.00000000000E+00 0. -1.
         -2   -1    0    0    0  501 -0.00000000000E+00 -0.00000000000E+00 -0.92742207033E+02  0.92742207033E+02  0.00000000000E+00 0.  1.
         23    2    1    2    0    0  0.55889493829E+02  0.91221129563E+02  0.38121289997E+02  0.16895550105E+03  0.12509116109E+03 0.  0.
          5    1    3    3  502    0 -0.40268563820E+01  0.10217020955E+03  0.33711531238E+02  0.10774463806E+03  0.41800000000E+01 0.  1.
         -5    1    3    3    0  502  0.59916350211E+02 -0.10949079989E+02  0.44097587593E+01  0.61210862987E+02  0.41800000000E+01 0.  1.
        -11    1    1    2    0    0 -0.20546798999E+02 -0.29568478024E+02 -0.35102734522E+01  0.36177173210E+02  0.00000000000E+00 0.  1.
         11    1    1    2    0    0 -0.35342694830E+02 -0.61652651539E+02  0.16127614884E+03  0.17623890520E+03  0.00000000000E+00 0. -1.
</event>
<event>
 7    1  0.1068210E-005  0.9357834E+02  0.7561462E-02  0.1294410E+00
          2   -1    0    0  501    0  0.00000000000E+00  0.00000000000E+00  0.73426821922E+03  0.73426821922E+03  0.00000000000E+00 0. -1.
         -2   -1    0    0    0  501 -0.00000000000E+00 -0.00000000000E+00 -0.27004875261E+02  0.27004875261E+02  0.00000000000E+00 0.  1.
         23    2    1    2    0    0  0.87849852180E+02  0.11995610092E+02  0.34881444806E+03  0.38102410348E+03  0.12508539911E+03 0.  0.
          5    1    3    3  502    0  0.55246989732E+02 -0.21291120002E+01  0.33957825340E+03  0.34407502899E+03  0.41800000000E+01 0. -1.
         -5    1    3    3    0  502  0.32602862448E+02  0.14124722092E+02  0.92361946570E+01  0.36949074491E+02  0.41800000000E+01 0. -1.
        -11    1    1    2    0    0 -0.18414090568E+02 -0.18615452815E+02  0.15819617736E+02  0.30592059759E+02  0.00000000000E+00 0.  1.
         11    1    1    2    0    0 -0.69435761612E+02  0.66198427236E+01  0.34262927816E+03  0.34965693124E+03  0.00000000000E+00 0. -1.
</event>
<event>
 7    1  0.1068210E-005  0.1243588E+03  0.7561462E-02  0.1236075E+00
         -1   -1    0    0    0  501 -0.00000000000E+00  0.00000000000E+00  0.11793861168E+03  0.11793861168E+03  0.00000000000E+00 0.  1.
          1   -1    0    0  501    0  0.00000000000E+00 -0.00000000000E+00 -0.25351923823E+03  0.25351923823E+03  0.00000000000E+00 0. -1.
         23    2    1    2    0    0 -0.98083765758E+02 -0.57647906678E+02  0.13165656422E+02  0.16959796874E+03  0.12508569160E+03 0.  0.
          5    1    3    3  502    0  0.31879749774E+01 -0.26861674460E+02 -0.42024844447E+02  0.50152494355E+02  0.41800000000E+01 0.  1.
         -5    1    3    3    0  502 -0.10127174074E+03 -0.30786232218E+02  0.55190500869E+02  0.11944547439E+03  0.41800000000E+01 0.  1.
        -11    1    1    2    0    0  0.72199779696E+02  0.31988034556E+02 -0.14514307896E+03  0.16523485078E+03  0.00000000000E+00 0. -1.
         11    1    1    2    0    0  0.25883986063E+02  0.25659872122E+02 -0.36032040132E+01  0.36625030389E+02  0.00000000000E+00 0.  1.
</event>
<event>
 7    1  0.1068210E-005  0.7077128E+02  0.7561462E-02  0.1357490E+00
         -3   -1    0    0    0  501 -0.00000000000E+00  0.00000000000E+00  0.10505426233E+03  0.10505426233E+03  0.00000000000E+00 0.  1.
          3   -1    0    0  501    0  0.00000000000E+00 -0.00000000000E+00 -0.12652138450E+03  0.12652138450E+03  0.00000000000E+00 0. -1.
         23    2    1    2    0    0 -0.26670658597E+02 -0.23037913460E+01  0.14632553814E+02  0.12875992806E+03  0.12509346889E+03 0.  0.
          5    1    3    3  502    0 -0.23953319140E+02  0.32151077364E+02  0.59562390051E+02  0.71920817445E+02  0.41800000000E+01 0. -1.
         -5    1    3    3    0  502 -0.27173394570E+01 -0.34454868710E+02 -0.44929836237E+02  0.56839110617E+02  0.41800000000E+01 0. -1.
        -11    1    1    2    0    0  0.33231238530E+02 -0.22911310070E+02  0.16899231113E+02  0.43758740334E+02  0.00000000000E+00 0.  1.
         11    1    1    2    0    0 -0.65605799336E+01  0.25215101416E+02 -0.52998907091E+02  0.59056978430E+02  0.00000000000E+00 0. -1.
</event>
<event>
 7    1  0.1068210E-005  0.1218483E+03  0.7561462E-02  0.1240079E+00
         -2   -1    0    0    0  501 -0.00000000000E+00  0.00000000000E+00  0.14706515742E+03  0.14706515742E+03  0.00000000000E+00 0.  1.
          2   -1    0    0  501    0  0.00000000000E+00 -0.00000000000E+00 -0.13372754940E+03  0.13372754940E+03  0.00000000000E+00 0. -1.
         23    2    1    2    0    0 -0.11767051579E+02  0.71083876278E+02  0.59172388724E+02  0.15601336907E+03  0.12508964294E+03 0.  0.
          5    1    3    3  502    0  0.17260707759E+02  0.95568491546E+02  0.16254200885E+02  0.98554249300E+02  0.41800000000E+01 0. -1.
         -5    1    3    3    0  502 -0.29027759338E+02 -0.24484615268E+02  0.42918187839E+02  0.57459119767E+02  0.41800000000E+01 0. -1.
        -11    1    1    2    0    0 -0.34918358792E+02 -0.27964038666E+02  0.26952416264E+01  0.44816777736E+02  0.00000000000E+00 0.  1.
         11    1    1    2    0    0  0.46685410372E+02 -0.43119837612E+02 -0.48530022325E+02  0.79962560015E+02  0.00000000000E+00 0. -1.
</event>
<event>
 7    1  0.1068210E-005  0.9301000E+02  0.7561462E-02  0.1295722E+00
         -1   -1    0    0    0  501 -0.00000000000E+00  0.00000000000E+00  0.54968480696E+02  0.54968480696E+02  0.00000000000E+00 0.  1.
          1   -1    0    0  501    0  0.00000000000E+00 -0.00000000000E+00 -0.19571311969E+03  0.19571311969E+03  0.00000000000E+00 0. -1.
         23    2    1    2    0    0  0.53925674040E+01 -0.13179086108E+02 -0.93835751435E+02  0.15058485481E+03  0.11690971798E+03 0.  0.
          5    1    3    3  502    0 -0.24692327276E+02  0.42550694056E+02 -0.62940173482E+02  0.79995065029E+02  0.41800000000E+01 0. -1.
         -5    1    3    3    0  502  0.30084894680E+02 -0.55729780164E+02 -0.30895577952E+02  0.70589789786E+02  0.41800000000E+01 0.  1.
        -11    1    1    2    0    0 -0.26391135129E+02 -0.20547990356E+02  0.59494577874E+01  0.33972164621E+02  0.00000000000E+00 0.  1.
         11    1    1    2    0    0  0.20998567725E+02  0.33727076464E+02 -0.52858345349E+02  0.66124580954E+02  0.00000000000E+00 0. -1.
</event>
<event>
 7    1  0.1068210E-005  0.1358912E+03  0.7561462E-02  0.1218967E+00
          2   -1    0    0  501    0  0.00000000000E+00  0.00000000000E+00  0.90270936171E+03  0.90270936171E+03  0.00000000000E+00 0. -1.
         -2   -1    0    0    0  501 -0.00000000000E+00 -0.00000000000E+00 -0.41714966450E+02  0.41714966450E+02  0.00000000000E+00 0.  1.
         23    2    1    2    0    0  0.44208577224E+02  0.11947095035E+03  0.21370007721E+03  0.27846173935E+03  0.12508201710E+03 0.  0.
          5    1    3    3  502    0  0.23122029763E+02  0.89732620297E+02  0.22221026277E+03  0.24079336512E+03  0.41800000000E+01 0.  1.
         -5    1    3    3    0  502  0.21086547461E+02  0.29738330053E+02 -0.85101855640E+01  0.37668374222E+02  0.41800000000E+01 0.  1.
        -11    1    1    2    0    0  0.13365869714E+02 -0.51723436116E+02  0.12180671638E+03  0.13300690385E+03  0.00000000000E+00 0.  1.
         11    1    1    2    0    0 -0.57574446937E+02 -0.67747514235E+02  0.52548760167E+03  0.53295568496E+03  0.00000000000E+00 0. -1.
</event>
<event>
 7    1  0.1068210E-005  0.1481653E+03  0.7561462E-02  0.1202746E+00
         -2   -1    0    0    0  501 -0.00000000000E+00  0.00000000000E+00  0.73551056656E+02  0.73551056656E+02  0.00000000000E+00 0.  1.
          2   -1    0    0  501    0  0.00000000000E+00 -0.00000000000E+00 -0.55975972475E+03  0.55975972475E+03  0.00000000000E+00 0. -1.
         23    2    1    2    0    0  0.85467580461E+02  0.64223197605E+02 -0.39211267309E+02  0.16480398086E+03  0.11913648561E+03 0.  0.
          5    1    3    3  502    0  0.64532002337E+01 -0.33377056719E+02 -0.11591695790E+02  0.36159528754E+02  0.41800000000E+01 0. -1.
         -5    1    3    3    0  502  0.79014380227E+02  0.97600254324E+02 -0.27619571519E+02  0.12864445211E+03  0.41800000000E+01 0.  1.
        -11    1    1    2    0    0  0.93613681422E+01  0.11680699498E+02 -0.22905981163E+02  0.27363441437E+02  0.00000000000E+00 0.  1.
         11    1    1    2    0    0 -0.94828948603E+02 -0.75903897103E+02 -0.42409141962E+03  0.44114335911E+03  0.00000000000E+00 0. -1.
</event>
<event>
 7    1  0.1068210E-005  0.1167523E+03  0.7561462E-02  0.1248553E+00
          1   -1    0    0  501    0  0.00000000000E+00  0.00000000000E+00  0.49059395352E+02  0.49059395352E+02  0.00000000000E+00 0. -1.
         -1   -1    0    0    0  501 -0.00000000000E+00 -0.00000000000E+00 -0.50978840330E+03  0.50978840330E+03  0.00000000000E+00 0.  1.
         23    2    1    2    0    0  0.38086804082E+01 -0.99067327658E+02 -0.34607447453E+03  0.38110775527E+03  0.12508692076E+03 0.  0.
          5    1    3    3  502    0 -0.40223872642E+02 -0.35158248140E+02 -0.44426498146E+02  0.69607819101E+02  0.41800000000E+01 0.  1.
         -5    1    3    3    0  502  0.44032553050E+02 -0.63909079518E+02 -0.30164797639E+03  0.31149993617E+03  0.41800000000E+01 0.  1.
        -11    1    1    2    0    0 -0.13917311702E+02  0.71304831652E+02 -0.15510951940E+02  0.74287685467E+02  0.00000000000E+00 0.  1.
         11    1    1    2    0    0  0.10108631294E+02  0.27762496006E+02 -0.99143581477E+02  0.10345235792E+03  0.00000000000E+00 0. -1.
</event>
<event>
 7    1  0.1068210E-005  0.1040329E+03  0.7561462E-02  0.1272037E+00
         -1   -1    0    0    0  501 -0.00000000000E+00  0.00000000000E+00  0.26123170801E+02  0.26123170801E+02  0.00000000000E+00 0.  1.
          1   -1    0    0  501    0  0.00000000000E+00 -0.00000000000E+00 -0.58428867680E+03  0.58428867680E+03  0.00000000000E+00 0. -1.
         23    2    1    2    0    0  0.11259362274E+02 -0.25550434612E+02 -0.18493538980E+03  0.22500765074E+03  0.12509095309E+03 0.  0.
          5    1    3    3  502    0 -0.38988228983E+02 -0.49797905713E+02 -0.56477447737E+02  0.84894569411E+02  0.41800000000E+01 0.  1.
         -5    1    3    3    0  502  0.50247591257E+02  0.24247471102E+02 -0.12845794206E+03  0.14011308133E+03  0.41800000000E+01 0.  1.
        -11    1    1    2    0    0 -0.30487285850E+02  0.49430007293E+02 -0.30669614931E+03  0.31214632502E+03  0.00000000000E+00 0. -1.
         11    1    1    2    0    0  0.19227923576E+02 -0.23879572682E+02 -0.66533966897E+02  0.73257871847E+02  0.00000000000E+00 0.  1.
</event>
<event>
 7    1  0.1068210E-005  0.1004340E+03  0.7561462E-02  0.1279386E+00
          1   -1    0    0  501    0  0.00000000000E+00  0.00000000000E+00  0.59938026837E+03  0.59938026837E+03  0.00000000000E+00 0. -1.
         -1   -1    0    0    0  501 -0.00000000000E+00 -0.00000000000E+00 -0.24543510486E+02  0.24543510486E+02  0.00000000000E+00 0.  1.
         23    2    1    2    0    0 -0.35365214282E+02  0.22617597911E+02  0.25588865967E+03  0.28790386686E+03  0.12508947313E+03 0.  0.
          5    1    3    3  502    0 -0.71044280583E+02  0.15934369219E+02  0.23446867596E+03  0.24554882678E+03  0.41800000000E+01 0.  1.
         -5    1    3    3    0  502  0.35679066302E+02  0.66832286919E+01  0.21419983707E+02  0.42355040077E+02  0.41800000000E+01 0.  1.
        -11    1    1    2    0    0 -0.53517556738E+01 -0.44741214521E+02  0.73324410608E+02  0.86063271822E+02  0.00000000000E+00 0.  1.
         11    1    1    2    0    0  0.40716969955E+02  0.22123616610E+02  0.24562368761E+03  0.24995664018E+03  0.00000000000E+00 0. -1.
</event>
<event>
 7    1  0.1212245E-005  0.1127769E+03  0.7561462E-02  0.1255512E+00
          1   -1    0    0  501    0  0.00000000000E+00  0.00000000000E+00  0.55015981532E+03  0.55015981532E+03  0.00000000000E+00 0. -1.
         -1   -1    0    0    0  501 -0.00000000000E+00 -0.00000000000E+00 -0.32234883012E+02  0.32234883012E+02  0.00000000000E+00 0.  1.
         23    2    1    2    0    0  0.77162717154E+02 -0.52934334784E+01  0.28687243360E+03  0.32237521578E+03  0.12509149145E+03 0.  0.
          5    1    3    3  502    0 -0.33747626991E+02 -0.10399294229E+02  0.80213826196E+02  0.87742680384E+02  0.41800000000E+01 0. -1.
         -5    1    3    3    0  502  0.11091034414E+03  0.51058607504E+01  0.20665860740E+03  0.23463253539E+03  0.41800000000E+01 0. -1.
        -11    1    1    2    0    0 -0.14267321894E+02  0.71620439492E+01 -0.41917829833E+01  0.16505223178E+02  0.00000000000E+00 0.  1.
         11    1    1    2    0    0 -0.62895395259E+02 -0.18686104708E+01  0.23524428169E+03  0.24351425937E+03  0.00000000000E+00 0. -1.
</event>
<event>
 7    1  0.1068210E-005  0.1451478E+03  0.7561462E-02  0.1206565E+00
          2   -1    0    0  501    0  0.00000000000E+00  0.00000000000E+00  0.33454804755E+03  0.33454804755E+03  0.00000000000E+00 0. -1.
         -2   -1    0    0    0  501 -0.00000000000E+00 -0.00000000000E+00 -0.69330293723E+02  0.69330293723E+02  0.00000000000E+00 0.  1.
         23    2    1    2    0    0 -0.49416429484E+02  0.94198700181E+02  0.15696962920E+03  0.22716062136E+03  0.12508838790E+03 0.  0.
          5    1    3    3  502    0 -0.51307248243E+02  0.12367568991E+03  0.12193292175E+03  0.18114419616E+03  0.41800000000E+01 0. -1.
         -5    1    3    3    0  502  0.18908187598E+01 -0.29476989730E+02  0.35036707448E+02  0.46016425197E+02  0.41800000000E+01 0. -1.
        -11    1    1    2    0    0 -0.88563847340E+01 -0.56294394437E+02  0.12409659839E+02  0.58322328939E+02  0.00000000000E+00 0.  1.
         11    1    1    2    0    0  0.58272814218E+02 -0.37904305744E+02  0.95838464792E+02  0.11839539098E+03  0.00000000000E+00 0. -1.
</event>
<event>
 7    1  0.1068210E-005  0.9004466E+02  0.7561462E-02  0.1302744E+00
         -2   -1    0    0    0  501 -0.00000000000E+00  0.00000000000E+00  0.50111696840E+02  0.50111696840E+02  0.00000000000E+00 0. -1.
          2   -1    0    0  501    0  0.00000000000E+00 -0.00000000000E+00 -0.23820417562E+03  0.23820417562E+03  0.00000000000E+00 0.  1.
         23    2    1    2    0    0 -0.34880297716E+01  0.47334272595E+02 -0.12749178070E+03  0.18480941380E+03  0.12509062942E+03 0.  0.
          5    1    3    3  502    0  0.45631223856E+02  0.35706719785E+01 -0.10589970689E+03  0.11544340002E+03  0.41800000000E+01 0.  1.
         -5    1    3    3    0  502 -0.49119253628E+02  0.43763600617E+02 -0.21592073812E+02  0.69366013778E+02  0.41800000000E+01 0.  1.
        -11    1    1    2    0    0 -0.15731703201E+02 -0.46368268829E+02 -0.67213992206E+02  0.83157823373E+02  0.00000000000E+00 0.  1.
         11    1    1    2    0    0  0.19219732972E+02 -0.96600376647E+00  0.66132941296E+01  0.20348635287E+02  0.00000000000E+00 0. -1.
</event>
<event>
 7    1  0.1068210E-005  0.1155757E+03  0.7561462E-02  0.1250580E+00
         -4   -1    0    0    0  501 -0.00000000000E+00  0.00000000000E+00  0.11689382607E+03  0.11689382607E+03  0.00000000000E+00 0.  1.
          4   -1    0    0  501    0  0.00000000000E+00 -0.00000000000E+00 -0.16525728630E+03  0.16525728630E+03  0.00000000000E+00 0. -1.
         23    2    1    2    0    0  0.75585783531E+02 -0.21146808804E+02 -0.33648412680E+02  0.15145850979E+03  0.12508823413E+03 0.  0.
          5    1    3    3  502    0  0.77568006397E+02 -0.66331039316E+02 -0.20636820289E+02  0.10421109895E+03  0.41800000000E+01 0.  1.
         -5    1    3    3    0  502 -0.19822228656E+01  0.45184230511E+02 -0.13011592391E+02  0.47247410839E+02  0.41800000000E+01 0.  1.
        -11    1    1    2    0    0 -0.28565624174E+02  0.22777697732E+02 -0.56821571129E+02  0.67553751517E+02  0.00000000000E+00 0. -1.
         11    1    1    2    0    0 -0.47020159358E+02 -0.16308889276E+01  0.42106523578E+02  0.63138851055E+02  0.00000000000E+00 0.  1.
</event>
<event>
 7    1  0.1068210E-005  0.1419576E+03  0.7561462E-02  0.1210719E+00
          2   -1    0    0  501    0  0.00000000000E+00  0.00000000000E+00  0.30917552933E+03  0.30917552933E+03  0.00000000000E+00 0.  1.
         -2   -1    0    0    0  501 -0.00000000000E+00 -0.00000000000E+00 -0.78675594987E+02  0.78675594987E+02  0.00000000000E+00 0. -1.
         23    2    1    2    0    0  0.66652183605E+02 -0.46418472046E+02  0.18904631439E+03  0.24079747478E+03  0.12509087397E+03 0.  0.
          5    1    3    3  502    0  0.63113082479E+02  0.28454000170E+02  0.60994288602E+02  0.92361609707E+02  0.41800000000E+01 0. -1.
         -5    1    3    3    0  502  0.35391011265E+01 -0.74872472216E+02  0.12805202579E+03  0.14843586508E+03  0.41800000000E+01 0. -1.
        -11    1    1    2    0    0 -0.37853611582E+02  0.84002225909E+02  0.37715451955E+02  0.99557647540E+02  0.00000000000E+00 0. -1.
         11    1    1    2    0    0 -0.28798572023E+02 -0.37583753863E+02  0.37381679931E+01  0.47496001989E+02  0.00000000000E+00 0.  1.
</event>
<event>
 7    1  0.1068210E-005  0.8779600E+02  0.7561462E-02  0.1308278E+00
          1   -1    0    0  501    0  0.00000000000E+00  0.00000000000E+00  0.32465983037E+03  0.32465983037E+03  0.00000000000E+00 0. -1.
         -1   -1    0    0    0  501 -0.00000000000E+00 -0.00000000000E+00 -0.36718572062E+02  0.36718572062E+02  0.00000000000E+00 0.  1.
         23    2    1    2    0    0  0.88928421595E+01 -0.25148759035E+01  0.14092552950E+03  0.18866652983E+03  0.12509855063E+03 0.  0.
          5    1    3    3  502    0  0.53822190178E+02  0.30244191830E+02  0.10639144137E+03  0.12307782291E+03  0.41800000000E+01 0. -1.
         -5    1    3    3    0  502 -0.44929348018E+02 -0.32759067734E+02  0.34534088127E+02  0.65588706916E+02  0.41800000000E+01 0. -1.
        -11    1    1    2    0    0  0.24116200483E+02  0.57278445946E+01  0.30483282473E+01  0.24973818982E+02  0.00000000000E+00 0.  1.
         11    1    1    2    0    0 -0.33009042643E+02 -0.32129686911E+01  0.14396740056E+03  0.14773805362E+03  0.00000000000E+00 0. -1.
</event>
<event>
 7    1  0.1068210E-005  0.1090174E+03  0.7561462E-02  0.1262400E+00
         -2   -1    0    0    0  501 -0.00000000000E+00  0.00000000000E+00  0.15598286569E+03  0.15598286569E+03  0.00000000000E+00 0.  1.
          2   -1    0    0  501    0  0.00000000000E+00 -0.00000000000E+00 -0.36280322216E+03  0.36280322216E+03  0.00000000000E+00 0. -1.
         23    2    1    2    0    0  0.30248885779E+02  0.90259319396E+02  0.99142207430E+02  0.18584204885E+03  0.12508537084E+03 0.  0.
          5    1    3    3  502    0  0.22756430232E+02  0.15380678441E+02 -0.27101266633E+02  0.38812001228E+02  0.41800000000E+01 0.  1.
         -5    1    3    3    0  502  0.74924555473E+01  0.74878640955E+02  0.12624347406E+03  0.14703004763E+03  0.41800000000E+01 0.  1.
        -11    1    1    2    0    0 -0.38574512896E+02 -0.96859971610E+02 -0.30493972073E+03  0.32227019786E+03  0.00000000000E+00 0. -1.
         11    1    1    2    0    0  0.83256271170E+01  0.66006522144E+01 -0.10228431676E+01  0.10673841140E+02  0.00000000000E+00 0.  1.
</event>
<event>
 7    1  0.1068210E-005  0.1226227E+03  0.7561462E-02  0.1238832E+00
         -2   -1    0    0    0  501 -0.00000000000E+00  0.00000000000E+00  0.28113520325E+02  0.28113520325E+02  0.00000000000E+00 0. -1.
          2   -1    0    0  501    0  0.00000000000E+00 -0.00000000000E+00 -0.66826817749E+03  0.66826817749E+03  0.00000000000E+00 0.  1.
         23    2    1    2    0    0 -0.18937994141E+02 -0.73075205464E+02 -0.26078742695E+03  0.29892515436E+03  0.12509009783E+03 0.  0.
          5    1    3    3  502    0  0.49170325758E+02 -0.48912302298E+02 -0.16358822684E+03  0.17773214288E+03  0.41800000000E+01 0. -1.
         -5    1    3    3    0  502 -0.68108319899E+02 -0.24162903166E+02 -0.97199200115E+02  0.12119301148E+03  0.41800000000E+01 0. -1.
        -11    1    1    2    0    0 -0.24870274772E+02  0.10513382073E+02 -0.32367595948E+02  0.42151192597E+02  0.00000000000E+00 0. -1.
         11    1    1    2    0    0  0.43808268913E+02  0.62561823391E+02 -0.34699963426E+03  0.35530535086E+03  0.00000000000E+00 0.  1.
</event>
<event>
 7    1  0.1068210E-005  0.1432042E+03  0.7561462E-02  0.1209081E+00
          1   -1    0    0  501    0  0.00000000000E+00  0.00000000000E+00  0.15895304334E+04  0.15895304334E+04  0.00000000000E+00 0. -1.
         -1   -1    0    0    0  501 -0.00000000000E+00 -0.00000000000E+00 -0.13043234892E+02  0.13043234892E+02  0.00000000000E+00 0.  1.
         23    2    1    2    0    0 -0.73902053781E+02 -0.58896214478E+02  0.80954905683E+03  0.82458918192E+03  0.12508943161E+03 0.  0.
          5    1    3    3  502    0  0.29463834546E+02  0.10110190429E+02  0.20361322799E+03  0.20602464054E+03  0.41800000000E+01 0.  1.
         -5    1    3    3    0  502 -0.10336588833E+03 -0.69006404907E+02  0.60593582884E+03  0.61856454138E+03  0.41800000000E+01 0.  1.
        -11    1    1    2    0    0  0.86708628583E+02  0.71701811296E+02  0.66401624264E+03  0.67348133345E+03  0.00000000000E+00 0.  1.
         11    1    1    2    0    0 -0.12806574802E+02 -0.12805596819E+02  0.10292189900E+03  0.10450315288E+03  0.00000000000E+00 0. -1.
</event>
<event>
 7    1  0.1068210E-005  0.2012657E+03  0.7561462E-02  0.1148675E+00
          4   -1    0    0  501    0  0.00000000000E+00  0.00000000000E+00  0.22545682385E+03  0.22545682385E+03  0.00000000000E+00 0. -1.
         -4   -1    0    0    0  501 -0.00000000000E+00 -0.00000000000E+00 -0.19394153233E+03  0.19394153233E+03  0.00000000000E+00 0.  1.
         23    2    1    2    0    0  0.42926178078E+02 -0.17017705114E+03  0.48993240541E+02  0.22102424425E+03  0.12509393842E+03 0.  0.
          5    1    3    3  502    0  0.76915013274E+02 -0.82370821806E+02  0.57139685425E+02  0.12642502760E+03  0.41800000000E+01 0.  1.
         -5    1    3    3    0  502 -0.33988835196E+02 -0.87806229336E+02 -0.81464448840E+01  0.94599216658E+02  0.41800000000E+01 0.  1.
        -11    1    1    2    0    0 -0.58001301372E+02  0.56965189422E+02  0.69036735396E+01  0.81589487528E+02  0.00000000000E+00 0.  1.
         11    1    1    2    0    0  0.15075123294E+02  0.11321186172E+03 -0.24381622562E+02  0.11678462439E+03  0.00000000000E+00 0. -1.
</event>
<event>
 7    1  0.1068210E-005  0.1223783E+03  0.7561462E-02  0.1239224E+00
         -1   -1    0    0    0  501 -0.00000000000E+00  0.00000000000E+00  0.17269369366E+02  0.17269369366E+02  0.00000000000E+00 0.  1.
          1   -1    0    0  501    0  0.00000000000E+00 -0.00000000000E+00 -0.91504896129E+03  0.91504896129E+03  0.00000000000E+00 0. -1.
         23    2    1    2    0    0 -0.53883650353E+02  0.30186206422E+02 -0.49133943409E+03  0.51076224990E+03  0.12509588961E+03 0.  0.
          5    1    3    3  502    0 -0.89247892758E+02  0.39165854210E+02 -0.28640400519E+03  0.30256218714E+03  0.41800000000E+01 0. -1.
         -5    1    3    3    0  502  0.35364242405E+02 -0.89796477882E+01 -0.20493542890E+03  0.20820006276E+03  0.41800000000E+01 0. -1.
        -11    1    1    2    0    0  0.74178077991E+02 -0.43702569887E+02 -0.28622859284E+03  0.29889648581E+03  0.00000000000E+00 0.  1.
         11    1    1    2    0    0 -0.20294427638E+02  0.13516363466E+02 -0.12021156499E+03  0.12265959494E+03  0.00000000000E+00 0. -1.
</event>
<event>
 7    1  0.1068210E-005  0.1045227E+03  0.7561462E-02  0.1271063E+00
         -1   -1    0    0    0  501 -0.00000000000E+00  0.00000000000E+00  0.50654068095E+02  0.50654068095E+02  0.00000000000E+00 0.  1.
          1   -1    0    0  501    0  0.00000000000E+00 -0.00000000000E+00 -0.27446927330E+03  0.27446927330E+03  0.00000000000E+00 0. -1.
         23    2    1    2    0    0  0.12665604869E+02 -0.38047396132E+02 -0.97385345293E+02  0.16352049675E+03  0.12508807090E+03 0.  0.
          5    1    3    3  502    0  0.45307259570E+02 -0.70181917930E+02 -0.75108191452E+02  0.11241424375E+03  0.41800000000E+01 0.  1.
         -5    1    3    3    0  502 -0.32641654701E+02  0.32134521798E+02 -0.22277153842E+02  0.51106253004E+02  0.41800000000E+01 0.  1.
        -11    1    1    2    0    0  0.27555793496E+02  0.24772630397E+02 -0.11007530597E+02  0.38654504288E+02  0.00000000000E+00 0.  1.
         11    1    1    2    0    0 -0.40221398365E+02  0.13274765736E+02 -0.11542232932E+03  0.12294834036E+03  0.00000000000E+00 0. -1.
</event>
<event>
 7    1  0.1068210E-005  0.9675638E+02  0.7561462E-02  0.1287269E+00
         -2   -1    0    0    0  501 -0.00000000000E+00  0.00000000000E+00  0.50602287311E+02  0.50602287311E+02  0.00000000000E+00 0.  1.
          2   -1    0    0  501    0  0.00000000000E+00 -0.00000000000E+00 -0.45868712124E+03  0.45868712124E+03  0.00000000000E+00 0. -1.
         23    2    1    2    0    0  0.45270999551E+02 -0.83194711451E+02 -0.13793105909E+03  0.20894194544E+03  0.12514366181E+03 0.  0.
          5    1    3    3  502    0  0.18032110952E+02 -0.20859395705E+02 -0.13799701467E+03  0.14078678870E+03  0.41800000000E+01 0.  1.
         -5    1    3    3    0  502  0.27238888599E+02 -0.62335315747E+02  0.65955580848E-01  0.68155156749E+02  0.41800000000E+01 0.  1.
        -11    1    1    2    0    0 -0.18527832400E+02  0.13806896746E+02 -0.33180309216E+01  0.23343528020E+02  0.00000000000E+00 0.  1.
         11    1    1    2    0    0 -0.26743167150E+02  0.69387814705E+02 -0.26683574393E+03  0.27700393509E+03  0.00000000000E+00 0. -1.
</event>
<event>
 7    1  0.1068210E-005  0.9099513E+02  0.7561462E-02  0.1300460E+00
          2   -1    0    0  501    0  0.00000000000E+00  0.00000000000E+00  0.94372824128E+02  0.94372824128E+02  0.00000000000E+00 0. -1.
         -2   -1    0    0    0  501 -0.00000000000E+00 -0.00000000000E+00 -0.14721416126E+03  0.14721416126E+03  0.00000000000E+00 0.  1.
         23    2    1    2    0    0  0.37328183207E+02  0.22861094550E+02 -0.28382658435E+02  0.13554122157E+03  0.12509925875E+03 0.  0.
          5    1    3    3  502    0  0.37846054630E+02 -0.23775376848E+02 -0.62965685101E+02  0.77328793445E+02  0.41800000000E+01 0. -1.
         -5    1    3    3    0  502 -0.51787142309E+00  0.46636471399E+02  0.34583026666E+02  0.58212428129E+02  0.41800000000E+01 0. -1.
        -11    1    1    2    0    0  0.15097707036E+02  0.18225645207E+02  0.15575953863E+02  0.28332406175E+02  0.00000000000E+00 0. -1.
         11    1    1    2    0    0 -0.52425890243E+02 -0.41086739757E+02 -0.40034632563E+02  0.77713357642E+02  0.00000000000E+00 0.  1.
</event>
<event>
 7    1  0.1068210E-005  0.1304304E+03  0.7561462E-02  0.1226819E+00
         -2   -1    0    0    0  501 -0.00000000000E+00  0.00000000000E+00  0.81141227036E+02  0.81141227036E+02  0.00000000000E+00 0. -1.
          2   -1    0    0  501    0  0.00000000000E+00 -0.00000000000E+00 -0.26543305888E+03  0.26543305888E+03  0.00000000000E+00 0.  1.
         23    2    1    2    0    0 -0.75002401193E+01 -0.92275132190E+02 -0.58300686257E+02  0.16618654557E+03  0.12509214318E+03 0.  0.
          5    1    3    3  502    0 -0.28486476194E+02  0.17500683650E+02  0.99908823971E+01  0.35143184051E+02  0.41800000000E+01 0. -1.
         -5    1    3    3    0  502  0.20986236075E+02 -0.10977581584E+03 -0.68291568654E+02  0.13104336151E+03  0.41800000000E+01 0. -1.
        -11    1    1    2    0    0  0.34331239439E+02  0.23779420976E+02 -0.98483367763E+01  0.42907861758E+02  0.00000000000E+00 0. -1.
         11    1    1    2    0    0 -0.26830999320E+02  0.68495711214E+02 -0.11614280881E+03  0.13747987859E+03  0.00000000000E+00 0.  1.
</event>
<event>
 7    1  0.1068210E-005  0.1519220E+03  0.7561462E-02  0.1198131E+00
         -2   -1    0    0    0  501 -0.00000000000E+00  0.00000000000E+00  0.33265844233E+02  0.33265844233E+02  0.00000000000E+00 0. -1.
          2   -1    0    0  501    0  0.00000000000E+00 -0.00000000000E+00 -0.10344416228E+04  0.10344416228E+04  0.00000000000E+00 0.  1.
         23    2    1    2    0    0 -0.90630450151E+02  0.89343928624E+02 -0.29773849979E+03  0.34711938564E+03  0.12508971803E+03 0.  0.
          5    1    3    3  502    0 -0.94581658351E+02  0.98613478927E+02 -0.30484949141E+03  0.33409728094E+03  0.41800000000E+01 0.  1.
         -5    1    3    3    0  502  0.39512081993E+01 -0.92695503038E+01  0.71109916169E+01  0.13022104701E+02  0.41800000000E+01 0.  1.
        -11    1    1    2    0    0  0.87923052188E+02 -0.10693143806E+03 -0.62879843386E+03  0.64385733355E+03  0.00000000000E+00 0.  1.
         11    1    1    2    0    0  0.27073979633E+01  0.17587509439E+02 -0.74638844872E+02  0.76730747787E+02  0.00000000000E+00 0. -1.
</event>
<event>
 7    1  0.1068210E-005  0.8357674E+02  0.7561462E-02  0.1319197E+00
          3   -1    0    0  501    0  0.00000000000E+00  0.00000000000E+00  0.11386314032E+03  0.11386314032E+03  0.00000000000E+00 0. -1.
         -3   -1    0    0    0  501 -0.00000000000E+00 -0.00000000000E+00 -0.10724819268E+03  0.10724819268E+03  0.00000000000E+00 0.  1.
         23    2    1    2    0    0 -0.80605768881E+01 -0.17511967605E+02 -0.73368274163E+01  0.12678020980E+03  0.12509096950E+03 0.  0.
          5    1    3    3  502    0  0.49015633294E+02 -0.68419400076E+01  0.29616435129E+02  0.57826897548E+02  0.41800000000E+01 0. -1.
         -5    1    3    3    0  502 -0.57076210182E+02 -0.10670027597E+02 -0.36953262545E+02  0.68953312252E+02  0.41800000000E+01 0. -1.
        -11    1    1    2    0    0  0.31141325437E+02  0.18404270472E+02 -0.28467103794E+02  0.46031242868E+02  0.00000000000E+00 0.  1.
         11    1    1    2    0    0 -0.23080748549E+02 -0.89230286669E+00  0.42418878841E+02  0.48299880333E+02  0.00000000000E+00 0. -1.
</event>
<event>
 7    1  0.1068210E-005  0.1011789E+03  0.7561462E-02  0.1277836E+00
         -1   -1    0    0    0  501 -0.00000000000E+00  0.00000000000E+00  0.25768212034E+03  0.25768212034E+03  0.00000000000E+00 0.  1.
          1   -1    0    0  501    0  0.00000000000E+00 -0.00000000000E+00 -0.11085109060E+03  0.11085109060E+03  0.00000000000E+00 0. -1.
         23    2    1    2    0    0 -0.65366801610E+02  0.27745292592E+02  0.18657811818E+03  0.23558586453E+03  0.12508671141E+03 0.  0.
          5    1    3    3  502    0 -0.36817422863E+02  0.59079327130E+02  0.17928504036E+03  0.19237070364E+03  0.41800000000E+01 0. -1.
         -5    1    3    3    0  502 -0.28549378748E+02 -0.31334034538E+02  0.72930778210E+01  0.43215160898E+02  0.41800000000E+01 0. -1.
        -11    1    1    2    0    0  0.84791621056E+01  0.16103245394E+02  0.28535042791E+02  0.33844635753E+02  0.00000000000E+00 0.  1.
         11    1    1    2    0    0  0.56887639505E+02 -0.43848537986E+02 -0.68282131233E+02  0.99102710647E+02  0.00000000000E+00 0. -1.
</event>
<event>
 7    1  0.1068210E-005  0.2194011E+03  0.7561462E-02  0.1134330E+00
          2   -1    0    0  501    0  0.00000000000E+00  0.00000000000E+00  0.82697188272E+03  0.82697188272E+03  0.00000000000E+00 0. -1.
         -2   -1    0    0    0  501 -0.00000000000E+00 -0.00000000000E+00 -0.64556742629E+02  0.64556742629E+02  0.00000000000E+00 0.  1.
         23    2    1    2    0    0  0.14200503314E+03  0.12889815617E+03  0.26146131877E+03  0.34754832148E+03  0.12509056898E+03 0.  0.
          5    1    3    3  502    0  0.25697297135E+02  0.10471393111E+03  0.10052418215E+03  0.14747183476E+03  0.41800000000E+01 0. -1.
         -5    1    3    3    0  502  0.11630773601E+03  0.24184225059E+02  0.16093713662E+03  0.20007648672E+03  0.41800000000E+01 0. -1.
        -11    1    1    2    0    0 -0.10941995385E+03 -0.38592121916E+02  0.27618446391E+03  0.29956624690E+03  0.00000000000E+00 0. -1.
         11    1    1    2    0    0 -0.32585079292E+02 -0.90306034255E+02  0.22476935741E+03  0.24441405697E+03  0.00000000000E+00 0.  1.
</event>
<event>
 7    1  0.1068210E-005  0.1802618E+03  0.7561462E-02  0.1167550E+00
          1   -1    0    0  501    0  0.00000000000E+00  0.00000000000E+00  0.84341742660E+03  0.84341742660E+03  0.00000000000E+00 0. -1.
         -1   -1    0    0    0  501 -0.00000000000E+00 -0.00000000000E+00 -0.46758292158E+02  0.46758292158E+02  0.00000000000E+00 0.  1.
         23    2    1    2    0    0 -0.35593213947E+02  0.14232799195E+03  0.24885838501E+03  0.31480349734E+03  0.12508641804E+03 0.  0.
          5    1    3    3  502    0  0.21906841381E+02  0.12311549645E+03  0.12510660701E+03  0.17693634642E+03  0.41800000000E+01 0.  1.
         -5    1    3    3    0  502 -0.57500055329E+02  0.19212495500E+02  0.12375177799E+03  0.13786715092E+03  0.41800000000E+01 0.  1.
        -11    1    1    2    0    0 -0.21872563861E+02 -0.10227753839E+03  0.36200916578E+03  0.37681525980E+03  0.00000000000E+00 0. -1.
         11    1    1    2    0    0  0.57465777808E+02 -0.40050453561E+02  0.18579158366E+03  0.19855696162E+03  0.00000000000E+00 0.  1.
</event>
<event>
 7    1  0.1126363E-005  0.9836935E+02  0.7561462E-02  0.1283763E+00
          1   -1    0    0  501    0  0.00000000000E+00  0.00000000000E+00  0.13588564892E+03  0.13588564892E+03  0.00000000000E+00 0. -1.
         -1   -1    0    0    0  501 -0.00000000000E+00 -0.00000000000E+00 -0.10614843236E+03  0.10614843236E+03  0.00000000000E+00 0.  1.
         23    2    1    2    0    0  0.43203058085E+02  0.73487401266E+00 -0.90645722536E+01  0.13265244288E+03  0.12508980719E+03 0.  0.
          5    1    3    3  502    0 -0.41898389243E+02 -0.67942039168E+01 -0.18709809466E+02  0.46574301909E+02  0.41800000000E+01 0. -1.
         -5    1    3    3    0  502  0.85101447328E+02  0.75290779295E+01  0.96452372122E+01  0.86078140969E+02  0.41800000000E+01 0. -1.
        -11    1    1    2    0    0 -0.32930942396E+01  0.22252524938E+02  0.55897750890E+02  0.60254276947E+02  0.00000000000E+00 0. -1.
         11    1    1    2    0    0 -0.39909963846E+02 -0.22987398951E+02 -0.17095962071E+02  0.49127361458E+02  0.00000000000E+00 0.  1.
</event>
<event>
 7    1  0.1068210E-005  0.1133651E+03  0.7561462E-02  0.1254462E+00
          3   -1    0    0  501    0  0.00000000000E+00  0.00000000000E+00  0.13821268195E+02  0.13821268195E+02  0.00000000000E+00 0. -1.
         -3   -1    0    0    0  501 -0.00000000000E+00 -0.00000000000E+00 -0.11240567201E+04  0.11240567201E+04  0.00000000000E+00 0.  1.
         23    2    1    2    0    0  0.60755592666E+01  0.44263411711E+02 -0.79658567433E+03  0.80758359886E+03  0.12508545306E+03 0.  0.
          5    1    3    3  502    0  0.39571965092E+02 -0.24416206616E+02 -0.16832602062E+03  0.17468031711E+03  0.41800000000E+01 0.  1.
         -5    1    3    3    0  502 -0.33496405826E+02  0.68679618327E+02 -0.62825965370E+03  0.63290328175E+03  0.41800000000E+01 0.  1.
        -11    1    1    2    0    0  0.43337445531E+02 -0.13858392811E+02 -0.13544969672E+03  0.14288740175E+03  0.00000000000E+00 0. -1.
         11    1    1    2    0    0 -0.49413004798E+02 -0.30405018900E+02 -0.17820008087E+03  0.18740698770E+03  0.00000000000E+00 0.  1.
</event>
<event>
 7    1  0.1068210E-005  0.1035961E+03  0.7561462E-02  0.1272911E+00
          2   -1    0    0  501    0  0.00000000000E+00  0.00000000000E+00  0.38753643942E+03  0.38753643942E+03  0.00000000000E+00 0. -1.
         -2   -1    0    0    0  501 -0.00000000000E+00 -0.00000000000E+00 -0.89615310097E+02  0.89615310097E+02  0.00000000000E+00 0.  1.
         23    2    1    2    0    0  0.46588192059E+02 -0.75990274246E+02  0.38965189269E+00  0.15360132006E+03  0.12509289459E+03 0.  0.
          5    1    3    3  502    0  0.86926921412E+01 -0.57515486526E+02 -0.57478125278E+02  0.81882851516E+02  0.41800000000E+01 0. -1.
         -5    1    3    3    0  502  0.37895499917E+02 -0.18474787721E+02  0.57867777171E+02  0.71718468542E+02  0.41800000000E+01 0. -1.
        -11    1    1    2    0    0 -0.31468102138E+02  0.25990413076E+01  0.18927365938E+03  0.19188932905E+03  0.00000000000E+00 0. -1.
         11    1    1    2    0    0 -0.15120089921E+02  0.73391232939E+02  0.10825781804E+03  0.13166110040E+03  0.00000000000E+00 0.  1.
</event>
<event>
 7    1  0.1068210E-005  0.9066356E+02  0.7561462E-02  0.1301253E+00
          1   -1    0    0  501    0  0.00000000000E+00  0.00000000000E+00  0.84560063589E+02  0.84560063589E+02  0.00000000000E+00 0. -1.
         -1   -1    0    0    0  501 -0.00000000000E+00 -0.00000000000E+00 -0.16783829638E+03  0.16783829638E+03  0.00000000000E+00 0.  1.
         23    2    1    2    0    0 -0.36019187756E+01 -0.33224615651E+02 -0.87848429563E+02  0.15646407737E+03  0.12508721768E+03 0.  0.
          5    1    3    3  502    0 -0.25783175544E+02 -0.52115569026E+02  0.55301144263E+01  0.58556461997E+02  0.41800000000E+01 0. -1.
         -5    1    3    3    0  502  0.22181256768E+02  0.18890953375E+02 -0.93378543990E+02  0.97907615377E+02  0.41800000000E+01 0. -1.
        -11    1    1    2    0    0  0.21214900564E+02 -0.24988366607E+02 -0.81986956768E+01  0.33789185880E+02  0.00000000000E+00 0. -1.
         11    1    1    2    0    0 -0.17612981789E+02  0.58212982258E+02  0.12768892453E+02  0.62145096712E+02  0.00000000000E+00 0.  1.
</event>
<event>
 7    1  0.1068210E-005  0.9165307E+02  0.7561462E-02  0.1298897E+00
         -1   -1    0    0    0  501 -0.00000000000E+00  0.00000000000E+00  0.36082663875E+03  0.36082663875E+03  0.00000000000E+00 0.  1.
          1   -1    0    0  501    0  0.00000000000E+00 -0.00000000000E+00 -0.54440916827E+02  0.54440916827E+02  0.00000000000E+00 0. -1.
         23    2    1    2    0    0  0.54495471233E+02 -0.74420978952E+01  0.27729896172E+03  0.30937979502E+03  0.12568214744E+03 0.  0.
          5    1    3    3  502    0 -0.13771119267E+02  0.78201000681E+01 -0.60752761756E+01  0.17469375248E+02  0.41800000000E+01 0. -1.
         -5    1    3    3    0  502  0.68266590500E+02 -0.15262197963E+02  0.28337423790E+03  0.29191041977E+03  0.41800000000E+01 0.  1.
        -11    1    1    2    0    0 -0.19350975905E+02 -0.36061059095E+02  0.28656642286E+02  0.49960618477E+02  0.00000000000E+00 0.  1.
         11    1    1    2    0    0 -0.35144495328E+02  0.43503156991E+02  0.43011791294E+00  0.55927142082E+02  0.00000000000E+00 0. -1.
</event>
<event>
 7    1  0.1068210E-005  0.7313850E+02  0.7561462E-02  0.1349734E+00
         -1   -1    0    0    0  501 -0.00000000000E+00  0.00000000000E+00  0.30160674755E+03  0.30160674755E+03  0.00000000000E+00 0.  1.
          1   -1    0    0  501    0  0.00000000000E+00 -0.00000000000E+00 -0.49811626514E+02  0.49811626514E+02  0.00000000000E+00 0. -1.
         23    2    1    2    0    0  0.32502612601E+02 -0.45586318062E+02  0.16251170585E+03  0.21257962615E+03  0.12508201588E+03 0.  0.
          5    1    3    3  502    0  0.12668150797E+02  0.26197007221E+01 -0.19181478971E+02  0.23510559585E+02  0.41800000000E+01 0. -1.
         -5    1    3    3    0  502  0.19834461804E+02 -0.48206018784E+02  0.18169318482E+03  0.18906906657E+03  0.41800000000E+01 0. -1.
        -11    1    1    2    0    0  0.10874982431E+02  0.33700011879E+02  0.86855309613E+02  0.93796592963E+02  0.00000000000E+00 0.  1.
         11    1    1    2    0    0 -0.43377595032E+02  0.11886306183E+02  0.24281055708E+01  0.45042154945E+02  0.00000000000E+00 0. -1.
</event>
<event>
 7    1  0.1068210E-005  0.7687880E+02  0.7561462E-02  0.1338150E+00
         -4   -1    0    0    0  501 -0.00000000000E+00  0.00000000000E+00  0.17118628529E+03  0.17118628529E+03  0.00000000000E+00 0.  1.
          4   -1    0    0  501    0  0.00000000000E+00 -0.00000000000E+00 -0.86173323988E+02  0.86173323988E+02  0.00000000000E+00 0. -1.
         23    2    1    2    0    0 -0.23724568877E+02  0.43747770179E+01  0.98808138024E+02  0.16122159405E+03  0.12508940964E+03 0.  0.
          5    1    3    3  502    0 -0.41980105096E+02  0.17052489093E+02  0.12116074958E+03  0.12942378548E+03  0.41800000000E+01 0.  1.
         -5    1    3    3    0  502  0.18255536218E+02 -0.12677712075E+02 -0.22352611559E+02  0.31797808566E+02  0.41800000000E+01 0.  1.
        -11    1    1    2    0    0  0.46278596066E+02 -0.27092926198E+02  0.12087325976E+02  0.54971252060E+02  0.00000000000E+00 0.  1.
         11    1    1    2    0    0 -0.22554027189E+02  0.22718149181E+02 -0.25882502695E+02  0.41166763176E+02  0.00000000000E+00 0. -1.
</event>
<event>
 7    1  0.1068210E-005  0.1139487E+03  0.7561462E-02  0.1253427E+00
         -1   -1    0    0    0  501 -0.00000000000E+00  0.00000000000E+00  0.18583734697E+03  0.18583734697E+03  0.00000000000E+00 0.  1.
          1   -1    0    0  501    0  0.00000000000E+00 -0.00000000000E+00 -0.12327208029E+03  0.12327208029E+03  0.00000000000E+00 0. -1.
         23    2    1    2    0    0 -0.86381422580E+02 -0.44445376016E+02  0.77190905066E+02  0.17619215145E+03  0.12509235305E+03 0.  0.
          5    1    3    3  502    0 -0.62869722283E+02 -0.18037072149E+02  0.10982521247E+03  0.12789443946E+03  0.41800000000E+01 0.  1.
         -5    1    3    3    0  502 -0.23511700296E+02 -0.26408303867E+02 -0.32634307400E+02  0.48297711989E+02  0.41800000000E+01 0.  1.
        -11    1    1    2    0    0  0.71008236270E+02  0.68202222636E+02 -0.26911332467E+02  0.10206827424E+03  0.00000000000E+00 0. -1.
         11    1    1    2    0    0  0.15373186310E+02 -0.23756846619E+02  0.12285694081E+02  0.30849001567E+02  0.00000000000E+00 0.  1.
</event>
<event>
 6    1  0.1068210E-005  0.1471066E+03  0.7561462E-02  0.1204074E+00
          1   -1    0    0  501    0  0.00000000000E+00  0.00000000000E+00  0.61200934263E+03  0.61200934263E+03  0.00000000000E+00 0. -1.
         -1   -1    0    0    0  501 -0.00000000000E+00 -0.00000000000E+00 -0.44507702474E+02  0.44507702474E+02  0.00000000000E+00 0.  1.
          5    1    1    2  502    0 -0.33197745855E+01 -0.11776248601E+03  0.10593499812E+03  0.15848886472E+03  0.41800000000E+01 0. -1.
         -5    1    1    2    0  502 -0.26336168995E+02  0.61658701760E+02  0.10331753512E+03  0.12323706733E+03  0.41800000000E+01 0.  1.
        -11    1    1    2    0    0 -0.11491576961E+02 -0.19753778446E+02  0.97067445454E+02  0.99721397257E+02  0.00000000000E+00 0. -1.
         11    1    1    2    0    0  0.41147520541E+02  0.75857562694E+02  0.26118166146E+03  0.27506971580E+03  0.00000000000E+00 0.  1.
</event>
<event>
 7    1  0.1068210E-005  0.1168647E+03  0.7561462E-02  0.1248361E+00
         -1   -1    0    0    0  501 -0.00000000000E+00  0.00000000000E+00  0.10113095971E+04  0.10113095971E+04  0.00000000000E+00 0.  1.
          1   -1    0    0  501    0  0.00000000000E+00 -0.00000000000E+00 -0.17603323498E+02  0.17603323498E+02  0.00000000000E+00 0. -1.
         23    2    1    2    0    0  0.27193514363E+01 -0.77074429396E+02  0.58111397539E+03  0.59940562139E+03  0.12508310844E+03 0.  0.
          5    1    3    3  502    0  0.11162465837E+02  0.16754240084E+02  0.14899942098E+02  0.25392634343E+02  0.41800000000E+01 0. -1.
         -5    1    3    3    0  502 -0.84431144005E+01 -0.93828669481E+02  0.56621403329E+03  0.57401298704E+03  0.41800000000E+01 0. -1.
        -11    1    1    2    0    0  0.83993151464E+01 -0.19721131203E+02  0.90321562080E+02  0.92830254160E+02  0.00000000000E+00 0. -1.
         11    1    1    2    0    0 -0.11118666583E+02  0.96795560599E+02  0.32227073615E+03  0.33667704507E+03  0.00000000000E+00 0.  1.
</event>
<event>
 7    1  0.1068210E-005  0.1121090E+03  0.7561462E-02  0.1256713E+00
          4   -1    0    0  501    0  0.00000000000E+00  0.00000000000E+00  0.86036858808E+01  0.86036858808E+01  0.00000000000E+00 0. -1.
         -4   -1    0    0    0  501 -0.00000000000E+00 -0.00000000000E+00 -0.18081422509E+04  0.18081422509E+04  0.00000000000E+00 0.  1.
         23    2    1    2    0    0  0.27571970708E+01  0.34001924483E+02 -0.13778216554E+04  0.13839084857E+04  0.12508576924E+03 0.  0.
          5    1    3    3  502    0  0.41996377857E+02  0.65639498397E+02 -0.74817506797E+03  0.75223376967E+03  0.41800000000E+01 0. -1.
         -5    1    3    3    0  502 -0.39239180786E+02 -0.31637573915E+02 -0.62964658740E+03  0.63167471599E+03  0.41800000000E+01 0. -1.
        -11    1    1    2    0    0  0.29548066663E+02 -0.51118501519E+02 -0.29971461321E+03  0.30547510343E+03  0.00000000000E+00 0.  1.
         11    1    1    2    0    0 -0.32305263733E+02  0.17116577036E+02 -0.12200229642E+03  0.12736234768E+03  0.00000000000E+00 0. -1.
</event>
<event>
 7    1  0.1068210E-005  0.9562574E+02  0.7561462E-02  0.1289773E+00
         -2   -1    0    0    0  501 -0.00000000000E+00  0.00000000000E+00  0.57806620282E+02  0.57806620282E+02  0.00000000000E+00 0.  1.
          2   -1    0    0  501    0  0.00000000000E+00 -0.00000000000E+00 -0.25351255350E+03  0.25351255350E+03  0.00000000000E+00 0. -1.
         23    2    1    2    0    0  0.53844942716E+02 -0.24139946769E+02 -0.87941773551E+02  0.16389329669E+03  0.12508094291E+03 0.  0.
          5    1    3    3  502    0  0.12649312373E+01  0.42911693096E+02 -0.60451187067E+02  0.74261914015E+02  0.41800000000E+01 0. -1.
         -5    1    3    3    0  502  0.52580011479E+02 -0.67051639865E+02 -0.27490586484E+02  0.89631382679E+02  0.41800000000E+01 0. -1.
        -11    1    1    2    0    0 -0.40893219719E+02  0.72637467591E+01 -0.42520896416E+01  0.41750421583E+02  0.00000000000E+00 0.  1.
         11    1    1    2    0    0 -0.12951722997E+02  0.16876200010E+02 -0.10351207002E+03  0.10567545550E+03  0.00000000000E+00 0. -1.
</event>
<event>
 7    1  0.1068210E-005  0.1170223E+03  0.7561462E-02  0.1248092E+00
          2   -1    0    0  501    0  0.00000000000E+00  0.00000000000E+00  0.65397547798E+02  0.65397547798E+02  0.00000000000E+00 0. -1.
         -2   -1    0    0    0  501 -0.00000000000E+00 -0.00000000000E+00 -0.37812053425E+03  0.37812053425E+03  0.00000000000E+00 0.  1.
         23    2    1    2    0    0  0.43068719590E+02  0.57662983423E+02 -0.29072725752E+03  0.32457551640E+03  0.12508794234E+03 0.  0.
          5    1    3    3  502    0  0.74233583547E+01 -0.38365306772E+02 -0.10982719500E+03  0.11664685240E+03  0.41800000000E+01 0.  1.
         -5    1    3    3    0  502  0.35645361236E+02  0.96028290195E+02 -0.18090006251E+03  0.20792866400E+03  0.41800000000E+01 0.  1.
        -11    1    1    2    0    0 -0.50091228491E+02 -0.20031991026E+02 -0.48368825302E+02  0.72456573873E+02  0.00000000000E+00 0.  1.
         11    1    1    2    0    0  0.70225089009E+01 -0.37630992397E+02  0.26373096361E+02  0.46485991779E+02  0.00000000000E+00 0. -1.
</event>
<event>
 7    1  0.1068210E-005  0.1158120E+03  0.7561462E-02  0.1250170E+00
         -1   -1    0    0    0  501 -0.00000000000E+00  0.00000000000E+00  0.18004887973E+03  0.18004887973E+03  0.00000000000E+00 0.  1.
          1   -1    0    0  501    0  0.00000000000E+00 -0.00000000000E+00 -0.98021002350E+02  0.98021002350E+02  0.00000000000E+00 0. -1.
         23    2    1    2    0    0  0.80034899448E+01 -0.61612400969E+02  0.92866786308E+02  0.16772686776E+03  0.12509163987E+03 0.  0.
          5    1    3    3  502    0  0.65740565774E+02 -0.24014992660E+02  0.39489325151E+02  0.80470001004E+02  0.41800000000E+01 0.  1.
         -5    1    3    3    0  502 -0.57737075829E+02 -0.37597408309E+02  0.53377461157E+02  0.87256866758E+02  0.41800000000E+01 0.  1.
        -11    1    1    2    0    0 -0.34895537964E+02  0.54418804373E+02  0.21074597579E+02  0.67994437289E+02  0.00000000000E+00 0.  1.
         11    1    1    2    0    0  0.26892048019E+02  0.71935965954E+01 -0.31913506508E+02  0.42348577028E+02  0.00000000000E+00 0. -1.
</event>
<event>
 7    1  0.1068210E-005  0.1044514E+03  0.7561462E-02  0.1271204E+00
         -1   -1    0    0    0  501 -0.00000000000E+00  0.00000000000E+00  0.13111847647E+02  0.13111847647E+02  0.00000000000E+00 0.  1.
          1   -1    0    0  501    0  0.00000000000E+00 -0.00000000000E+00 -0.10058934369E+04  0.10058934369E+04  0.00000000000E+00 0. -1.
         23    2    1    2    0    0 -0.22531794117E+02 -0.18462119924E+02 -0.69843001748E+03  0.70933958416E+03  0.12045590364E+03 0.  0.
          5    1    3    3  502    0 -0.68346413592E+02 -0.10442560027E+02 -0.28572341886E+03  0.29399936019E+03  0.41800000000E+01 0. -1.
         -5    1    3    3    0  502  0.45814619475E+02 -0.80195598970E+01 -0.41270659862E+03  0.41534022396E+03  0.41800000000E+01 0.  1.
        -11    1    1    2    0    0 -0.26190089500E+02  0.32966343057E+02 -0.17394034708E+03  0.17896352954E+03  0.00000000000E+00 0. -1.
         11    1    1    2    0    0  0.48721883617E+02 -0.14504223133E+02 -0.12041122468E+03  0.13070217083E+03  0.00000000000E+00 0.  1.
</event>
<event>
 7    1  0.1068210E-005  0.1119602E+03  0.7561462E-02  0.1256982E+00
          2   -1    0    0  501    0  0.00000000000E+00  0.00000000000E+00  0.57874805102E+02  0.57874805102E+02  0.00000000000E+00 0. -1.
         -2   -1    0    0    0  501 -0.00000000000E+00 -0.00000000000E+00 -0.32399952359E+03  0.32399952359E+03  0.00000000000E+00 0.  1.
         23    2    1    2    0    0  0.72147228788E+02  0.35699960761E+02 -0.17344438169E+03  0.22849593128E+03  0.12509087598E+03 0.  0.
          5    1    3    3  502    0  0.14002682588E+02  0.53746901850E+02 -0.15506386811E+03  0.16476371011E+03  0.41800000000E+01 0.  1.
         -5    1    3    3    0  502  0.58144546200E+02 -0.18046941090E+02 -0.18380513580E+02  0.63732221168E+02  0.41800000000E+01 0.  1.
        -11    1    1    2    0    0  0.90990372323E+01 -0.23296658538E+02 -0.59869268949E+02  0.64883404211E+02  0.00000000000E+00 0.  1.
         11    1    1    2    0    0 -0.81246266020E+02 -0.12403302223E+02 -0.32811067858E+02  0.88494993204E+02  0.00000000000E+00 0. -1.
</event>
<event>
 7    1  0.1068210E-005  0.1297987E+03  0.7561462E-02  0.1227755E+00
         -2   -1    0    0    0  501 -0.00000000000E+00  0.00000000000E+00  0.53331791218E+02  0.53331791218E+02  0.00000000000E+00 0.  1.
          2   -1    0    0  501    0  0.00000000000E+00 -0.00000000000E+00 -0.37923330506E+03  0.37923330506E+03  0.00000000000E+00 0. -1.
         23    2    1    2    0    0  0.27721112736E+01  0.90513225538E+02 -0.10692053839E+03  0.18783109895E+03  0.12509273202E+03 0.  0.
          5    1    3    3  502    0 -0.60149833477E+02  0.46182205129E+02 -0.65674162533E+02  0.10040600860E+03  0.41800000000E+01 0. -1.
         -5    1    3    3    0  502  0.62921944751E+02  0.44331020409E+02 -0.41246375861E+02  0.87425090354E+02  0.41800000000E+01 0. -1.
        -11    1    1    2    0    0  0.26735840182E+02 -0.42997411656E+02 -0.77235503822E+02  0.92352074205E+02  0.00000000000E+00 0.  1.
         11    1    1    2    0    0 -0.29507951456E+02 -0.47515813882E+02 -0.14174547163E+03  0.15238192312E+03  0.00000000000E+00 0. -1.
</event>
<event>
 7    1  0.1068210E-005  0.1115450E+03  0.7561462E-02  0.1257735E+00
         -1   -1    0    0    0  501 -0.00000000000E+00  0.00000000000E+00  0.16390791380E+02  0.16390791380E+02  0.00000000000E+00 0.  1.
          1   -1    0    0  501    0  0.00000000000E+00 -0.00000000000E+00 -0.84211040064E+03  0.84211040064E+03  0.00000000000E+00 0. -1.
         23    2    1    2    0    0  0.10593385728E+02 -0.37838124258E+02 -0.37446675790E+03  0.39675752507E+03  0.12508891821E+03 0.  0.
          5    1    3    3  502    0  0.49956821162E+02 -0.61461976837E+02 -0.17662042222E+03  0.19361173653E+03  0.41800000000E+01 0. -1.
         -5    1    3    3    0  502 -0.39363435433E+02  0.23623852579E+02 -0.19784633568E+03  0.20314578854E+03  0.41800000000E+01 0. -1.
        -11    1    1    2    0    0 -0.50164393032E+02  0.17079152496E+02 -0.25906594516E+03  0.26443019442E+03  0.00000000000E+00 0. -1.
         11    1    1    2    0    0  0.39571007303E+02  0.20758971762E+02 -0.19218690619E+03  0.19731347253E+03  0.00000000000E+00 0.  1.
</event>
<event>
 7    1  0.1068210E-005  0.9168320E+02  0.7561462E-02  0.1298826E+00
          3   -1    0    0  501    0  0.00000000000E+00  0.00000000000E+00  0.93338078043E+03  0.93338078043E+03  0.00000000000E+00 0. -1.
         -3   -1    0    0    0  501 -0.00000000000E+00 -0.00000000000E+00 -0.16818259107E+02  0.16818259107E+02  0.00000000000E+00 0.  1.
         23    2    1    2    0    0 -0.59930230615E+02 -0.16794888023E+02  0.49726476512E+03  0.51652064143E+03  0.12509046963E+03 0.  0.
          5    1    3    3  502    0 -0.56056892118E+02 -0.10038708754E+01  0.74057194410E+02  0.92980230988E+02  0.41800000000E+01 0.  1.
         -5    1    3    3    0  502 -0.38733384964E+01 -0.15791017148E+02  0.42320757071E+03  0.42354041044E+03  0.41800000000E+01 0.  1.
        -11    1    1    2    0    0  0.39239588790E+02 -0.36249177290E+02  0.18469538814E+03  0.19226579151E+03  0.00000000000E+00 0. -1.
         11    1    1    2    0    0  0.20690641824E+02  0.53044065314E+02  0.23460236806E+03  0.24141260660E+03  0.00000000000E+00 0.  1.
</event>
<event>
 7    1  0.1068210E-005  0.1213648E+03  0.7561462E-02  0.1240862E+00
          2   -1    0    0  501    0  0.00000000000E+00  0.00000000000E+00  0.10492384887E+04  0.10492384887E+04  0.00000000000E+00 0. -1.
         -2   -1    0    0    0  501 -0.00000000000E+00 -0.00000000000E+00 -0.24009651388E+02  0.24009651388E+02  0.00000000000E+00 0.  1.
         23    2    1    2    0    0  0.68585520131E+02 -0.82246577371E+02  0.40192918209E+03  0.43435395226E+03  0.12509122815E+03 0.  0.
          5    1    3    3  502    0  0.62076536284E+02 -0.93041442245E+02  0.17955613090E+03  0.21158469433E+03  0.41800000000E+01 0.  1.
         -5    1    3    3    0  502  0.65089838470E+01  0.10794864874E+02  0.22237305120E+03  0.22276925793E+03  0.41800000000E+01 0.  1.
        -11    1    1    2    0    0  0.75058768473E+01  0.10749889743E+02  0.92859016665E+01  0.16066309050E+02  0.00000000000E+00 0.  1.
         11    1    1    2    0    0 -0.76091396978E+02  0.71496687629E+02  0.61401375353E+03  0.62282787876E+03  0.00000000000E+00 0. -1.
</event>
<event>
 7    1  0.1068210E-005  0.1272615E+03  0.7561462E-02  0.1231577E+00
          2   -1    0    0  501    0  0.00000000000E+00  0.00000000000E+00  0.93852460940E+03  0.93852460940E+03  0.00000000000E+00 0. -1.
         -2   -1    0    0    0  501 -0.00000000000E+00 -0.00000000000E+00 -0.22984058532E+02  0.22984058532E+02  0.00000000000E+00 0.  1.
         23    2    1    2    0    0 -0.92855109365E+02 -0.22559366430E+02  0.41327895122E+03  0.44224677844E+03  0.12510685499E+03 0.  0.
          5    1    3    3  502    0 -0.10709781480E+03 -0.20452013474E+02  0.19498570880E+03  0.22343931128E+03  0.41800000000E+01 0. -1.
         -5    1    3    3    0  502  0.14242705438E+02 -0.21073529560E+01  0.21829324242E+03  0.21880746715E+03  0.41800000000E+01 0. -1.
        -11    1    1    2    0    0  0.50712338108E+02 -0.33133388101E+02  0.19650130869E+03  0.20562666889E+03  0.00000000000E+00 0.  1.
         11    1    1    2    0    0  0.42142771257E+02  0.55692754531E+02  0.30576029096E+03  0.31363522060E+03  0.00000000000E+00 0. -1.
</event>
<event>
 7    1  0.1068210E-005  0.1131481E+03  0.7561462E-02  0.1254849E+00
         -2   -1    0    0    0  501 -0.00000000000E+00  0.00000000000E+00  0.22760606143E+03  0.22760606143E+03  0.00000000000E+00 0.  1.
          2   -1    0    0  501    0  0.00000000000E+00 -0.00000000000E+00 -0.91769312975E+02  0.91769312975E+02  0.00000000000E+00 0. -1.
         23    2    1    2    0    0 -0.16223881712E+02  0.30545268703E+02  0.17164135097E+03  0.21518484585E+03  0.12509011449E+03 0.  0.
          5    1    3    3  502    0  0.34120339754E+01 -0.48207435833E+02  0.64945574625E+02  0.81061698162E+02  0.41800000000E+01 0.  1.
         -5    1    3    3    0  502 -0.19635915688E+02  0.78752704535E+02  0.10669577635E+03  0.13412314769E+03  0.41800000000E+01 0.  1.
        -11    1    1    2    0    0  0.21295492470E+02  0.29430297029E+02 -0.52974507741E+01  0.36711079628E+02  0.00000000000E+00 0.  1.
         11    1    1    2    0    0 -0.50716107576E+01 -0.59975565731E+02 -0.30507151739E+02  0.67479448929E+02  0.00000000000E+00 0. -1.
</event>
<event>
 7    1  0.1068210E-005  0.8631996E+02  0.7561462E-02  0.1312016E+00
         -1   -1    0    0    0  501 -0.00000000000E+00  0.00000000000E+00  0.49043947176E+02  0.49043947176E+02  0.00000000000E+00 0.  1.
          1   -1    0    0  501    0  0.00000000000E+00 -0.00000000000E+00 -0.30345172511E+03  0.30345172511E+03  0.00000000000E+00 0. -1.
         23    2    1    2    0    0  0.53898992444E+02 -0.44971517380E+01 -0.12639821537E+03  0.18587475951E+03  0.12509033381E+03 0.  0.
          5    1    3    3  502    0  0.29095313145E+02  0.24994555309E+02  0.13367149162E+02  0.40834031381E+02  0.41800000000E+01 0.  1.
         -5    1    3    3    0  502  0.24803679299E+02 -0.29491707047E+02 -0.13976536453E+03  0.14504072812E+03  0.41800000000E+01 0.  1.
        -11    1    1    2    0    0 -0.31045901974E+02 -0.36768884702E+02 -0.10193323453E+03  0.11272170693E+03  0.00000000000E+00 0. -1.
         11    1    1    2    0    0 -0.22853090470E+02  0.41266036440E+02 -0.26076328029E+02  0.53899205847E+02  0.00000000000E+00 0.  1.
</event>
<event>
 7    1  0.1068210E-005  0.1439892E+03  0.7561462E-02  0.1208060E+00
          1   -1    0    0  501    0  0.00000000000E+00  0.00000000000E+00  0.43656215177E+03  0.43656215177E+03  0.00000000000E+00 0. -1.
         -1   -1    0    0    0  501 -0.00000000000E+00 -0.00000000000E+00 -0.24534972557E+03  0.24534972557E+03  0.00000000000E+00 0.  1.
         23    2    1    2    0    0 -0.13018239294E+03  0.34178179379E+02 -0.19193341406E+03  0.26570963281E+03  0.12509024805E+03 0.  0.
          5    1    3    3  502    0 -0.11032068897E+02 -0.10478239589E+02  0.15631575713E+02  0.22210776851E+02  0.41800000000E+01 0.  1.
         -5    1    3    3    0  502 -0.11915032404E+03  0.44656418967E+02 -0.20756498977E+03  0.24349885596E+03  0.41800000000E+01 0.  1.
        -11    1    1    2    0    0  0.19052326949E+02  0.14120923349E+02  0.13688887289E+02  0.27382061165E+02  0.00000000000E+00 0.  1.
         11    1    1    2    0    0  0.11113006599E+03 -0.48299102728E+02  0.36945695297E+03  0.38882018336E+03  0.00000000000E+00 0. -1.
</event>
<event>
 7    1  0.1068210E-005  0.1152919E+03  0.7561462E-02  0.1251072E+00
          2   -1    0    0  501    0  0.00000000000E+00  0.00000000000E+00  0.35522707449E+02  0.35522707449E+02  0.00000000000E+00 0. -1.
         -2   -1    0    0    0  501 -0.00000000000E+00 -0.00000000000E+00 -0.55554524336E+03  0.55554524336E+03  0.00000000000E+00 0.  1.
         23    2    1    2    0    0  0.30744567248E+02  0.28355853392E+02 -0.44787352298E+03  0.46689081542E+03  0.12508820129E+03 0.  0.
          5    1    3    3  502    0 -0.44949258216E+02 -0.92546762662E+01 -0.18896876922E+03  0.19450643431E+03  0.41800000000E+01 0.  1.
         -5    1    3    3    0  502  0.75693825464E+02  0.37610529658E+02 -0.25890475376E+03  0.27238438111E+03  0.41800000000E+01 0.  1.
        -11    1    1    2    0    0 -0.61904675137E+02 -0.29754516973E+02 -0.40473648130E+02  0.79722244556E+02  0.00000000000E+00 0.  1.
         11    1    1    2    0    0  0.31160107889E+02  0.13986635809E+01 -0.31675364799E+02  0.44454890829E+02  0.00000000000E+00 0. -1.
</event>
<event>
 7    1  0.1068210E-005  0.1104947E+03  0.7561462E-02  0.1259656E+00
          1   -1    0    0  501    0  0.00000000000E+00  0.00000000000E+00  0.15070482022E+02  0.15070482022E+02  0.00000000000E+00 0. -1.
         -1   -1    0    0    0  501 -0.00000000000E+00 -0.00000000000E+00 -0.12758340941E+04  0.12758340941E+04  0.00000000000E+00 0.  1.
         23    2    1    2    0    0 -0.70395511293E+02  0.48309897960E+02 -0.70813260956E+03  0.72414565886E+03  0.12508304556E+03 0.  0.
          5    1    3    3  502    0 -0.64591863343E+02  0.56211269261E+02 -0.22322070150E+03  0.23911664430E+03  0.41800000000E+01 0. -1.
         -5    1    3    3    0  502 -0.58036479505E+01 -0.79013713015E+01 -0.48491190806E+03  0.48502901457E+03  0.41800000000E+01 0. -1.
        -11    1    1    2    0    0  0.89208132508E+02 -0.21347262375E+02 -0.43826463558E+03  0.44776074785E+03  0.00000000000E+00 0.  1.
         11    1    1    2    0    0 -0.18812621215E+02 -0.26962635584E+02 -0.11436636696E+03  0.11899816943E+03  0.00000000000E+00 0. -1.
</event>
<event>
 7    1  0.1068210E-005  0.1235983E+03  0.7561462E-02  0.1237276E+00
          2   -1    0    0  501    0  0.00000000000E+00  0.00000000000E+00  0.10696762207E+03  0.10696762207E+03  0.00000000000E+00 0. -1.
         -2   -1    0    0    0  501 -0.00000000000E+00 -0.00000000000E+00 -0.16222929787E+03  0.16222929787E+03  0.00000000000E+00 0.  1.
         23    2    1    2    0    0 -0.26220186540E+02 -0.67779493975E+02 -0.62670358081E+02  0.15766447164E+03  0.12509577871E+03 0.  0.
          5    1    3    3  502    0 -0.71575618391E+02 -0.48468083960E+02 -0.64849448722E+02  0.10814410622E+03  0.41800000000E+01 0.  1.
         -5    1    3    3    0  502  0.45355431851E+02 -0.19311410015E+02  0.21790906419E+01  0.49520365419E+02  0.41800000000E+01 0.  1.
        -11    1    1    2    0    0  0.44252171555E+01 -0.20129761057E+02  0.32608038919E+01  0.20866783871E+02  0.00000000000E+00 0. -1.
         11    1    1    2    0    0  0.21794969385E+02  0.87909255032E+02  0.41478783909E+01  0.90665664427E+02  0.00000000000E+00 0.  1.
</event>
<event>
 7    1  0.1068210E-005  0.1220793E+03  0.7561462E-02  0.1239706E+00
         -1   -1    0    0    0  501 -0.00000000000E+00  0.00000000000E+00  0.46990489349E+03  0.46990489349E+03  0.00000000000E+00 0.  1.
          1   -1    0    0  501    0  0.00000000000E+00 -0.00000000000E+00 -0.54507677585E+02  0.54507677585E+02  0.00000000000E+00 0. -1.
         23    2    1    2    0    0 -0.99289793377E+02  0.44824169126E+02  0.29539074599E+03  0.33877760369E+03  0.12508758027E+03 0.  0.
          5    1    3    3  502    0 -0.68788502656E+02  0.38116540486E+02  0.29696445869E+03  0.30722970377E+03  0.41800000000E+01 0. -1.
         -5    1    3    3    0  502 -0.30501290720E+02  0.67076286398E+01 -0.15737126979E+01  0.31547899918E+02  0.41800000000E+01 0. -1.
        -11    1    1    2    0    0  0.41317260948E+02  0.20862460633E+02  0.72385968544E+02  0.85919070980E+02  0.00000000000E+00 0. -1.
         11    1    1    2    0    0  0.57972532428E+02 -0.65686629759E+02  0.47620501373E+02  0.99715896407E+02  0.00000000000E+00 0.  1.
</event>
<event>
 7    1  0.1068210E-005  0.1570725E+03  0.7561462E-02  0.1192042E+00
         -2   -1    0    0    0  501 -0.00000000000E+00  0.00000000000E+00  0.33239641011E+02  0.33239641011E+02  0.00000000000E+00 0.  1.
          2   -1    0    0  501    0  0.00000000000E+00 -0.00000000000E+00 -0.83295936956E+03  0.83295936956E+03  0.00000000000E+00 0. -1.
         23    2    1    2    0    0 -0.11097680538E+03  0.40847773231E+02 -0.31992194628E+03  0.36329201511E+03  0.12508654852E+03 0.  0.
          5    1    3    3  502    0  0.18685835643E+02 -0.18767223014E+02 -0.76838273944E+02  0.81381581799E+02  0.41800000000E+01 0.  1.
         -5    1    3    3    0  502 -0.12966264102E+03  0.59614996244E+02 -0.24308367233E+03  0.28191043331E+03  0.41800000000E+01 0.  1.
        -11    1    1    2    0    0  0.12268347221E+03 -0.25578936432E+02 -0.45233881616E+03  0.46937822803E+03  0.00000000000E+00 0. -1.
         11    1    1    2    0    0 -0.11706666836E+02 -0.15268836798E+02 -0.27458966113E+02  0.33528767433E+02  0.00000000000E+00 0.  1.
</event>
<event>
 6    1  0.1068210E-005  0.1489011E+03  0.7561462E-02  0.1201830E+00
         -1   -1    0    0    0  501 -0.00000000000E+00  0.00000000000E+00  0.22087253134E+02  0.22087253134E+02  0.00000000000E+00 0.  1.
          1   -1    0    0  501    0  0.00000000000E+00 -0.00000000000E+00 -0.10593738446E+04  0.10593738446E+04  0.00000000000E+00 0. -1.
          5    1    1    2  502    0 -0.20065927267E+02 -0.38314382215E+02 -0.22606128056E+03  0.23019949672E+03  0.41800000000E+01 0. -1.
         -5    1    1    2    0  502  0.11872339410E+03  0.57448162582E+01 -0.32367427402E+03  0.34483438819E+03  0.41800000000E+01 0.  1.
        -11    1    1    2    0    0 -0.60846593017E+02  0.62472779667E+02 -0.34894970363E+03  0.35968187575E+03  0.00000000000E+00 0.  1.
         11    1    1    2    0    0 -0.37810873819E+02 -0.29903213710E+02 -0.13860133322E+03  0.14674533702E+03  0.00000000000E+00 0. -1.
</event>
<event>
 7    1  0.1068210E-005  0.8677273E+02  0.7561462E-02  0.1310861E+00
         -2   -1    0    0    0  501 -0.00000000000E+00  0.00000000000E+00  0.16198969213E+03  0.16198969213E+03  0.00000000000E+00 0.  1.
          2   -1    0    0  501    0  0.00000000000E+00 -0.00000000000E+00 -0.91188073573E+02  0.91188073573E+02  0.00000000000E+00 0. -1.
         23    2    1    2    0    0  0.45362306366E+02 -0.21175044385E+02  0.56954980899E+02  0.14627840028E+03  0.12508948476E+03 0.  0.
          5    1    3    3  502    0  0.59545070092E+02 -0.45016863027E+02 -0.83246561176E+01  0.75225697927E+02  0.41800000000E+01 0. -1.
         -5    1    3    3    0  502 -0.14182763726E+02  0.23841818642E+02  0.65279637016E+02  0.71052702356E+02  0.41800000000E+01 0. -1.
        -11    1    1    2    0    0 -0.72399122891E+01  0.30610141047E+02  0.46285488048E+02  0.55961982352E+02  0.00000000000E+00 0. -1.
         11    1    1    2    0    0 -0.38122394077E+02 -0.94350966626E+01 -0.32438850390E+02  0.50937383068E+02  0.00000000000E+00 0.  1.
</event>
<event>
 7    1  0.1068210E-005  0.7833902E+02  0.7561462E-02  0.1333832E+00
         -1   -1    0    0    0  501 -0.00000000000E+00  0.00000000000E+00  0.44698071322E+02  0.44698071322E+02  0.00000000000E+00 0.  1.
          1   -1    0    0  501    0  0.00000000000E+00 -0.00000000000E+00 -0.25930773438E+03  0.25930773438E+03  0.00000000000E+00 0. -1.
         23    2    1    2    0    0 -0.63334009124E+01  0.89415937866E+01 -0.10865862828E+03  0.16606953207E+03  0.12510926391E+03 0.  0.
          5    1    3    3  502    0  0.42975355758E+02  0.12561954643E+02  0.17727722508E+01  0.45003322416E+02  0.41800000000E+01 0.  1.
         -5    1    3    3    0  502 -0.49308756671E+02 -0.36203608567E+01 -0.11043140053E+03  0.12106620965E+03  0.41800000000E+01 0.  1.
        -11    1    1    2    0    0 -0.22750993896E+02  0.12499353668E+02 -0.97406961033E+02  0.10080653562E+03  0.00000000000E+00 0. -1.
         11    1    1    2    0    0  0.29084394809E+02 -0.21440947455E+02 -0.85440737513E+01  0.37129738020E+02  0.00000000000E+00 0.  1.
</event>
<event>
 7    1  0.1068210E-005  0.9974650E+02  0.7561462E-02  0.1280830E+00
          2   -1    0    0  501    0  0.00000000000E+00  0.00000000000E+00  0.17830409811E+03  0.17830409811E+03  0.00000000000E+00 0. -1.
         -2   -1    0    0    0  501 -0.00000000000E+00 -0.00000000000E+00 -0.64592326605E+02  0.64592326605E+02  0.00000000000E+00 0.  1.
         23    2    1    2    0    0 -0.18795577976E+02  0.18097974545E+02  0.59409761735E+02  0.13271726353E+03  0.11577366633E+03 0.  0.
          5    1    3    3  502    0 -0.16486615740E+02  0.59861908670E+02  0.65376659933E+02  0.90259828673E+02  0.41800000000E+01 0. -1.
         -5    1    3    3    0  502 -0.23089622357E+01 -0.41763934125E+02 -0.59668981979E+01  0.42457434853E+02  0.41800000000E+01 0.  1.
        -11    1    1    2    0    0 -0.35167608344E+02 -0.21390669149E+02  0.17211524136E+02  0.44615669516E+02  0.00000000000E+00 0.  1.
         11    1    1    2    0    0  0.53963186320E+02  0.32926946033E+01  0.37090485631E+02  0.65563491669E+02  0.00000000000E+00 0. -1.
</event>
<event>
 7    1  0.1068210E-005  0.1036798E+03  0.7561462E-02  0.1272743E+00
         -2   -1    0    0    0  501 -0.00000000000E+00  0.00000000000E+00  0.28438932737E+02  0.28438932737E+02  0.00000000000E+00 0. -1.
          2   -1    0    0  501    0  0.00000000000E+00 -0.00000000000E+00 -0.53042097839E+03  0.53042097839E+03  0.00000000000E+00 0.  1.
         23    2    1    2    0    0  0.11002867064E+02 -0.56451008918E+02 -0.27537121384E+03  0.30787175862E+03  0.12509170577E+03 0.  0.
          5    1    3    3  502    0  0.51392789356E+02 -0.47971862952E+02 -0.73548158460E+02  0.10182987011E+03  0.41800000000E+01 0.  1.
         -5    1    3    3    0  502 -0.40389922293E+02 -0.84791459659E+01 -0.20182305538E+03  0.20604188852E+03  0.41800000000E+01 0.  1.
        -11    1    1    2    0    0 -0.94126385834E+01 -0.18355179205E+02 -0.12359140422E+02  0.24047010640E+02  0.00000000000E+00 0. -1.
         11    1    1    2    0    0 -0.15902284801E+01  0.74806188123E+02 -0.21425169138E+03  0.22694114186E+03  0.00000000000E+00 0.  1.
</event>
<event>
 7    1  0.1068210E-005  0.5438679E+02  0.7561462E-02  0.1423021E+00
          2   -1    0    0  501    0  0.00000000000E+00  0.00000000000E+00  0.24254739116E+03  0.24254739116E+03  0.00000000000E+00 0.  1.
         -2   -1    0    0    0  501 -0.00000000000E+00 -0.00000000000E+00 -0.49080191128E+02  0.49080191128E+02  0.00000000000E+00 0. -1.
         23    2    1    2    0    0 -0.11776235806E+01  0.33633326116E+02  0.11065796590E+03  0.17036948230E+03  0.12509191684E+03 0.  0.
          5    1    3    3  502    0  0.13635887952E+02  0.81496345427E+01 -0.25863837805E+02  0.30639263853E+02  0.41800000000E+01 0. -1.
         -5    1    3    3    0  502 -0.14813511533E+02  0.25483691574E+02  0.13652180371E+03  0.13973021845E+03  0.41800000000E+01 0. -1.
        -11    1    1    2    0    0 -0.17918892128E+02 -0.38846896778E+02  0.90436085133E+02  0.10004425810E+03  0.00000000000E+00 0.  1.
         11    1    1    2    0    0  0.19096515709E+02  0.52135706619E+01 -0.76268510063E+01  0.21213841885E+02  0.00000000000E+00 0. -1.
</event>
<event>
 7    1  0.1068210E-005  0.9241793E+02  0.7561462E-02  0.1297100E+00
         -2   -1    0    0    0  501 -0.00000000000E+00  0.00000000000E+00  0.30524543778E+02  0.30524543778E+02  0.00000000000E+00 0.  1.
          2   -1    0    0  501    0  0.00000000000E+00 -0.00000000000E+00 -0.45202217278E+03  0.45202217278E+03  0.00000000000E+00 0. -1.
         23    2    1    2    0    0  0.19557168185E+02  0.19488218885E+02 -0.17647748834E+03  0.21806754960E+03  0.12508748457E+03 0.  0.
          5    1    3    3  502    0 -0.25226698813E+02  0.30494032216E+02 -0.16585051430E+03  0.17055831210E+03  0.41800000000E+01 0.  1.
         -5    1    3    3    0  502  0.44783866997E+02 -0.11005813331E+02 -0.10626974038E+02  0.47509237496E+02  0.41800000000E+01 0.  1.
        -11    1    1    2    0    0 -0.33020498714E+02 -0.53098030416E+02 -0.17112327453E+03  0.18218926767E+03  0.00000000000E+00 0. -1.
         11    1    1    2    0    0  0.13463330529E+02  0.33609811531E+02 -0.73896866142E+02  0.82289899293E+02  0.00000000000E+00 0.  1.
</event>
<event>
 7    1  0.1068210E-005  0.2105934E+03  0.7561462E-02  0.1141097E+00
          3   -1    0    0  501    0  0.00000000000E+00  0.00000000000E+00  0.14831645503E+04  0.14831645503E+04  0.00000000000E+00 0. -1.
         -3   -1    0    0    0  501 -0.00000000000E+00 -0.00000000000E+00 -0.43433744281E+02  0.43433744281E+02  0.00000000000E+00 0.  1.
         23    2    1    2    0    0 -0.10292936198E+03 -0.15250815752E+03  0.33274843594E+03  0.40027753059E+03  0.12508952075E+03 0.  0.
          5    1    3    3  502    0 -0.11999522262E+03 -0.15494441678E+03  0.26125502691E+03  0.32661642217E+03  0.41800000000E+01 0.  1.
         -5    1    3    3    0  502  0.17065860636E+02  0.24362592649E+01  0.71493409033E+02  0.73661108420E+02  0.41800000000E+01 0.  1.
        -11    1    1    2    0    0 -0.82057733472E+01  0.66221783603E+02  0.38910416299E+03  0.39478438291E+03  0.00000000000E+00 0.  1.
         11    1    1    2    0    0  0.11113513533E+03  0.86286373914E+02  0.71787820707E+03  0.73153638106E+03  0.00000000000E+00 0. -1.
</event>
<event>
 6    1  0.1068210E-005  0.1189476E+03  0.7561462E-02  0.1244843E+00
         -1   -1    0    0    0  501 -0.00000000000E+00  0.00000000000E+00  0.43912086902E+02  0.43912086902E+02  0.00000000000E+00 0.  1.
          1   -1    0    0  501    0  0.00000000000E+00 -0.00000000000E+00 -0.69846529139E+03  0.69846529139E+03  0.00000000000E+00 0. -1.
          5    1    1    2  502    0  0.24699724428E+02 -0.33361517956E+02 -0.17067257806E+03  0.17569766238E+03  0.41800000000E+01 0. -1.
         -5    1    1    2    0  502  0.60662446056E+02  0.40586667951E+02 -0.72975685697E+01  0.73470653215E+02  0.41800000000E+01 0.  1.
        -11    1    1    2    0    0 -0.81319320458E+02  0.29212309189E+02 -0.27289057718E+03  0.28624370387E+03  0.00000000000E+00 0.  1.
         11    1    1    2    0    0 -0.40428500268E+01 -0.36437459184E+02 -0.20369248068E+03  0.20696535882E+03  0.00000000000E+00 0. -1.
</event>
<event>
 6    1  0.1068210E-005  0.1031051E+03  0.7561462E-02  0.1273899E+00
         -1   -1    0    0    0  501 -0.00000000000E+00  0.00000000000E+00  0.55808298510E+03  0.55808298510E+03  0.00000000000E+00 0.  1.
          1   -1    0    0  501    0  0.00000000000E+00 -0.00000000000E+00 -0.35265080870E+02  0.35265080870E+02  0.00000000000E+00 0. -1.
          5    1    1    2  502    0  0.28183643897E+02  0.73781397347E+02  0.11690734903E+03  0.14114819529E+03  0.41800000000E+01 0. -1.
         -5    1    1    2    0  502 -0.20958127592E+02 -0.56726203308E+02  0.32084652598E+03  0.32652269582E+03  0.41800000000E+01 0.  1.
        -11    1    1    2    0    0  0.13883991828E+02  0.19708013410E+02 -0.63344912447E+01  0.24925825984E+02  0.00000000000E+00 0.  1.
         11    1    1    2    0    0 -0.21109508134E+02 -0.36763207449E+02  0.91398520464E+02  0.10075134887E+03  0.00000000000E+00 0. -1.
</event>
<event>
 7    1  0.1068210E-005  0.1716042E+03  0.7561462E-02  0.1176185E+00
         -1   -1    0    0    0  501 -0.00000000000E+00  0.00000000000E+00  0.16448830566E+03  0.16448830566E+03  0.00000000000E+00 0.  1.
          1   -1    0    0  501    0  0.00000000000E+00 -0.00000000000E+00 -0.27312607926E+03  0.27312607926E+03  0.00000000000E+00 0. -1.
         23    2    1    2    0    0 -0.28908943264E+02 -0.13847974172E+03  0.61806366231E+02  0.19865402901E+03  0.12502411955E+03 0.  0.
          5    1    3    3  502    0 -0.73733971585E+02 -0.80254707010E+02  0.61179557260E+02  0.12505169807E+03  0.41800000000E+01 0.  1.
         -5    1    3    3    0  502  0.44825028321E+02 -0.58225034708E+02  0.62680897111E+00  0.73602330943E+02  0.41800000000E+01 0.  1.
        -11    1    1    2    0    0  0.52848882612E+02  0.68077395454E+02 -0.12493930221E+03  0.15178064897E+03  0.00000000000E+00 0. -1.
         11    1    1    2    0    0 -0.23939939348E+02  0.70402346263E+02 -0.45504837616E+02  0.87179706938E+02  0.00000000000E+00 0.  1.
</event>
<event>
 7    1  0.1068210E-005  0.1081356E+03  0.7561462E-02  0.1264062E+00
          2   -1    0    0  501    0  0.00000000000E+00  0.00000000000E+00  0.89678790346E+03  0.89678790346E+03  0.00000000000E+00 0. -1.
         -2   -1    0    0    0  501 -0.00000000000E+00 -0.00000000000E+00 -0.13807815494E+02  0.13807815494E+02  0.00000000000E+00 0.  1.
         23    2    1    2    0    0 -0.35771089296E+01  0.18986530835E+02  0.47793052066E+03  0.49441213112E+03  0.12510990672E+03 0.  0.
          5    1    3    3  502    0 -0.56159728284E+02 -0.17394444419E+02  0.28782466010E+03  0.29379753086E+03  0.41800000000E+01 0.  1.
         -5    1    3    3    0  502  0.52582619354E+02  0.36380975253E+02  0.19010586056E+03  0.20061460026E+03  0.41800000000E+01 0.  1.
        -11    1    1    2    0    0 -0.23432559709E+02 -0.48121971368E+02  0.27657255073E+03  0.28170407310E+03  0.00000000000E+00 0. -1.
         11    1    1    2    0    0  0.27009668638E+02  0.29135440534E+02  0.12847701658E+03  0.13447951474E+03  0.00000000000E+00 0.  1.
</event>
<event>
 7    1  0.1068210E-005  0.2212233E+03  0.7561462E-02  0.1132974E+00
         -2   -1    0    0    0  501 -0.00000000000E+00  0.00000000000E+00  0.78874761715E+02  0.78874761715E+02  0.00000000000E+00 0.  1.
          2   -1    0    0  501    0  0.00000000000E+00 -0.00000000000E+00 -0.69030075369E+03  0.69030075369E+03  0.00000000000E+00 0. -1.
         23    2    1    2    0    0 -0.37779704681E+02  0.56514502413E+02 -0.22524557920E+03  0.26735289793E+03  0.12696773611E+03 0.  0.
          5    1    3    3  502    0  0.15666411903E+02 -0.28542210404E+02 -0.19056278652E+02  0.37956664668E+02  0.41800000000E+01 0. -1.
         -5    1    3    3    0  502 -0.53446116585E+02  0.85056712817E+02 -0.20618930055E+03  0.22939623326E+03  0.41800000000E+01 0.  1.
        -11    1    1    2    0    0  0.18978169053E+02 -0.18159961353E+03 -0.16045763007E+03  0.24307455972E+03  0.00000000000E+00 0.  1.
         11    1    1    2    0    0  0.18801535628E+02  0.12508511111E+03 -0.22572278270E+03  0.25874805776E+03  0.00000000000E+00 0. -1.
</event>
<event>
 7    1  0.1068210E-005  0.1243437E+03  0.7561462E-02  0.1236099E+00
         -2   -1    0    0    0  501 -0.00000000000E+00  0.00000000000E+00  0.50386621766E+02  0.50386621766E+02  0.00000000000E+00 0. -1.
          2   -1    0    0  501    0  0.00000000000E+00 -0.00000000000E+00 -0.39180349807E+03  0.39180349807E+03  0.00000000000E+00 0.  1.
         23    2    1    2    0    0 -0.51360452674E+02 -0.51150987844E+02 -0.10570353978E+03  0.17909532323E+03  0.12509027470E+03 0.  0.
          5    1    3    3  502    0 -0.89243165260E+02 -0.51000625461E+02 -0.58210369143E+02  0.11820036302E+03  0.41800000000E+01 0. -1.
         -5    1    3    3    0  502  0.37882712585E+02 -0.15036238298E+00 -0.47493170636E+02  0.60894960208E+02  0.41800000000E+01 0. -1.
        -11    1    1    2    0    0  0.33305947780E+02  0.72474468703E+02 -0.12024229939E+03  0.14429152898E+03  0.00000000000E+00 0. -1.
         11    1    1    2    0    0  0.18054504894E+02 -0.21323480859E+02 -0.11547103713E+03  0.11880326763E+03  0.00000000000E+00 0.  1.
</event>
<event>
 7    1  0.1068210E-005  0.8441227E+02  0.7561462E-02  0.1316977E+00
         -3   -1    0    0    0  501 -0.00000000000E+00  0.00000000000E+00  0.36768098778E+03  0.36768098778E+03  0.00000000000E+00 0.  1.
          3   -1    0    0  501    0  0.00000000000E+00 -0.00000000000E+00 -0.44258298531E+02  0.44258298531E+02  0.00000000000E+00 0. -1.
         23    2    1    2    0    0 -0.18093280534E+02  0.55154589654E+02  0.23296191543E+03  0.27071715926E+03  0.12508849153E+03 0.  0.
          5    1    3    3  502    0 -0.82997526790E+01 -0.14942874723E+02  0.18332449917E+03  0.18416709748E+03  0.41800000000E+01 0. -1.
         -5    1    3    3    0  502 -0.97935278548E+01  0.70097464377E+02  0.49637416267E+02  0.86550061777E+02  0.41800000000E+01 0. -1.
        -11    1    1    2    0    0  0.30715953857E+02 -0.59513032341E+02  0.10302959545E+03  0.12288355618E+03  0.00000000000E+00 0.  1.
         11    1    1    2    0    0 -0.12622673323E+02  0.43584426877E+01 -0.12568821637E+02  0.18338570877E+02  0.00000000000E+00 0. -1.
</event>
<event>
 7    1  0.1068210E-005  0.1397242E+03  0.7561462E-02  0.1213701E+00
          2   -1    0    0  501    0  0.00000000000E+00  0.00000000000E+00  0.66209380211E+03  0.66209380211E+03  0.00000000000E+00 0. -1.
         -2   -1    0    0    0  501 -0.00000000000E+00 -0.00000000000E+00 -0.35589068920E+02  0.35589068920E+02  0.00000000000E+00 0.  1.
         23    2    1    2    0    0 -0.70995022043E+02  0.55319988651E+02  0.20557226342E+03  0.25693277814E+03  0.12511555737E+03 0.  0.
          5    1    3    3  502    0  0.27945831189E+02  0.46667803438E+02  0.67258045296E+02  0.86602369573E+02  0.41800000000E+01 0.  1.
         -5    1    3    3    0  502 -0.98940853232E+02  0.86521852127E+01  0.13831421812E+03  0.17033040857E+03  0.41800000000E+01 0.  1.
        -11    1    1    2    0    0  0.33606288704E+02 -0.75757134775E+02  0.33124526868E+03  0.34145564007E+03  0.00000000000E+00 0.  1.
         11    1    1    2    0    0  0.37388733340E+02  0.20437146124E+02  0.89687201091E+02  0.99294452826E+02  0.00000000000E+00 0. -1.
</event>
<event>
 7    1  0.1068210E-005  0.1089295E+03  0.7561462E-02  0.1262565E+00
          1   -1    0    0  501    0  0.00000000000E+00  0.00000000000E+00  0.17804342079E+03  0.17804342079E+03  0.00000000000E+00 0. -1.
         -1   -1    0    0    0  501 -0.00000000000E+00 -0.00000000000E+00 -0.79236230455E+02  0.79236230455E+02  0.00000000000E+00 0.  1.
         23    2    1    2    0    0 -0.47421632274E+02  0.55076238774E+01  0.41931098464E+02  0.14031287597E+03  0.12510132300E+03 0.  0.
          5    1    3    3  502    0  0.12452904302E+02 -0.43257300680E+02 -0.11090917776E+02  0.46548359206E+02  0.41800000000E+01 0. -1.
         -5    1    3    3    0  502 -0.59874536576E+02  0.48764924557E+02  0.53022016241E+02  0.93764516761E+02  0.41800000000E+01 0. -1.
        -11    1    1    2    0    0  0.94059269280E+01  0.37066396922E+02  0.28036847523E+01  0.38343837711E+02  0.00000000000E+00 0.  1.
         11    1    1    2    0    0  0.38015705346E+02 -0.42574020800E+02  0.54072407115E+02  0.78622937564E+02  0.00000000000E+00 0. -1.
</event>
<event>
 7    1  0.1068210E-005  0.1563180E+03  0.7561462E-02  0.1192918E+00
         -2   -1    0    0    0  501 -0.00000000000E+00  0.00000000000E+00  0.10911598217E+03  0.10911598217E+03  0.00000000000E+00 0.  1.
          2   -1    0    0  501    0  0.00000000000E+00 -0.00000000000E+00 -0.32057007568E+03  0.32057007568E+03  0.00000000000E+00 0. -1.
         23    2    1    2    0    0  0.36155504957E+02  0.12126112098E+03 -0.14592424928E+02  0.17852755190E+03  0.12509063883E+03 0.  0.
          5    1    3    3  502    0 -0.32119825088E+02  0.98632741967E+02  0.47624846915E+01  0.10392427345E+03  0.41800000000E+01 0. -1.
         -5    1    3    3    0  502  0.68275330044E+02  0.22628379014E+02 -0.19354909619E+02  0.74603278453E+02  0.41800000000E+01 0. -1.
        -11    1    1    2    0    0 -0.49580929144E+02 -0.10019944403E+03 -0.96336203585E+02  0.14757662837E+03  0.00000000000E+00 0.  1.
         11    1    1    2    0    0  0.13425424187E+02 -0.21061676947E+02 -0.10052546500E+03  0.10358187758E+03  0.00000000000E+00 0. -1.
</event>
<event>
 7    1  0.1068210E-005  0.1486700E+03  0.7561462E-02  0.1202117E+00
          2   -1    0    0  501    0  0.00000000000E+00  0.00000000000E+00  0.29312803506E+03  0.29312803506E+03  0.00000000000E+00 0. -1.
         -2   -1    0    0    0  501 -0.00000000000E+00 -0.00000000000E+00 -0.93731756374E+02  0.93731756374E+02  0.00000000000E+00 0.  1.
         23    2    1    2    0    0 -0.68954968479E+02  0.80325730053E+02  0.28462899873E+02  0.16632395438E+03  0.12508601259E+03 0.  0.
          5    1    3    3  502    0  0.24093880687E+02  0.58503191344E+02  0.31096048576E+02  0.70622766308E+02  0.41800000000E+01 0. -1.
         -5    1    3    3    0  502 -0.93048849166E+02  0.21822538709E+02 -0.26331487029E+01  0.95701188074E+02  0.41800000000E+01 0. -1.
        -11    1    1    2    0    0  0.65972278675E+02 -0.86591639029E+01  0.68608143528E+02  0.95574055221E+02  0.00000000000E+00 0.  1.
         11    1    1    2    0    0  0.29826898039E+01 -0.71666566150E+02  0.10232523528E+03  0.12496178183E+03  0.00000000000E+00 0. -1.
</event>
<event>
 7    1  0.1068210E-005  0.1159441E+03  0.7561462E-02  0.1249942E+00
         -1   -1    0    0    0  501 -0.00000000000E+00  0.00000000000E+00  0.31991300075E+03  0.31991300075E+03  0.00000000000E+00 0.  1.
          1   -1    0    0  501    0  0.00000000000E+00 -0.00000000000E+00 -0.52264615023E+02  0.52264615023E+02  0.00000000000E+00 0. -1.
         23    2    1    2    0    0  0.57395370578E+02 -0.19017756019E+02  0.19509449162E+03  0.23951085858E+03  0.12509071552E+03 0.  0.
          5    1    3    3  502    0  0.48130620929E+01 -0.58147133664E+02  0.39390053109E+02  0.70521652023E+02  0.41800000000E+01 0.  1.
         -5    1    3    3    0  502  0.52582308485E+02  0.39129377645E+02  0.15570443852E+03  0.16898920656E+03  0.41800000000E+01 0.  1.
        -11    1    1    2    0    0 -0.61526911277E+02  0.48252015550E+02  0.66233891637E+02  0.10247314876E+03  0.00000000000E+00 0.  1.
         11    1    1    2    0    0  0.41315406988E+01 -0.29234259531E+02  0.63200024677E+01  0.30193608430E+02  0.00000000000E+00 0. -1.
</event>
<event>
 7    1  0.1068210E-005  0.1251304E+03  0.7561462E-02  0.1234866E+00
          2   -1    0    0  501    0  0.00000000000E+00  0.00000000000E+00  0.29931202606E+03  0.29931202606E+03  0.00000000000E+00 0. -1.
         -2   -1    0    0    0  501 -0.00000000000E+00 -0.00000000000E+00 -0.78039606975E+02  0.78039606975E+02  0.00000000000E+00 0.  1.
         23    2    1    2    0    0  0.96098995056E+02 -0.46303200535E+02  0.10190088094E+03  0.19341755522E+03  0.12509019906E+03 0.  0.
          5    1    3    3  502    0  0.50999197941E+01 -0.50286433615E+02  0.87456902456E+02  0.10109854982E+03  0.41800000000E+01 0.  1.
         -5    1    3    3    0  502  0.90999075262E+02  0.39832330794E+01  0.14443978487E+02  0.92319005404E+02  0.41800000000E+01 0.  1.
        -11    1    1    2    0    0 -0.89117843785E+01  0.11346539100E+02 -0.14460322685E+02  0.20427060056E+02  0.00000000000E+00 0.  1.
         11    1    1    2    0    0 -0.87187210678E+02  0.34956661435E+02  0.13383186083E+03  0.16350701776E+03  0.00000000000E+00 0. -1.
</event>
<event>
 7    1  0.1068210E-005  0.1286108E+03  0.7561462E-02  0.1229532E+00
          1   -1    0    0  501    0  0.00000000000E+00  0.00000000000E+00  0.99875168847E+03  0.99875168847E+03  0.00000000000E+00 0. -1.
         -1   -1    0    0    0  501 -0.00000000000E+00 -0.00000000000E+00 -0.17127556871E+02  0.17127556871E+02  0.00000000000E+00 0.  1.
         23    2    1    2    0    0  0.40094589266E+02  0.62313759262E+02  0.51502818642E+03  0.53515580621E+03  0.12508846242E+03 0.  0.
          5    1    3    3  502    0 -0.86258116720E+01  0.86485230272E+02  0.37294918730E+03  0.38296562299E+03  0.41800000000E+01 0.  1.
         -5    1    3    3    0  502  0.48720400938E+02 -0.24171471011E+02  0.14207899912E+03  0.15219018322E+03  0.41800000000E+01 0.  1.
        -11    1    1    2    0    0 -0.68763369742E+02 -0.43416128354E+02  0.33273669365E+03  0.34253039065E+03  0.00000000000E+00 0.  1.
         11    1    1    2    0    0  0.28668780476E+02 -0.18897630908E+02  0.13385925153E+03  0.13819304848E+03  0.00000000000E+00 0. -1.
</event>
<event>
 7    1  0.1068210E-005  0.1089497E+03  0.7561462E-02  0.1262527E+00
         -2   -1    0    0    0  501 -0.00000000000E+00  0.00000000000E+00  0.99211405465E+02  0.99211405465E+02  0.00000000000E+00 0.  1.
          2   -1    0    0  501    0  0.00000000000E+00 -0.00000000000E+00 -0.13441479662E+03  0.13441479662E+03  0.00000000000E+00 0. -1.
         23    2    1    2    0    0  0.17034635438E+02 -0.39032273871E+02 -0.25069017922E+02  0.13449658045E+03  0.12508867769E+03 0.  0.
          5    1    3    3  502    0 -0.42407322872E+02 -0.48980283352E+02  0.83479228249E+01  0.65456927868E+02  0.41800000000E+01 0.  1.
         -5    1    3    3    0  502  0.59441958310E+02  0.99480094817E+01 -0.33416940747E+02  0.69039652586E+02  0.41800000000E+01 0.  1.
        -11    1    1    2    0    0 -0.48986238645E+02  0.11340198202E+02 -0.22485969068E+02  0.55080581667E+02  0.00000000000E+00 0. -1.
         11    1    1    2    0    0  0.31951603208E+02  0.27692075669E+02  0.12351595831E+02  0.44049039966E+02  0.00000000000E+00 0.  1.
</event>
<event>
 7    1  0.1068210E-005  0.1079358E+03  0.7561462E-02  0.1264441E+00
          1   -1    0    0  501    0  0.00000000000E+00  0.00000000000E+00  0.46081870790E+03  0.46081870790E+03  0.00000000000E+00 0. -1.
         -1   -1    0    0    0  501 -0.00000000000E+00 -0.00000000000E+00 -0.31752487942E+02  0.31752487942E+02  0.00000000000E+00 0.  1.
         23    2    1    2    0    0 -0.15067825350E+02  0.46398780593E+01  0.14048647285E+03  0.18877220742E+03  0.12509967789E+03 0.  0.
          5    1    3    3  502    0 -0.62219170383E+02  0.28122913312E+02  0.52878841609E+02  0.86462521974E+02  0.41800000000E+01 0.  1.
         -5    1    3    3    0  502  0.47151345033E+02 -0.23483035253E+02  0.87607631245E+02  0.10230968544E+03  0.41800000000E+01 0.  1.
        -11    1    1    2    0    0  0.49566102779E+02 -0.23992224194E+02  0.18021184768E+03  0.18843761677E+03  0.00000000000E+00 0.  1.
         11    1    1    2    0    0 -0.34498277429E+02  0.19352346135E+02  0.10836789942E+03  0.11536137166E+03  0.00000000000E+00 0. -1.
</event>
<event>
 7    1  0.1068210E-005  0.8908607E+02  0.7561462E-02  0.1305080E+00
          3   -1    0    0  501    0  0.00000000000E+00  0.00000000000E+00  0.88271407077E+02  0.88271407077E+02  0.00000000000E+00 0. -1.
         -3   -1    0    0    0  501 -0.00000000000E+00 -0.00000000000E+00 -0.15704494094E+03  0.15704494094E+03  0.00000000000E+00 0.  1.
         23    2    1    2    0    0  0.89147740722E+01  0.45277650975E+02 -0.47585322027E+02  0.14156561540E+03  0.12508765614E+03 0.  0.
          5    1    3    3  502    0  0.34856695205E+02  0.58687175021E+02  0.17082074221E+02  0.70487185873E+02  0.41800000000E+01 0.  1.
         -5    1    3    3    0  502 -0.25941921133E+02 -0.13409524046E+02 -0.64667396248E+02  0.71078429532E+02  0.41800000000E+01 0.  1.
        -11    1    1    2    0    0 -0.24871527047E+02  0.68278578852E+01 -0.38704439086E+02  0.46510709583E+02  0.00000000000E+00 0.  1.
         11    1    1    2    0    0  0.15956752975E+02 -0.52105508861E+02  0.17516227252E+02  0.57240023028E+02  0.00000000000E+00 0. -1.
</event>
<event>
 7    1  0.1068210E-005  0.1263703E+03  0.7561462E-02  0.1232943E+00
          3   -1    0    0  501    0  0.00000000000E+00  0.00000000000E+00  0.13016739275E+02  0.13016739275E+02  0.00000000000E+00 0. -1.
         -3   -1    0    0    0  501 -0.00000000000E+00 -0.00000000000E+00 -0.15050170242E+04  0.15050170242E+04  0.00000000000E+00 0.  1.
         23    2    1    2    0    0  0.47132725638E+02  0.53694401943E+02 -0.10921821378E+04  0.11016413662E+04  0.12508914781E+03 0.  0.
          5    1    3    3  502    0  0.70275678321E+02  0.79269800326E+02 -0.70834530748E+03  0.71623524016E+03  0.41800000000E+01 0. -1.
         -5    1    3    3    0  502 -0.23142952683E+02 -0.25575398384E+02 -0.38383683031E+03  0.38540612601E+03  0.41800000000E+01 0. -1.
        -11    1    1    2    0    0 -0.50656616926E+02  0.70382481064E+01 -0.23996909582E+03  0.24535850652E+03  0.00000000000E+00 0.  1.
         11    1    1    2    0    0  0.35238912885E+01 -0.60732650049E+02 -0.15984905127E+03  0.17103389074E+03  0.00000000000E+00 0. -1.
</event>
<event>
 7    1  0.1068210E-005  0.1095860E+03  0.7561462E-02  0.1261338E+00
         -2   -1    0    0    0  501 -0.00000000000E+00  0.00000000000E+00  0.41636777126E+02  0.41636777126E+02  0.00000000000E+00 0.  1.
          2   -1    0    0  501    0  0.00000000000E+00 -0.00000000000E+00 -0.40528234107E+03  0.40528234107E+03  0.00000000000E+00 0. -1.
         23    2    1    2    0    0 -0.51431797324E+02  0.47226150876E+02 -0.17508033413E+03  0.22622144991E+03  0.12508989528E+03 0.  0.
          5    1    3    3  502    0  0.94926713301E+01 -0.20783020063E+02 -0.11387251068E+03  0.11621732152E+03  0.41800000000E+01 0. -1.
         -5    1    3    3    0  502 -0.60924468654E+02  0.68009170940E+02 -0.61207823443E+02  0.11000412839E+03  0.41800000000E+01 0. -1.
        -11    1    1    2    0    0 -0.20533171319E+02 -0.51137648591E+01 -0.85747346118E+02  0.88319698153E+02  0.00000000000E+00 0. -1.
         11    1    1    2    0    0  0.71964968643E+02 -0.42112386017E+02 -0.10281788370E+03  0.13237797013E+03  0.00000000000E+00 0.  1.
</event>
<event>
 7    1  0.1068210E-005  0.1321457E+03  0.7561462E-02  0.1224306E+00
          1   -1    0    0  501    0  0.00000000000E+00  0.00000000000E+00  0.62264442999E+02  0.62264442999E+02  0.00000000000E+00 0. -1.
         -1   -1    0    0    0  501 -0.00000000000E+00 -0.00000000000E+00 -0.44777720380E+03  0.44777720380E+03  0.00000000000E+00 0.  1.
         23    2    1    2    0    0 -0.92083104285E+02 -0.86073747982E+02 -0.19704499486E+03  0.26526616361E+03  0.12510563285E+03 0.  0.
          5    1    3    3  502    0 -0.95859663102E+02 -0.72912026605E+02 -0.74054736335E+02  0.14144544887E+03  0.41800000000E+01 0. -1.
         -5    1    3    3    0  502  0.37765588171E+01 -0.13161721377E+02 -0.12299025852E+03  0.12382071474E+03  0.41800000000E+01 0. -1.
        -11    1    1    2    0    0  0.80840658964E+02  0.86260538927E+02 -0.19761705572E+03  0.23027938125E+03  0.00000000000E+00 0.  1.
         11    1    1    2    0    0  0.11242445321E+02 -0.18679094542E+00  0.91492897842E+01  0.14496101931E+02  0.00000000000E+00 0. -1.
</event>
<event>
 7    1  0.1068210E-005  0.1343081E+03  0.7561462E-02  0.1221200E+00
          2   -1    0    0  501    0  0.00000000000E+00  0.00000000000E+00  0.23442352842E+03  0.23442352842E+03  0.00000000000E+00 0. -1.
         -2   -1    0    0    0  501 -0.00000000000E+00 -0.00000000000E+00 -0.77597691696E+02  0.77597691696E+02  0.00000000000E+00 0.  1.
         23    2    1    2    0    0  0.73841358837E+02 -0.19542254672E+02  0.90036174515E+02  0.17200580652E+03  0.12508012937E+03 0.  0.
          5    1    3    3  502    0 -0.15577943219E+02 -0.49456032962E+02  0.35821151949E+02  0.63160104799E+02  0.41800000000E+01 0. -1.
         -5    1    3    3    0  502  0.89419302056E+02  0.29913778290E+02  0.54215022566E+02  0.10884570172E+03  0.41800000000E+01 0. -1.
        -11    1    1    2    0    0  0.14268156377E+02  0.30259645462E+02  0.11173585061E+02  0.35271453514E+02  0.00000000000E+00 0.  1.
         11    1    1    2    0    0 -0.88109515213E+02 -0.10717390790E+02  0.55616077153E+02  0.10474396009E+03  0.00000000000E+00 0. -1.
</event>
<event>
 7    1  0.1068210E-005  0.1169635E+03  0.7561462E-02  0.1248192E+00
          1   -1    0    0  501    0  0.00000000000E+00  0.00000000000E+00  0.20225434582E+03  0.20225434582E+03  0.00000000000E+00 0. -1.
         -1   -1    0    0    0  501 -0.00000000000E+00 -0.00000000000E+00 -0.16900130266E+03  0.16900130266E+03  0.00000000000E+00 0.  1.
         23    2    1    2    0    0  0.70340591297E+02  0.46757168139E+02 -0.10609990448E+03  0.18449503108E+03  0.12508874933E+03 0.  0.
          5    1    3    3  502    0  0.59052517011E+02 -0.21826469095E+02 -0.94910765163E+02  0.11396982172E+03  0.41800000000E+01 0. -1.
         -5    1    3    3    0  502  0.11288074287E+02  0.68583637234E+02 -0.11189139313E+02  0.70525209365E+02  0.41800000000E+01 0. -1.
        -11    1    1    2    0    0 -0.28531902697E+02 -0.51749256743E+02  0.13117066527E+03  0.14386729465E+03  0.00000000000E+00 0. -1.
         11    1    1    2    0    0 -0.41808688600E+02  0.49920886033E+01  0.81822823758E+01  0.42893322743E+02  0.00000000000E+00 0.  1.
</event>
<event>
 7    1  0.1068210E-005  0.1582143E+03  0.7561462E-02  0.1190728E+00
          1   -1    0    0  501    0  0.00000000000E+00  0.00000000000E+00  0.61494216635E+02  0.61494216635E+02  0.00000000000E+00 0. -1.
         -1   -1    0    0    0  501 -0.00000000000E+00 -0.00000000000E+00 -0.60949898133E+03  0.60949898133E+03  0.00000000000E+00 0.  1.
         23    2    1    2    0    0 -0.10683994750E+03 -0.79838482187E+02 -0.40086487968E+03  0.44060590571E+03  0.12510777258E+03 0.  0.
          5    1    3    3  502    0  0.17470151157E+02 -0.52392773508E+02 -0.12858609110E+03  0.14000737167E+03  0.41800000000E+01 0.  1.
         -5    1    3    3    0  502 -0.12431009866E+03 -0.27445708679E+02 -0.27227878858E+03  0.30059853404E+03  0.41800000000E+01 0.  1.
        -11    1    1    2    0    0  0.26862185249E+02  0.25009059496E+02 -0.12587351372E+03  0.13111510786E+03  0.00000000000E+00 0.  1.
         11    1    1    2    0    0  0.79977762255E+02  0.54829422691E+02 -0.21266371301E+02  0.99272184404E+02  0.00000000000E+00 0. -1.
</event>
<event>
 7    1  0.1068210E-005  0.9329089E+02  0.7561462E-02  0.1295072E+00
         -3   -1    0    0    0  501 -0.00000000000E+00  0.00000000000E+00  0.59232406515E+03  0.59232406515E+03  0.00000000000E+00 0.  1.
          3   -1    0    0  501    0  0.00000000000E+00 -0.00000000000E+00 -0.20098055077E+02  0.20098055077E+02  0.00000000000E+00 0. -1.
         23    2    1    2    0    0 -0.16008132972E+00  0.12972614998E+02  0.39848566947E+03  0.41587054400E+03  0.11827580577E+03 0.  0.
          5    1    3    3  502    0  0.27898904742E+02 -0.42190048752E+02  0.11538075566E+03  0.12604975317E+03  0.41800000000E+01 0. -1.
         -5    1    3    3    0  502 -0.28058986071E+02  0.55162663750E+02  0.28310491381E+03  0.28982079082E+03  0.41800000000E+01 0.  1.
        -11    1    1    2    0    0 -0.19986612022E+02  0.24279907141E+02  0.13675364559E+03  0.14032297793E+03  0.00000000000E+00 0.  1.
         11    1    1    2    0    0  0.20146693352E+02 -0.37252522139E+02  0.36986695010E+02  0.56228598298E+02  0.00000000000E+00 0. -1.
</event>
<event>
 6    1  0.1068210E-005  0.1188303E+03  0.7561462E-02  0.1245039E+00
         -2   -1    0    0    0  501 -0.00000000000E+00  0.00000000000E+00  0.15399225102E+04  0.15399225102E+04  0.00000000000E+00 0.  1.
          2   -1    0    0  501    0  0.00000000000E+00 -0.00000000000E+00 -0.16396848007E+02  0.16396848007E+02  0.00000000000E+00 0. -1.
          5    1    1    2  502    0  0.74332365266E+01  0.26998049852E+02  0.46643428845E+02  0.54563995047E+02  0.41800000000E+01 0. -1.
         -5    1    1    2    0  502  0.86413327830E+02 -0.52322108194E+02  0.10444349873E+04  0.10493172930E+04  0.41800000000E+01 0.  1.
        -11    1    1    2    0    0 -0.19514513503E+02  0.27686217965E+02  0.37430530517E+02  0.50481556209E+02  0.00000000000E+00 0.  1.
         11    1    1    2    0    0 -0.74332050853E+02 -0.23621596221E+01  0.39501671549E+03  0.40195651394E+03  0.00000000000E+00 0. -1.
</event>
<event>
 7    1  0.1068210E-005  0.2313855E+03  0.7561462E-02  0.1125668E+00
         -2   -1    0    0    0  501 -0.00000000000E+00  0.00000000000E+00  0.61952957978E+02  0.61952957978E+02  0.00000000000E+00 0. -1.
          2   -1    0    0  501    0  0.00000000000E+00 -0.00000000000E+00 -0.10107060878E+04  0.10107060878E+04  0.00000000000E+00 0.  1.
         23    2    1    2    0    0  0.18802042425E+03 -0.12355617757E+03 -0.45591546378E+03  0.52356703776E+03  0.12508286838E+03 0.  0.
          5    1    3    3  502    0  0.37134285191E+02 -0.55206798952E+01 -0.11314925832E+02  0.39432638635E+02  0.41800000000E+01 0. -1.
         -5    1    3    3    0  502  0.15088613906E+03 -0.11803549768E+03 -0.44460053795E+03  0.48413439912E+03  0.41800000000E+01 0. -1.
        -11    1    1    2    0    0 -0.14519652030E+03  0.60814502390E+02 -0.25757613947E+03  0.30187066905E+03  0.00000000000E+00 0. -1.
         11    1    1    2    0    0 -0.42823903952E+02  0.62741675182E+02 -0.23526152656E+03  0.24722133896E+03  0.00000000000E+00 0.  1.
</event>
<event>
 7    1  0.1068210E-005  0.6902323E+02  0.7561462E-02  0.1363446E+00
          1   -1    0    0  501    0  0.00000000000E+00  0.00000000000E+00  0.28513579280E+03  0.28513579280E+03  0.00000000000E+00 0. -1.
         -1   -1    0    0    0  501 -0.00000000000E+00 -0.00000000000E+00 -0.57674918529E+02  0.57674918529E+02  0.00000000000E+00 0.  1.
         23    2    1    2    0    0 -0.40294189407E+02 -0.51914388723E+02  0.14410730053E+03  0.20182111215E+03  0.12508445861E+03 0.  0.
          5    1    3    3  502    0 -0.60693542994E+01 -0.51778211698E+01  0.14345645773E+03  0.14373891108E+03  0.41800000000E+01 0. -1.
         -5    1    3    3    0  502 -0.34224835108E+02 -0.46736567553E+02  0.65084280382E+00  0.58082201070E+02  0.41800000000E+01 0. -1.
        -11    1    1    2    0    0  0.11001970753E+02 -0.39465392086E+00 -0.19237798697E+02  0.22165107960E+02  0.00000000000E+00 0.  1.
         11    1    1    2    0    0  0.29292218654E+02  0.52309042644E+02  0.10259137244E+03  0.11882449122E+03  0.00000000000E+00 0. -1.
</event>
<event>
 7    1  0.1068210E-005  0.1203433E+03  0.7561462E-02  0.1242532E+00
         -1   -1    0    0    0  501 -0.00000000000E+00  0.00000000000E+00  0.33451239128E+03  0.33451239128E+03  0.00000000000E+00 0.  1.
          1   -1    0    0  501    0  0.00000000000E+00 -0.00000000000E+00 -0.63395689593E+02  0.63395689593E+02  0.00000000000E+00 0. -1.
         23    2    1    2    0    0  0.51459458096E+02  0.70403551876E+02  0.20566459297E+03  0.25711147017E+03  0.12729354794E+03 0.  0.
          5    1    3    3  502    0  0.66675460649E+02  0.28669820628E+02  0.34950959530E+02  0.80663607901E+02  0.41800000000E+01 0. -1.
         -5    1    3    3    0  502 -0.15216002553E+02  0.41733731248E+02  0.17071363344E+03  0.17644786227E+03  0.41800000000E+01 0.  1.
        -11    1    1    2    0    0 -0.40522267292E+01 -0.75573962627E+02  0.30165416388E+02  0.81472674649E+02  0.00000000000E+00 0. -1.
         11    1    1    2    0    0 -0.47407231367E+02  0.51704107510E+01  0.35286692327E+02  0.59323936051E+02  0.00000000000E+00 0.  1.
</event>
<event>
 7    1  0.1068210E-005  0.4533365E+02  0.7561462E-02  0.1472269E+00
         -3   -1    0    0    0  501 -0.00000000000E+00  0.00000000000E+00  0.31645667476E+03  0.31645667476E+03  0.00000000000E+00 0.  1.
          3   -1    0    0  501    0  0.00000000000E+00 -0.00000000000E+00 -0.54277812444E+02  0.54277812444E+02  0.00000000000E+00 0. -1.
         23    2    1    2    0    0  0.23444359589E+02  0.15318585115E+02  0.23983089660E+03  0.27193743564E+03  0.12508722115E+03 0.  0.
          5    1    3    3  502    0  0.17985056008E+01 -0.12691903124E+01  0.24399058175E+03  0.24403631256E+03  0.41800000000E+01 0. -1.
         -5    1    3    3    0  502  0.21645853989E+02  0.16587775428E+02 -0.41596851542E+01  0.27901123080E+02  0.41800000000E+01 0. -1.
        -11    1    1    2    0    0 -0.39694549668E+02 -0.78224377188E+01  0.50948900598E+02  0.65058729447E+02  0.00000000000E+00 0.  1.
         11    1    1    2    0    0  0.16250190078E+02 -0.74961473966E+01 -0.28600934876E+02  0.33738322115E+02  0.00000000000E+00 0. -1.
</event>
<event>
 7    1  0.1068210E-005  0.2086655E+03  0.7561462E-02  0.1142627E+00
         -2   -1    0    0    0  501 -0.00000000000E+00  0.00000000000E+00  0.29780129061E+02  0.29780129061E+02  0.00000000000E+00 0. -1.
          2   -1    0    0  501    0  0.00000000000E+00 -0.00000000000E+00 -0.17527101856E+04  0.17527101856E+04  0.00000000000E+00 0.  1.
         23    2    1    2    0    0 -0.19088127279E+03  0.59651180892E+02 -0.97504341192E+03  0.10031705433E+04  0.12509020820E+03 0.  0.
          5    1    3    3  502    0 -0.14389817288E+03  0.53423595312E+02 -0.44015352809E+03  0.46616881640E+03  0.41800000000E+01 0.  1.
         -5    1    3    3    0  502 -0.46983099910E+02  0.62275855801E+01 -0.53488988383E+03  0.53700172692E+03  0.41800000000E+01 0.  1.
        -11    1    1    2    0    0  0.30992618455E+02  0.20687980837E+02 -0.18353746053E+03  0.18728196488E+03  0.00000000000E+00 0.  1.
         11    1    1    2    0    0  0.15988865434E+03 -0.80339161729E+02 -0.56434918406E+03  0.59203780643E+03  0.00000000000E+00 0. -1.
</event>
<event>
 7    1  0.1068210E-005  0.1150428E+03  0.7561462E-02  0.1251506E+00
         -2   -1    0    0    0  501 -0.00000000000E+00  0.00000000000E+00  0.26867115859E+02  0.26867115859E+02  0.00000000000E+00 0.  1.
          2   -1    0    0  501    0  0.00000000000E+00 -0.00000000000E+00 -0.68468306449E+03  0.68468306449E+03  0.00000000000E+00 0. -1.
         23    2    1    2    0    0 -0.26444196464E+02 -0.55514888337E+02 -0.22190053024E+03  0.26204653246E+03  0.12508933409E+03 0.  0.
          5    1    3    3  502    0 -0.18535494378E+01 -0.90885985446E+02 -0.18055177765E+03  0.20218831521E+03  0.41800000000E+01 0.  1.
         -5    1    3    3    0  502 -0.24590647026E+02  0.35371097109E+02 -0.41348752590E+02  0.59858217252E+02  0.41800000000E+01 0.  1.
        -11    1    1    2    0    0  0.94429121624E+01 -0.18011584993E+02 -0.27659152719E+02  0.34330955611E+02  0.00000000000E+00 0.  1.
         11    1    1    2    0    0  0.17001284302E+02  0.73526473331E+02 -0.40825626568E+03  0.41517269228E+03  0.00000000000E+00 0. -1.
</event>
<event>
 7    1  0.1068210E-005  0.1522019E+03  0.7561462E-02  0.1197793E+00
         -2   -1    0    0    0  501 -0.00000000000E+00  0.00000000000E+00  0.75663314523E+02  0.75663314523E+02  0.00000000000E+00 0.  1.
          2   -1    0    0  501    0  0.00000000000E+00 -0.00000000000E+00 -0.38848044319E+03  0.38848044319E+03  0.00000000000E+00 0. -1.
         23    2    1    2    0    0 -0.88866056921E+02  0.89614028185E+02 -0.12151642920E+03  0.21527059429E+03  0.12508931241E+03 0.  0.
          5    1    3    3  502    0 -0.10642992854E+03  0.46093524837E+02 -0.12168062794E+03  0.16815347257E+03  0.41800000000E+01 0. -1.
         -5    1    3    3    0  502  0.17563871618E+02  0.43520503349E+02  0.16419874205E+00  0.47117121720E+02  0.41800000000E+01 0. -1.
        -11    1    1    2    0    0 -0.83946880543E+01 -0.19799590604E+02  0.18945244708E+01  0.21588974005E+02  0.00000000000E+00 0.  1.
         11    1    1    2    0    0  0.97260744975E+02 -0.69814437581E+02 -0.19319522394E+03  0.22728418942E+03  0.00000000000E+00 0. -1.
</event>
<event>
 7    1  0.1068210E-005  0.7127722E+02  0.7561462E-02  0.1355803E+00
          1   -1    0    0  501    0  0.00000000000E+00  0.00000000000E+00  0.16368330896E+03  0.16368330896E+03  0.00000000000E+00 0. -1.
         -1   -1    0    0    0  501 -0.00000000000E+00 -0.00000000000E+00 -0.84144620144E+02  0.84144620144E+02  0.00000000000E+00 0.  1.
         23    2    1    2    0    0  0.32146703360E+02 -0.30581870376E+02  0.41620664489E+02  0.13909582759E+03  0.12508680269E+03 0.  0.
          5    1    3    3  502    0  0.25575937391E+02 -0.27382258278E+02  0.86012628414E+02  0.93912519338E+02  0.41800000000E+01 0.  1.
         -5    1    3    3    0  502  0.65707659695E+01 -0.31996120983E+01 -0.44391963925E+02  0.45183308247E+02  0.41800000000E+01 0.  1.
        -11    1    1    2    0    0 -0.57072942317E+02  0.11959710129E+00  0.47686541580E+01  0.57271939994E+02  0.00000000000E+00 0.  1.
         11    1    1    2    0    0  0.24926238957E+02  0.30462273275E+02  0.33149370170E+02  0.51460161526E+02  0.00000000000E+00 0. -1.
</event>
<event>
 7    1  0.1068210E-005  0.9717786E+02  0.7561462E-02  0.1286345E+00
          2   -1    0    0  501    0  0.00000000000E+00  0.00000000000E+00  0.14637373156E+03  0.14637373156E+03  0.00000000000E+00 0. -1.
         -2   -1    0    0    0  501 -0.00000000000E+00 -0.00000000000E+00 -0.97541687351E+02  0.97541687351E+02  0.00000000000E+00 0.  1.
         23    2    1    2    0    0  0.86905440550E+01  0.52194833538E+01 -0.23907432818E+02  0.12775493850E+03  0.12508793069E+03 0.  0.
          5    1    3    3  502    0 -0.21033896190E+02  0.59526119912E+02 -0.86827709387E+01  0.63864283068E+02  0.41800000000E+01 0.  1.
         -5    1    3    3    0  502  0.29724440245E+02 -0.54306636558E+02 -0.15224661879E+02  0.63890655431E+02  0.41800000000E+01 0.  1.
        -11    1    1    2    0    0  0.28633765628E+02 -0.12092342657E+02  0.71752857448E+02  0.78195842837E+02  0.00000000000E+00 0. -1.
         11    1    1    2    0    0 -0.37324309683E+02  0.68728593030E+01  0.98661958305E+00  0.37964637579E+02  0.00000000000E+00 0.  1.
</event>
<event>
 7    1  0.1068210E-005  0.1239729E+03  0.7561462E-02  0.1236683E+00
          2   -1    0    0  501    0  0.00000000000E+00  0.00000000000E+00  0.62889346698E+03  0.62889346698E+03  0.00000000000E+00 0. -1.
         -2   -1    0    0    0  501 -0.00000000000E+00 -0.00000000000E+00 -0.27705098867E+02  0.27705098867E+02  0.00000000000E+00 0.  1.
         23    2    1    2    0    0 -0.17130192344E+02 -0.69444256441E+02  0.28368135459E+03  0.31817851425E+03  0.12508600139E+03 0.  0.
          5    1    3    3  502    0 -0.13166048609E+02 -0.10245089628E+03  0.25063578071E+03  0.27111860496E+03  0.41800000000E+01 0.  1.
         -5    1    3    3    0  502 -0.39641437344E+01  0.33006639837E+02  0.33045573887E+02  0.47059909290E+02  0.41800000000E+01 0.  1.
        -11    1    1    2    0    0 -0.20320873343E+02 -0.10431890665E+02  0.11929291450E+03  0.12146012385E+03  0.00000000000E+00 0. -1.
         11    1    1    2    0    0  0.37451065686E+02  0.79876147106E+02  0.19821409902E+03  0.21695992775E+03  0.00000000000E+00 0.  1.
</event>
<event>
 7    1  0.1068210E-005  0.1337420E+03  0.7561462E-02  0.1222007E+00
          1   -1    0    0  501    0  0.00000000000E+00  0.00000000000E+00  0.80347246716E+02  0.80347246716E+02  0.00000000000E+00 0. -1.
         -1   -1    0    0    0  501 -0.00000000000E+00 -0.00000000000E+00 -0.28596073014E+03  0.28596073014E+03  0.00000000000E+00 0.  1.
         23    2    1    2    0    0  0.91390921904E+02 -0.21502108920E+02 -0.55301908067E+02  0.16589476910E+03  0.12509249411E+03 0.  0.
          5    1    3    3  502    0  0.78927808915E+02 -0.56787452376E+02  0.19814276596E+01  0.97343783690E+02  0.41800000000E+01 0. -1.
         -5    1    3    3    0  502  0.12463112990E+02  0.35285343457E+02 -0.57283335727E+02  0.68550985407E+02  0.41800000000E+01 0. -1.
        -11    1    1    2    0    0 -0.84076684718E+02  0.53518304609E+02 -0.11058013795E+03  0.14886592877E+03  0.00000000000E+00 0. -1.
         11    1    1    2    0    0 -0.73142371857E+01 -0.32016195690E+02 -0.39731437406E+02  0.51547278982E+02  0.00000000000E+00 0.  1.
</event>
<event>
 7    1  0.1068210E-005  0.1048898E+03  0.7561462E-02  0.1270337E+00
          1   -1    0    0  501    0  0.00000000000E+00  0.00000000000E+00  0.20654166018E+02  0.20654166018E+02  0.00000000000E+00 0. -1.
         -1   -1    0    0    0  501 -0.00000000000E+00 -0.00000000000E+00 -0.59450207539E+03  0.59450207539E+03  0.00000000000E+00 0.  1.
         23    2    1    2    0    0 -0.34729585319E+02 -0.20259546761E+02 -0.30378684203E+03  0.33098500097E+03  0.12509209464E+03 0.  0.
          5    1    3    3  502    0 -0.63649639538E+02 -0.50466958354E+02 -0.14019818301E+03  0.16208390857E+03  0.41800000000E+01 0.  1.
         -5    1    3    3    0  502  0.28920054219E+02  0.30207411593E+02 -0.16358865903E+03  0.16890109240E+03  0.41800000000E+01 0.  1.
        -11    1    1    2    0    0  0.53406439865E+02 -0.64807908524E+01 -0.19593200568E+03  0.20318365908E+03  0.00000000000E+00 0.  1.
         11    1    1    2    0    0 -0.18676854546E+02  0.26740337613E+02 -0.74129061661E+02  0.80987581358E+02  0.00000000000E+00 0. -1.
</event>
<event>
 7    1  0.1068210E-005  0.1712608E+03  0.7561462E-02  0.1176539E+00
          1   -1    0    0  501    0  0.00000000000E+00  0.00000000000E+00  0.46266035135E+03  0.46266035135E+03  0.00000000000E+00 0. -1.
         -1   -1    0    0    0  501 -0.00000000000E+00 -0.00000000000E+00 -0.27130766249E+03  0.27130766249E+03  0.00000000000E+00 0.  1.
         23    2    1    2    0    0  0.63939059062E+02  0.12405900132E+03 -0.22031019042E+03  0.28924807835E+03  0.12509609003E+03 0.  0.
          5    1    3    3  502    0  0.51080501863E+02  0.18080148550E+01 -0.21804970068E+02  0.55726256899E+02  0.41800000000E+01 0. -1.
         -5    1    3    3    0  502  0.12858557199E+02  0.12225098647E+03 -0.19850522035E+03  0.23352182145E+03  0.41800000000E+01 0. -1.
        -11    1    1    2    0    0 -0.45033528452E+02 -0.23728592367E+01  0.11273519305E+03  0.12142023266E+03  0.00000000000E+00 0.  1.
         11    1    1    2    0    0 -0.18905530610E+02 -0.12168614209E+03  0.29892768622E+03  0.32329970283E+03  0.00000000000E+00 0. -1.
</event>
<event>
 7    1  0.1068210E-005  0.9080613E+02  0.7561462E-02  0.1300911E+00
          2   -1    0    0  501    0  0.00000000000E+00  0.00000000000E+00  0.32667139123E+02  0.32667139123E+02  0.00000000000E+00 0.  1.
         -2   -1    0    0    0  501 -0.00000000000E+00 -0.00000000000E+00 -0.40768156545E+03  0.40768156545E+03  0.00000000000E+00 0. -1.
         23    2    1    2    0    0  0.13209783211E+02  0.22445948861E+02 -0.27186251591E+03  0.30039154664E+03  0.12509010649E+03 0.  0.
          5    1    3    3  502    0 -0.16900890450E+02 -0.33493503725E+02 -0.24581964405E+02  0.45046645422E+02  0.41800000000E+01 0. -1.
         -5    1    3    3    0  502  0.30110673661E+02  0.55939452586E+02 -0.24728055151E+03  0.25534490122E+03  0.41800000000E+01 0. -1.
        -11    1    1    2    0    0 -0.37921197481E+02  0.10185901470E+02 -0.13703537645E+02  0.41587939972E+02  0.00000000000E+00 0.  1.
         11    1    1    2    0    0  0.24711414271E+02 -0.32631850331E+02 -0.89448372769E+02  0.98369217962E+02  0.00000000000E+00 0. -1.
</event>
<event>
 7    1  0.1068210E-005  0.1483610E+03  0.7561462E-02  0.1202502E+00
         -4   -1    0    0    0  501 -0.00000000000E+00  0.00000000000E+00  0.73020221540E+02  0.73020221540E+02  0.00000000000E+00 0.  1.
          4   -1    0    0  501    0  0.00000000000E+00 -0.00000000000E+00 -0.50937279284E+03  0.50937279284E+03  0.00000000000E+00 0. -1.
         23    2    1    2    0    0  0.14149072363E+03 -0.55039837212E+01 -0.12050560300E+03  0.22409209528E+03  0.12508296488E+03 0.  0.
          5    1    3    3  502    0  0.12621508063E+03  0.14943860292E+01 -0.27194059840E+02  0.12918772797E+03  0.41800000000E+01 0. -1.
         -5    1    3    3    0  502  0.15275643000E+02 -0.69983697504E+01 -0.93311543155E+02  0.94904367308E+02  0.41800000000E+01 0. -1.
        -11    1    1    2    0    0 -0.13066873183E+03 -0.13377144206E+02 -0.30855394954E+03  0.33534878148E+03  0.00000000000E+00 0. -1.
         11    1    1    2    0    0 -0.10821991799E+02  0.18881127927E+02 -0.72930187608E+01  0.22952137612E+02  0.00000000000E+00 0.  1.
</event>
<event>
 7    1  0.1068210E-005  0.8215397E+02  0.7561462E-02  0.1323048E+00
         -2   -1    0    0    0  501 -0.00000000000E+00  0.00000000000E+00  0.22592911429E+02  0.22592911429E+02  0.00000000000E+00 0.  1.
          2   -1    0    0  501    0  0.00000000000E+00 -0.00000000000E+00 -0.65929296359E+03  0.65929296359E+03  0.00000000000E+00 0. -1.
         23    2    1    2    0    0  0.16697123684E+02 -0.94172244107E+01 -0.21195691748E+03  0.24686191045E+03  0.12509032700E+03 0.  0.
          5    1    3    3  502    0 -0.17699241483E+02 -0.26165581505E+02 -0.20535779337E+03  0.20781529419E+03  0.41800000000E+01 0. -1.
         -5    1    3    3    0  502  0.34396365168E+02  0.16748357094E+02 -0.65991241143E+01  0.39046616258E+02  0.41800000000E+01 0. -1.
        -11    1    1    2    0    0 -0.22337078776E+02  0.49065467977E+02 -0.25125565556E+03  0.25697425880E+03  0.00000000000E+00 0.  1.
         11    1    1    2    0    0  0.56399550916E+01 -0.39648243566E+02 -0.17348747912E+03  0.17804970577E+03  0.00000000000E+00 0. -1.
</event>
<event>
 7    1  0.1068210E-005  0.1727739E+03  0.7561462E-02  0.1174986E+00
          2   -1    0    0  501    0  0.00000000000E+00  0.00000000000E+00  0.81081417832E+02  0.81081417832E+02  0.00000000000E+00 0. -1.
         -2   -1    0    0    0  501 -0.00000000000E+00 -0.00000000000E+00 -0.49936895327E+03  0.49936895327E+03  0.00000000000E+00 0.  1.
         23    2    1    2    0    0 -0.35381604281E+02 -0.13936385172E+03 -0.34695137051E+03  0.39584202128E+03  0.12506602745E+03 0.  0.
          5    1    3    3  502    0 -0.49313322820E+02 -0.17381623608E+02 -0.42398801688E+02  0.67446685844E+02  0.41800000000E+01 0. -1.
         -5    1    3    3    0  502  0.13931718540E+02 -0.12198222811E+03 -0.30455256883E+03  0.32839533543E+03  0.41800000000E+01 0. -1.
        -11    1    1    2    0    0 -0.64590480198E+01  0.12622843706E+03 -0.51690179740E+02  0.13655479598E+03  0.00000000000E+00 0.  1.
         11    1    1    2    0    0  0.41840652301E+02  0.13135414657E+02 -0.19645985183E+02  0.48053553843E+02  0.00000000000E+00 0. -1.
</event>
<event>
 7    1  0.1068210E-005  0.1023313E+03  0.7561462E-02  0.1275468E+00
          1   -1    0    0  501    0  0.00000000000E+00  0.00000000000E+00  0.20629643102E+02  0.20629643102E+02  0.00000000000E+00 0. -1.
         -1   -1    0    0    0  501 -0.00000000000E+00 -0.00000000000E+00 -0.52841111091E+03  0.52841111091E+03  0.00000000000E+00 0.  1.
         23    2    1    2    0    0  0.19006032974E+02  0.41713460500E+01 -0.34542050962E+03  0.36788847886E+03  0.12509186621E+03 0.  0.
          5    1    3    3  502    0  0.61696936529E+02  0.35964779966E+02 -0.16769200094E+03  0.18231307401E+03  0.41800000000E+01 0. -1.
         -5    1    3    3    0  502 -0.42690903555E+02 -0.31793433916E+02 -0.17772850868E+03  0.18557540484E+03  0.41800000000E+01 0. -1.
        -11    1    1    2    0    0 -0.30336190940E+02  0.30644450046E+02 -0.76601723236E+02  0.87904441310E+02  0.00000000000E+00 0.  1.
         11    1    1    2    0    0  0.11330157966E+02 -0.34815796096E+02 -0.85759234957E+02  0.93247833850E+02  0.00000000000E+00 0. -1.
</event>
<event>
 7    1  0.1068210E-005  0.1365478E+03  0.7561462E-02  0.1218051E+00
          2   -1    0    0  501    0  0.00000000000E+00  0.00000000000E+00  0.66467618799E+03  0.66467618799E+03  0.00000000000E+00 0. -1.
         -2   -1    0    0    0  501 -0.00000000000E+00 -0.00000000000E+00 -0.37586930716E+02  0.37586930716E+02  0.00000000000E+00 0.  1.
         23    2    1    2    0    0  0.31128389698E+02 -0.88506655994E+02  0.16219072541E+03  0.21922580779E+03  0.11380561758E+03 0.  0.
          5    1    3    3  502    0  0.70971625135E+02 -0.45503603882E+02  0.68874112460E+02  0.10894340415E+03  0.41800000000E+01 0. -1.
         -5    1    3    3    0  502 -0.39843235437E+02 -0.43003052112E+02  0.93316612948E+02  0.11028240364E+03  0.41800000000E+01 0.  1.
        -11    1    1    2    0    0 -0.62582786110E+02  0.49426466433E+02  0.25245429392E+03  0.26475035641E+03  0.00000000000E+00 0.  1.
         11    1    1    2    0    0  0.31454396412E+02  0.39080189562E+02  0.21244423795E+03  0.21828695451E+03  0.00000000000E+00 0. -1.
</event>
<event>
 7    1  0.1068210E-005  0.2147896E+03  0.7561462E-02  0.1137828E+00
          1   -1    0    0  501    0  0.00000000000E+00  0.00000000000E+00  0.35035887069E+03  0.35035887069E+03  0.00000000000E+00 0. -1.
         -1   -1    0    0    0  501 -0.00000000000E+00 -0.00000000000E+00 -0.14517156300E+03  0.14517156300E+03  0.00000000000E+00 0.  1.
         23    2    1    2    0    0 -0.17491248915E+03 -0.67958063270E+02  0.39001113898E+02  0.22886516699E+03  0.12508197532E+03 0.  0.
          5    1    3    3  502    0 -0.16876259099E+03 -0.14678916466E+02  0.43306194780E+02  0.17489763181E+03  0.41800000000E+01 0.  1.
         -5    1    3    3    0  502 -0.61498981562E+01 -0.53279146804E+02 -0.43050808824E+01  0.53967535175E+02  0.41800000000E+01 0.  1.
        -11    1    1    2    0    0  0.46480769403E+02 -0.20069883082E+02  0.24926316677E+02  0.56432113148E+02  0.00000000000E+00 0.  1.
         11    1    1    2    0    0  0.12843171974E+03  0.88027946352E+02  0.14125987711E+03  0.21023315356E+03  0.00000000000E+00 0. -1.
</event>
<event>
 7    1  0.1068210E-005  0.1051067E+03  0.7561462E-02  0.1269909E+00
          3   -1    0    0  501    0  0.00000000000E+00  0.00000000000E+00  0.14096854675E+03  0.14096854675E+03  0.00000000000E+00 0. -1.
         -3   -1    0    0    0  501 -0.00000000000E+00 -0.00000000000E+00 -0.10533336087E+03  0.10533336087E+03  0.00000000000E+00 0.  1.
         23    2    1    2    0    0  0.35184816995E+02  0.42989568287E+02  0.27419483672E+02  0.13959259023E+03  0.12509272095E+03 0.  0.
          5    1    3    3  502    0 -0.24205558085E+02  0.37721854669E+02  0.57221115129E+02  0.72805053249E+02  0.41800000000E+01 0.  1.
         -5    1    3    3    0  502  0.59390375080E+02  0.52677136174E+01 -0.29801631457E+02  0.66787536984E+02  0.41800000000E+01 0.  1.
        -11    1    1    2    0    0 -0.60443931527E+02 -0.61423755197E+01  0.11805689724E+02  0.61891614499E+02  0.00000000000E+00 0.  1.
         11    1    1    2    0    0  0.25259114532E+02 -0.36847192767E+02 -0.35899875187E+01  0.44817702888E+02  0.00000000000E+00 0. -1.
</event>
<event>
 7    1  0.1068210E-005  0.9674441E+02  0.7561462E-02  0.1287295E+00
          1   -1    0    0  501    0  0.00000000000E+00  0.00000000000E+00  0.10417336210E+03  0.10417336210E+03  0.00000000000E+00 0. -1.
         -1   -1    0    0    0  501 -0.00000000000E+00 -0.00000000000E+00 -0.13867459286E+03  0.13867459286E+03  0.00000000000E+00 0.  1.
         23    2    1    2    0    0 -0.13050749570E+02  0.27385783850E+02 -0.61971169633E+02  0.14285658448E+03  0.12508906683E+03 0.  0.
          5    1    3    3  502    0  0.25283593861E+02 -0.24841413261E+02 -0.68871833806E+02  0.77570341131E+02  0.41800000000E+01 0. -1.
         -5    1    3    3    0  502 -0.38334343431E+02  0.52227197111E+02  0.69006641736E+01  0.65286243347E+02  0.41800000000E+01 0. -1.
        -11    1    1    2    0    0  0.50772071344E+02 -0.19179703884E+02  0.28646037174E+02  0.61369859991E+02  0.00000000000E+00 0. -1.
         11    1    1    2    0    0 -0.37721321774E+02 -0.82060799659E+01 -0.11760983020E+01  0.38621510483E+02  0.00000000000E+00 0.  1.
</event>
<event>
 7    1  0.1068210E-005  0.1497167E+03  0.7561462E-02  0.1200822E+00
          2   -1    0    0  501    0  0.00000000000E+00  0.00000000000E+00  0.56930940738E+02  0.56930940738E+02  0.00000000000E+00 0. -1.
         -2   -1    0    0    0  501 -0.00000000000E+00 -0.00000000000E+00 -0.48913125317E+03  0.48913125317E+03  0.00000000000E+00 0.  1.
         23    2    1    2    0    0  0.11574998021E+03 -0.16516408079E+02 -0.30707083280E+03  0.35158189928E+03  0.12508591404E+03 0.  0.
          5    1    3    3  502    0  0.13049997329E+03  0.13466085996E+02 -0.19903706866E+03  0.23842148729E+03  0.41800000000E+01 0.  1.
         -5    1    3    3    0  502 -0.14749993087E+02 -0.29982494075E+02 -0.10803376414E+03  0.11316041199E+03  0.41800000000E+01 0.  1.
        -11    1    1    2    0    0 -0.62228134323E+02  0.42145990977E+02 -0.11002782507E+03  0.13324694198E+03  0.00000000000E+00 0.  1.
         11    1    1    2    0    0 -0.53521845885E+02 -0.25629582898E+02 -0.15101654565E+02  0.61233352653E+02  0.00000000000E+00 0. -1.
</event>
<event>
 7    1  0.1068210E-005  0.1116300E+03  0.7561462E-02  0.1257581E+00
         -1   -1    0    0    0  501 -0.00000000000E+00  0.00000000000E+00  0.11190417367E+02  0.11190417367E+02  0.00000000000E+00 0.  1.
          1   -1    0    0  501    0  0.00000000000E+00 -0.00000000000E+00 -0.12590846530E+04  0.12590846530E+04  0.00000000000E+00 0. -1.
         23    2    1    2    0    0  0.41673098061E+01 -0.50846967417E+02 -0.70340154887E+03  0.71625418184E+03  0.12507411193E+03 0.  0.
          5    1    3    3  502    0 -0.28971916316E+02  0.24744980671E+02 -0.97851435759E+02  0.10509073167E+03  0.41800000000E+01 0. -1.
         -5    1    3    3    0  502  0.33139226122E+02 -0.75591948088E+02 -0.60555011312E+03  0.61116345017E+03  0.41800000000E+01 0. -1.
        -11    1    1    2    0    0 -0.29517773439E+02  0.66317056784E+02 -0.39134433238E+03  0.39801964456E+03  0.00000000000E+00 0.  1.
         11    1    1    2    0    0  0.25350463633E+02 -0.15470089366E+02 -0.15314835437E+03  0.15600124396E+03  0.00000000000E+00 0. -1.
</event>
<event>
 7    1  0.1068210E-005  0.1211913E+03  0.7561462E-02  0.1241145E+00
         -2   -1    0    0    0  501 -0.00000000000E+00  0.00000000000E+00  0.18226881988E+03  0.18226881988E+03  0.00000000000E+00 0.  1.
          2   -1    0    0  501    0  0.00000000000E+00 -0.00000000000E+00 -0.94895289168E+02  0.94895289168E+02  0.00000000000E+00 0. -1.
         23    2    1    2    0    0 -0.40274218298E+02 -0.54059223327E+02  0.85493869556E+02  0.15717976829E+03  0.11336606874E+03 0.  0.
          5    1    3    3  502    0 -0.71448586649E+02 -0.32738732738E+01  0.39697015132E+02  0.81908144838E+02  0.41800000000E+01 0. -1.
         -5    1    3    3    0  502  0.31174368352E+02 -0.50785350053E+02  0.45796854424E+02  0.75271623453E+02  0.41800000000E+01 0.  1.
        -11    1    1    2    0    0  0.68110084664E+02  0.45377950946E+02 -0.19126587719E+02  0.84047417705E+02  0.00000000000E+00 0.  1.
         11    1    1    2    0    0 -0.27835866367E+02  0.86812723802E+01  0.21006248870E+02  0.35936923048E+02  0.00000000000E+00 0. -1.
</event>
<event>
 7    1  0.1068210E-005  0.1048247E+03  0.7561462E-02  0.1270465E+00
         -1   -1    0    0    0  501 -0.00000000000E+00  0.00000000000E+00  0.15313774074E+02  0.15313774074E+02  0.00000000000E+00 0.  1.
          1   -1    0    0  501    0  0.00000000000E+00 -0.00000000000E+00 -0.75439792524E+03  0.75439792524E+03  0.00000000000E+00 0. -1.
         23    2    1    2    0    0 -0.93709575043E+00  0.89992010731E+01 -0.40190764986E+03  0.42100252493E+03  0.12502601016E+03 0.  0.
          5    1    3    3  502    0 -0.50703710969E+02  0.37794213101E+02 -0.15505058261E+03  0.16750350568E+03  0.41800000000E+01 0. -1.
         -5    1    3    3    0  502  0.49766615219E+02 -0.28795012028E+02 -0.24685706725E+03  0.25349901925E+03  0.41800000000E+01 0. -1.
        -11    1    1    2    0    0 -0.33917828994E+02  0.23262940870E+02 -0.14192920738E+03  0.14776834386E+03  0.00000000000E+00 0. -1.
         11    1    1    2    0    0  0.34854924745E+02 -0.32262141943E+02 -0.19524729394E+03  0.20094083052E+03  0.00000000000E+00 0.  1.
</event>
<event>
 6    1  0.1068210E-005  0.1469986E+03  0.7561462E-02  0.1204210E+00
         -1   -1    0    0    0  501 -0.00000000000E+00  0.00000000000E+00  0.83709613446E+02  0.83709613446E+02  0.00000000000E+00 0.  1.
          1   -1    0    0  501    0  0.00000000000E+00 -0.00000000000E+00 -0.30702336556E+03  0.30702336556E+03  0.00000000000E+00 0. -1.
          5    1    1    2  502    0  0.46005177155E+02  0.85492867869E+02 -0.12220089770E+03  0.15612827604E+03  0.41800000000E+01 0. -1.
         -5    1    1    2    0  502 -0.75077286852E+02 -0.92645901258E-01 -0.68242869420E+01  0.75502654765E+02  0.41800000000E+01 0.  1.
        -11    1    1    2    0    0  0.46556015172E+02 -0.14734332691E+02 -0.63393703125E+02  0.80020776705E+02  0.00000000000E+00 0. -1.
         11    1    1    2    0    0 -0.17483905475E+02 -0.70665889276E+02 -0.30894864347E+02  0.79081271493E+02  0.00000000000E+00 0.  1.
</event>
<event>
 7    1  0.1068210E-005  0.8407169E+02  0.7561462E-02  0.1317878E+00
          2   -1    0    0  501    0  0.00000000000E+00  0.00000000000E+00  0.14864030020E+03  0.14864030020E+03  0.00000000000E+00 0. -1.
         -2   -1    0    0    0  501 -0.00000000000E+00 -0.00000000000E+00 -0.11006984024E+03  0.11006984024E+03  0.00000000000E+00 0.  1.
         23    2    1    2    0    0  0.50305266392E+02 -0.39372344138E+02 -0.42828238380E+01  0.14052301929E+03  0.12509026765E+03 0.  0.
          5    1    3    3  502    0  0.58852645291E+02 -0.37281926861E+02 -0.55011883194E+02  0.88867067132E+02  0.41800000000E+01 0. -1.
         -5    1    3    3    0  502 -0.85473788983E+01 -0.20904172763E+01  0.50729059356E+02  0.51655952160E+02  0.41800000000E+01 0. -1.
        -11    1    1    2    0    0 -0.42529878567E+02  0.55961106989E+02  0.60507468294E+02  0.92744756109E+02  0.00000000000E+00 0. -1.
         11    1    1    2    0    0 -0.77753878257E+01 -0.16588762851E+02 -0.17654184496E+02  0.25442365043E+02  0.00000000000E+00 0.  1.
</event>
<event>
 7    1  0.1068210E-005  0.1587736E+03  0.7561462E-02  0.1190088E+00
          1   -1    0    0  501    0  0.00000000000E+00  0.00000000000E+00  0.16810873122E+02  0.16810873122E+02  0.00000000000E+00 0. -1.
         -1   -1    0    0    0  501 -0.00000000000E+00 -0.00000000000E+00 -0.16127920295E+04  0.16127920295E+04  0.00000000000E+00 0.  1.
         23    2    1    2    0    0  0.11672586310E+03  0.39641250736E+02 -0.91364747264E+03  0.93037183247E+03  0.12507472373E+03 0.  0.
          5    1    3    3  502    0  0.14861931435E+02  0.66866538687E+02 -0.42027640317E+03  0.42584238688E+03  0.41800000000E+01 0.  1.
         -5    1    3    3    0  502  0.10186393166E+03 -0.27225287952E+02 -0.49337106947E+03  0.50452944559E+03  0.41800000000E+01 0.  1.
        -11    1    1    2    0    0 -0.11770902402E+03 -0.53647979904E+02 -0.66200160956E+03  0.67452179441E+03  0.00000000000E+00 0.  1.
         11    1    1    2    0    0  0.98316092085E+00  0.14006729168E+02 -0.20332074224E+02  0.24709275781E+02  0.00000000000E+00 0. -1.
</event>
<event>
 7    1  0.1068210E-005  0.1124599E+03  0.7561462E-02  0.1256081E+00
          1   -1    0    0  501    0  0.00000000000E+00  0.00000000000E+00  0.21745163514E+03  0.21745163514E+03  0.00000000000E+00 0. -1.
         -1   -1    0    0    0  501 -0.00000000000E+00 -0.00000000000E+00 -0.84039366317E+02  0.84039366317E+02  0.00000000000E+00 0.  1.
         23    2    1    2    0    0 -0.33883669040E+02  0.35746884020E+02  0.21594998955E+01  0.13445560617E+03  0.12509078241E+03 0.  0.
          5    1    3    3  502    0  0.28246798373E+02  0.59403826632E+02 -0.10231617247E+02  0.66699734844E+02  0.41800000000E+01 0. -1.
         -5    1    3    3    0  502 -0.62130467412E+02 -0.23656942612E+02  0.12391117142E+02  0.67755871322E+02  0.41800000000E+01 0. -1.
        -11    1    1    2    0    0  0.51946211862E+02  0.44418153083E+00  0.35026036408E+02  0.62653247725E+02  0.00000000000E+00 0. -1.
         11    1    1    2    0    0 -0.18062542822E+02 -0.36191065551E+02  0.96226732518E+02  0.10438214756E+03  0.00000000000E+00 0.  1.
</event>
<event>
 7    1  0.1068210E-005  0.1164517E+03  0.7561462E-02  0.1249068E+00
          1   -1    0    0  501    0  0.00000000000E+00  0.00000000000E+00  0.18851504209E+03  0.18851504209E+03  0.00000000000E+00 0.  1.
         -1   -1    0    0    0  501 -0.00000000000E+00 -0.00000000000E+00 -0.10579097791E+03  0.10579097791E+03  0.00000000000E+00 0. -1.
         23    2    1    2    0    0 -0.32945665452E+02 -0.60822683596E+02 -0.15678363554E+02  0.14380030037E+03  0.12509156483E+03 0.  0.
          5    1    3    3  502    0 -0.71157020796E+02 -0.24662242514E+02  0.22447102520E+02  0.78694933928E+02  0.41800000000E+01 0. -1.
         -5    1    3    3    0  502  0.38211355344E+02 -0.36160441082E+02 -0.38125466074E+02  0.65105366444E+02  0.41800000000E+01 0. -1.
        -11    1    1    2    0    0 -0.29058657050E+01 -0.17935217578E+02  0.45716316410E+02  0.49194488220E+02  0.00000000000E+00 0. -1.
         11    1    1    2    0    0  0.35851531157E+02  0.78757901174E+02  0.52686111325E+02  0.10131123141E+03  0.00000000000E+00 0.  1.
</event>
<event>
 7    1  0.1068210E-005  0.8456849E+02  0.7561462E-02  0.1316565E+00
         -1   -1    0    0    0  501 -0.00000000000E+00  0.00000000000E+00  0.96143794856E+02  0.96143794856E+02  0.00000000000E+00 0.  1.
          1   -1    0    0  501    0  0.00000000000E+00 -0.00000000000E+00 -0.12522354462E+03  0.12522354462E+03  0.00000000000E+00 0. -1.
         23    2    1    2    0    0 -0.32361797079E+01  0.19728363881E+02 -0.15642155958E+02  0.12764223165E+03  0.12509268986E+03 0.  0.
          5    1    3    3  502    0  0.46270077811E+02  0.45342809136E+02  0.10793871608E+02  0.65809349680E+02  0.41800000000E+01 0.  1.
         -5    1    3    3    0  502 -0.49506257519E+02 -0.25614445255E+02 -0.26436027566E+02  0.61832881970E+02  0.41800000000E+01 0.  1.
        -11    1    1    2    0    0 -0.19894562161E+02 -0.14472555011E+02  0.33247263350E+02  0.41359750632E+02  0.00000000000E+00 0.  1.
         11    1    1    2    0    0  0.23130741869E+02 -0.52558088697E+01 -0.46684857158E+02  0.52365357195E+02  0.00000000000E+00 0. -1.
</event>
<event>
 7    1  0.1068210E-005  0.9779317E+02  0.7561462E-02  0.1285006E+00
          1   -1    0    0  501    0  0.00000000000E+00  0.00000000000E+00  0.49671773554E+03  0.49671773554E+03  0.00000000000E+00 0. -1.
         -1   -1    0    0    0  501 -0.00000000000E+00 -0.00000000000E+00 -0.24890831499E+02  0.24890831499E+02  0.00000000000E+00 0.  1.
         23    2    1    2    0    0  0.60166781533E+01 -0.57079794913E+00  0.21521580722E+03  0.24900389879E+03  0.12509425131E+03 0.  0.
          5    1    3    3  502    0 -0.18006185523E+02  0.49307145909E+02  0.42764015226E+02  0.67835468252E+02  0.41800000000E+01 0. -1.
         -5    1    3    3    0  502  0.24022863676E+02 -0.49877943858E+02  0.17245179199E+03  0.18116843054E+03  0.41800000000E+01 0. -1.
        -11    1    1    2    0    0  0.16019260586E+02  0.39528345949E+02  0.83003652003E+02  0.93320485902E+02  0.00000000000E+00 0.  1.
         11    1    1    2    0    0 -0.22035938739E+02 -0.38957548000E+02  0.17360744482E+03  0.17928418234E+03  0.00000000000E+00 0. -1.
</event>
<event>
 7    1  0.1068210E-005  0.9154351E+02  0.7561462E-02  0.1299156E+00
         -3   -1    0    0    0  501 -0.00000000000E+00  0.00000000000E+00  0.25980168520E+03  0.25980168520E+03  0.00000000000E+00 0. -1.
          3   -1    0    0  501    0  0.00000000000E+00 -0.00000000000E+00 -0.73068980881E+02  0.73068980881E+02  0.00000000000E+00 0.  1.
         23    2    1    2    0    0 -0.12574868616E+01  0.70118544311E+02  0.15924650677E+03  0.21429541062E+03  0.12507950098E+03 0.  0.
          5    1    3    3  502    0  0.40453570872E+02  0.16417447412E+02  0.31385043909E+01  0.43969837226E+02  0.41800000000E+01 0. -1.
         -5    1    3    3    0  502 -0.41711057734E+02  0.53701096899E+02  0.15610800238E+03  0.17032557339E+03  0.41800000000E+01 0. -1.
        -11    1    1    2    0    0  0.61178469884E+01 -0.51467398149E+02  0.60919332234E+02  0.79984286981E+02  0.00000000000E+00 0. -1.
         11    1    1    2    0    0 -0.48603601268E+01 -0.18651146162E+02 -0.33433134682E+02  0.38590968482E+02  0.00000000000E+00 0.  1.
</event>
<event>
 7    1  0.1068210E-005  0.1201575E+03  0.7561462E-02  0.1242837E+00
          2   -1    0    0  501    0  0.00000000000E+00  0.00000000000E+00  0.17326083146E+02  0.17326083146E+02  0.00000000000E+00 0. -1.
         -2   -1    0    0    0  501 -0.00000000000E+00 -0.00000000000E+00 -0.10134106117E+04  0.10134106117E+04  0.00000000000E+00 0.  1.
         23    2    1    2    0    0 -0.25113110349E+01 -0.59498390966E+02 -0.71830053466E+03  0.73153908243E+03  0.12508959116E+03 0.  0.
          5    1    3    3  502    0  0.52156832399E+02 -0.56853352227E+02 -0.30617261505E+03  0.31577172361E+03  0.41800000000E+01 0. -1.
         -5    1    3    3    0  502 -0.54668143434E+02 -0.26450387390E+01 -0.41212791962E+03  0.41576735883E+03  0.41800000000E+01 0. -1.
        -11    1    1    2    0    0  0.32797457678E+02 -0.83605841563E+01 -0.57555490803E+02  0.66769806943E+02  0.00000000000E+00 0.  1.
         11    1    1    2    0    0 -0.30286146643E+02  0.67858975123E+02 -0.22022850307E+03  0.23242780545E+03  0.00000000000E+00 0. -1.
</event>
<event>
 7    1  0.1068210E-005  0.1222149E+03  0.7561462E-02  0.1239487E+00
          1   -1    0    0  501    0  0.00000000000E+00  0.00000000000E+00  0.41063924006E+02  0.41063924006E+02  0.00000000000E+00 0. -1.
         -1   -1    0    0    0  501 -0.00000000000E+00 -0.00000000000E+00 -0.80443928941E+03  0.80443928941E+03  0.00000000000E+00 0.  1.
         23    2    1    2    0    0 -0.95184546361E+02  0.38194638892E+02 -0.62834768916E+03  0.64883679489E+03  0.12509772030E+03 0.  0.
          5    1    3    3  502    0 -0.82141858228E+01  0.42313022658E+02 -0.60866241562E+02  0.74699641880E+02  0.41800000000E+01 0.  1.
         -5    1    3    3    0  502 -0.86970360538E+02 -0.41183837659E+01 -0.56748144760E+03  0.57413715301E+03  0.41800000000E+01 0.  1.
        -11    1    1    2    0    0  0.68965223208E+01 -0.23453397442E+02  0.98595150042E+01  0.26359702346E+02  0.00000000000E+00 0. -1.
         11    1    1    2    0    0  0.88288024040E+02 -0.14741241450E+02 -0.14488719124E+03  0.17030671618E+03  0.00000000000E+00 0.  1.
</event>
<event>
 7    1  0.1068210E-005  0.1311305E+03  0.7561462E-02  0.1225788E+00
         -1   -1    0    0    0  501 -0.00000000000E+00  0.00000000000E+00  0.22258122382E+02  0.22258122382E+02  0.00000000000E+00 0.  1.
          1   -1    0    0  501    0  0.00000000000E+00 -0.00000000000E+00 -0.81104107219E+03  0.81104107219E+03  0.00000000000E+00 0. -1.
         23    2    1    2    0    0  0.46097131914E+02 -0.60271969491E+02 -0.36105347997E+03  0.38956957104E+03  0.12508868616E+03 0.  0.
          5    1    3    3  502    0  0.69380790116E+02  0.11733063390E+02 -0.17741106893E+03  0.19090185592E+03  0.41800000000E+01 0. -1.
         -5    1    3    3    0  502 -0.23283658202E+02 -0.72005032881E+02 -0.18364241104E+03  0.19866771513E+03  0.41800000000E+01 0. -1.
        -11    1    1    2    0    0  0.52207504508E+01 -0.20019653402E+02 -0.48845201772E+02  0.53046173224E+02  0.00000000000E+00 0.  1.
         11    1    1    2    0    0 -0.51317882365E+02  0.80291622893E+02 -0.37888426806E+03  0.39068345031E+03  0.00000000000E+00 0. -1.
</event>
<event>
 7    1  0.1068210E-005  0.1131484E+03  0.7561462E-02  0.1254848E+00
         -2   -1    0    0    0  501 -0.00000000000E+00  0.00000000000E+00  0.65149896237E+02  0.65149896237E+02  0.00000000000E+00 0.  1.
          2   -1    0    0  501    0  0.00000000000E+00 -0.00000000000E+00 -0.45286373659E+03  0.45286373659E+03  0.00000000000E+00 0. -1.
         23    2    1    2    0    0 -0.91881210953E+02  0.19913178136E+02 -0.62479423644E+02  0.16849336673E+03  0.12509054586E+03 0.  0.
          5    1    3    3  502    0 -0.59764147660E+02 -0.67468719300E+00 -0.98869171828E+02  0.11560620263E+03  0.41800000000E+01 0.  1.
         -5    1    3    3    0  502 -0.32117063293E+02  0.20587865329E+02  0.36389748184E+02  0.52887164097E+02  0.41800000000E+01 0.  1.
        -11    1    1    2    0    0  0.47469216137E+01 -0.38599035628E+02 -0.97197270028E+02  0.10468872010E+03  0.00000000000E+00 0. -1.
         11    1    1    2    0    0  0.87134289339E+02  0.18685857492E+02 -0.22803714668E+03  0.24483154600E+03  0.00000000000E+00 0.  1.
</event>
<event>
 7    1  0.1068210E-005  0.8329004E+02  0.7561462E-02  0.1319966E+00
         -1   -1    0    0    0  501 -0.00000000000E+00  0.00000000000E+00  0.42214793170E+03  0.42214793170E+03  0.00000000000E+00 0.  1.
          1   -1    0    0  501    0  0.00000000000E+00 -0.00000000000E+00 -0.28347420209E+02  0.28347420209E+02  0.00000000000E+00 0. -1.
         23    2    1    2    0    0 -0.11707159182E+01  0.71384362337E+01  0.24480985213E+03  0.27501405852E+03  0.12509412790E+03 0.  0.
          5    1    3    3  502    0  0.59506150366E+01  0.49461628390E+02  0.21926990473E+03  0.22489692310E+03  0.41800000000E+01 0.  1.
         -5    1    3    3    0  502 -0.71213309548E+01 -0.42323192156E+02  0.25539947402E+02  0.50117135415E+02  0.41800000000E+01 0.  1.
        -11    1    1    2    0    0 -0.16213016068E+02  0.29078324472E+02  0.12348827439E+03  0.12789747752E+03  0.00000000000E+00 0.  1.
         11    1    1    2    0    0  0.17383731986E+02 -0.36216760705E+02  0.25502384974E+02  0.47583815874E+02  0.00000000000E+00 0. -1.
</event>
<event>
 7    1  0.1068210E-005  0.2582510E+03  0.7561462E-02  0.1108199E+00
          2   -1    0    0  501    0  0.00000000000E+00  0.00000000000E+00  0.82976363520E+03  0.82976363520E+03  0.00000000000E+00 0. -1.
         -2   -1    0    0    0  501 -0.00000000000E+00 -0.00000000000E+00 -0.10797491285E+03  0.10797491285E+03  0.00000000000E+00 0.  1.
         23    2    1    2    0    0 -0.18828228168E+03 -0.14105893509E+03  0.13418080585E+03  0.29832940700E+03  0.12509238849E+03 0.  0.
          5    1    3    3  502    0  0.15366431798E+02 -0.29215992179E+02  0.24780623177E+02  0.41487987541E+02  0.41800000000E+01 0. -1.
         -5    1    3    3    0  502 -0.20364871348E+03 -0.11184294291E+03  0.10940018267E+03  0.25684141946E+03  0.41800000000E+01 0. -1.
        -11    1    1    2    0    0  0.14323929273E+03  0.54469305245E+02  0.38948738506E+03  0.41855086108E+03  0.00000000000E+00 0.  1.
         11    1    1    2    0    0  0.45042988954E+02  0.86589629848E+02  0.19812053145E+03  0.22085827997E+03  0.00000000000E+00 0. -1.
</event>
<event>
 7    1  0.1068210E-005  0.1048664E+03  0.7561462E-02  0.1270383E+00
         -1   -1    0    0    0  501 -0.00000000000E+00  0.00000000000E+00  0.10416281913E+04  0.10416281913E+04  0.00000000000E+00 0.  1.
          1   -1    0    0  501    0  0.00000000000E+00 -0.00000000000E+00 -0.13034967928E+02  0.13034967928E+02  0.00000000000E+00 0. -1.
         23    2    1    2    0    0 -0.39777022034E+02 -0.12716761896E+02  0.60661363024E+03  0.62078954169E+03  0.12512246466E+03 0.  0.
          5    1    3    3  502    0 -0.75289283667E+02 -0.14393624962E+02  0.22988122305E+03  0.24236027271E+03  0.41800000000E+01 0. -1.
         -5    1    3    3    0  502  0.35512261633E+02  0.16768630659E+01  0.37673240719E+03  0.37842926898E+03  0.41800000000E+01 0. -1.
        -11    1    1    2    0    0  0.32045489024E+01  0.46959297789E+02  0.26325373571E+03  0.26742844678E+03  0.00000000000E+00 0.  1.
         11    1    1    2    0    0  0.36572473131E+02 -0.34242535893E+02  0.15872585747E+03  0.16644517081E+03  0.00000000000E+00 0. -1.
</event>
<event>
 7    1  0.1068210E-005  0.9674291E+02  0.7561462E-02  0.1287298E+00
          2   -1    0    0  501    0  0.00000000000E+00  0.00000000000E+00  0.45221866699E+03  0.45221866699E+03  0.00000000000E+00 0. -1.
         -2   -1    0    0    0  501 -0.00000000000E+00 -0.00000000000E+00 -0.29876266137E+02  0.29876266137E+02  0.00000000000E+00 0.  1.
         23    2    1    2    0    0  0.42543715136E+02  0.77415561617E+00  0.22821124017E+03  0.26370306430E+03  0.12509344095E+03 0.  0.
          5    1    3    3  502    0  0.51471525547E+01 -0.54580214569E+02  0.15521366696E+03  0.16466404529E+03  0.41800000000E+01 0.  1.
         -5    1    3    3    0  502  0.37396562581E+02  0.55354370185E+02  0.72997573217E+02  0.99039019013E+02  0.41800000000E+01 0.  1.
        -11    1    1    2    0    0 -0.25262306003E+02 -0.29009170146E+02  0.17697343052E+03  0.18110580103E+03  0.00000000000E+00 0. -1.
         11    1    1    2    0    0 -0.17281409133E+02  0.28235014530E+02  0.17157730161E+02  0.37286067792E+02  0.00000000000E+00 0.  1.
</event>
<event>
 7    1  0.1068210E-005  0.8936338E+02  0.7561462E-02  0.1304401E+00
         -3   -1    0    0    0  501 -0.00000000000E+00  0.00000000000E+00  0.24967068644E+03  0.24967068644E+03  0.00000000000E+00 0.  1.
          3   -1    0    0  501    0  0.00000000000E+00 -0.00000000000E+00 -0.69165246608E+02  0.69165246608E+02  0.00000000000E+00 0. -1.
         23    2    1    2    0    0 -0.34600473592E+02 -0.99716040777E+01  0.17900475071E+03  0.22132839318E+03  0.12508769400E+03 0.  0.
          5    1    3    3  502    0 -0.24969464634E+02  0.51459976926E+02  0.12986079635E+03  0.14196091792E+03  0.41800000000E+01 0. -1.
         -5    1    3    3    0  502 -0.96310089586E+01 -0.61431581004E+02  0.49143954360E+02  0.79367475254E+02  0.41800000000E+01 0. -1.
        -11    1    1    2    0    0  0.21565103711E+02  0.28907458284E+02  0.39253584690E+02  0.53306085521E+02  0.00000000000E+00 0.  1.
         11    1    1    2    0    0  0.13035369882E+02 -0.18935854206E+02 -0.37752895569E+02  0.44201454346E+02  0.00000000000E+00 0. -1.
</event>
<event>
 7    1  0.1068210E-005  0.1113349E+03  0.7561462E-02  0.1258118E+00
          1   -1    0    0  501    0  0.00000000000E+00  0.00000000000E+00  0.32421946011E+02  0.32421946011E+02  0.00000000000E+00 0. -1.
         -1   -1    0    0    0  501 -0.00000000000E+00 -0.00000000000E+00 -0.82089518512E+03  0.82089518512E+03  0.00000000000E+00 0.  1.
         23    2    1    2    0    0 -0.65446541539E+02  0.65774612376E+02 -0.63122338853E+03  0.65015431076E+03  0.12509241438E+03 0.  0.
          5    1    3    3  502    0  0.11421655800E+02  0.22741577317E+02 -0.42604063367E+03  0.42682048627E+03  0.41800000000E+01 0.  1.
         -5    1    3    3    0  502 -0.76868197339E+02  0.43033035059E+02 -0.20518275487E+03  0.22333382449E+03  0.41800000000E+01 0.  1.
        -11    1    1    2    0    0  0.23524232219E+02 -0.62332363656E+02 -0.37971030125E+02  0.76684497711E+02  0.00000000000E+00 0. -1.
         11    1    1    2    0    0  0.41922309320E+02 -0.34422487199E+01 -0.11927882045E+03  0.12647832266E+03  0.00000000000E+00 0.  1.
</event>
<event>
 7    1  0.1068210E-005  0.1034521E+03  0.7561462E-02  0.1273200E+00
          4   -1    0    0  501    0  0.00000000000E+00  0.00000000000E+00  0.33528684806E+02  0.33528684806E+02  0.00000000000E+00 0. -1.
         -4   -1    0    0    0  501 -0.00000000000E+00 -0.00000000000E+00 -0.48018093705E+03  0.48018093705E+03  0.00000000000E+00 0.  1.
         23    2    1    2    0    0  0.20033940641E+02  0.55375542345E+02 -0.30933630289E+03  0.33882935031E+03  0.12509424799E+03 0.  0.
          5    1    3    3  502    0  0.63106862842E+02  0.36172436984E+00 -0.10220584179E+03  0.12019198591E+03  0.41800000000E+01 0.  1.
         -5    1    3    3    0  502 -0.43072922201E+02  0.55013817975E+02 -0.20713046110E+03  0.21863736440E+03  0.41800000000E+01 0.  1.
        -11    1    1    2    0    0 -0.32277891800E+02 -0.24730557182E+02 -0.13589613724E+03  0.14184929635E+03  0.00000000000E+00 0.  1.
         11    1    1    2    0    0  0.12243951159E+02 -0.30644985162E+02 -0.14198121093E+01  0.33030975190E+02  0.00000000000E+00 0. -1.
</event>
<event>
 7    1  0.1068210E-005  0.9960202E+02  0.7561462E-02  0.1281135E+00
         -1   -1    0    0    0  501 -0.00000000000E+00  0.00000000000E+00  0.50017957279E+03  0.50017957279E+03  0.00000000000E+00 0.  1.
          1   -1    0    0  501    0  0.00000000000E+00 -0.00000000000E+00 -0.27469253427E+02  0.27469253427E+02  0.00000000000E+00 0. -1.
         23    2    1    2    0    0 -0.38275888048E+02  0.23309906328E+02  0.23671727817E+03  0.27146008902E+03  0.12508842794E+03 0.  0.
          5    1    3    3  502    0 -0.56193418481E+02 -0.14007591487E+02  0.40285830014E+02  0.70670597845E+02  0.41800000000E+01 0.  1.
         -5    1    3    3    0  502  0.17917530433E+02  0.37317497815E+02  0.19643144816E+03  0.20078949117E+03  0.41800000000E+01 0.  1.
        -11    1    1    2    0    0  0.45910970398E+02 -0.52278320210E+02  0.15803844538E+03  0.17267596875E+03  0.00000000000E+00 0.  1.
         11    1    1    2    0    0 -0.76350823501E+01  0.28968413882E+02  0.77954595811E+02  0.83512768445E+02  0.00000000000E+00 0. -1.
</event>
<event>
 7    1  0.1068210E-005  0.2213731E+03  0.7561462E-02  0.1132863E+00
          1   -1    0    0  501    0  0.00000000000E+00  0.00000000000E+00  0.10850016496E+04  0.10850016496E+04  0.00000000000E+00 0. -1.
         -1   -1    0    0    0  501 -0.00000000000E+00 -0.00000000000E+00 -0.62662734873E+02  0.62662734873E+02  0.00000000000E+00 0.  1.
         23    2    1    2    0    0  0.39162708719E+02 -0.19476213843E+03  0.23641047508E+03  0.33317503953E+03  0.12509870470E+03 0.  0.
          5    1    3    3  502    0 -0.42312729391E+02 -0.88808415735E+02  0.76287140033E+02  0.12455722343E+03  0.41800000000E+01 0.  1.
         -5    1    3    3    0  502  0.81475438110E+02 -0.10595372270E+03  0.16012333505E+03  0.20861781610E+03  0.41800000000E+01 0.  1.
        -11    1    1    2    0    0  0.18924957599E+02  0.76460280416E+02  0.36536403362E+03  0.37375821806E+03  0.00000000000E+00 0.  1.
         11    1    1    2    0    0 -0.58087666318E+02  0.11830185802E+03  0.42056440601E+03  0.44073112686E+03  0.00000000000E+00 0. -1.
</event>
<event>
 7    1  0.1068210E-005  0.1101889E+03  0.7561462E-02  0.1260220E+00
          1   -1    0    0  501    0  0.00000000000E+00  0.00000000000E+00  0.42146453869E+02  0.42146453869E+02  0.00000000000E+00 0. -1.
         -1   -1    0    0    0  501 -0.00000000000E+00 -0.00000000000E+00 -0.32806034203E+03  0.32806034203E+03  0.00000000000E+00 0.  1.
         23    2    1    2    0    0 -0.10855811354E+02 -0.38603194414E+02 -0.19375461189E+03  0.23408290146E+03  0.12508357153E+03 0.  0.
          5    1    3    3  502    0 -0.62287745662E+02 -0.29661861433E+02 -0.64156585478E+02  0.94303388823E+02  0.41800000000E+01 0. -1.
         -5    1    3    3    0  502  0.51431934308E+02 -0.89413329816E+01 -0.12959802641E+03  0.13977951263E+03  0.41800000000E+01 0. -1.
        -11    1    1    2    0    0  0.38561127433E+02  0.54641842447E+02 -0.51700276016E+02  0.84531710234E+02  0.00000000000E+00 0.  1.
         11    1    1    2    0    0 -0.27705316079E+02 -0.16038648033E+02 -0.40459000252E+02  0.51592184206E+02  0.00000000000E+00 0. -1.
</event>
<event>
 7    1  0.1068210E-005  0.1116051E+03  0.7561462E-02  0.1257626E+00
          2   -1    0    0  501    0  0.00000000000E+00  0.00000000000E+00  0.45131377212E+02  0.45131377212E+02  0.00000000000E+00 0. -1.
         -2   -1    0    0    0  501 -0.00000000000E+00 -0.00000000000E+00 -0.60451345639E+03  0.60451345639E+03  0.00000000000E+00 0.  1.
         23    2    1    2    0    0 -0.21825358635E+01  0.10813105390E+03 -0.40337557138E+03  0.43595447421E+03  0.12508942290E+03 0.  0.
          5    1    3    3  502    0  0.78123296198E+01  0.59121745728E+02 -0.46955999902E+02  0.76018100731E+02  0.41800000000E+01 0. -1.
         -5    1    3    3    0  502 -0.99948654834E+01  0.49009308177E+02 -0.35641957148E+03  0.35993637348E+03  0.41800000000E+01 0. -1.
        -11    1    1    2    0    0 -0.12549638506E+02 -0.84225487203E+02 -0.39541542052E+02  0.93888016642E+02  0.00000000000E+00 0. -1.
         11    1    1    2    0    0  0.14732174369E+02 -0.23905566702E+02 -0.11646496575E+03  0.11980234275E+03  0.00000000000E+00 0.  1.
</event>
<event>
 6    1  0.1068210E-005  0.1490686E+03  0.7561462E-02  0.1201622E+00
         -1   -1    0    0    0  501 -0.00000000000E+00  0.00000000000E+00  0.34387194589E+02  0.34387194589E+02  0.00000000000E+00 0.  1.
          1   -1    0    0  501    0  0.00000000000E+00 -0.00000000000E+00 -0.83044472254E+03  0.83044472254E+03  0.00000000000E+00 0. -1.
          5    1    1    2  502    0 -0.38524519368E+01  0.10810268690E+03 -0.25117977350E+03  0.27351377171E+03  0.41800000000E+01 0. -1.
         -5    1    1    2    0  502 -0.75996883714E+02 -0.56433303477E+02 -0.18664835411E+03  0.20932110397E+03  0.41800000000E+01 0.  1.
        -11    1    1    2    0    0  0.51136131766E+02 -0.31818102155E+02 -0.33428403885E+03  0.33966618058E+03  0.00000000000E+00 0.  1.
         11    1    1    2    0    0  0.28713203885E+02 -0.19851281266E+02 -0.23945361493E+02  0.42330860873E+02  0.00000000000E+00 0. -1.
</event>
<event>
 7    1  0.1068210E-005  0.1156109E+03  0.7561462E-02  0.1250519E+00
         -1   -1    0    0    0  501 -0.00000000000E+00  0.00000000000E+00  0.64818330403E+03  0.64818330403E+03  0.00000000000E+00 0.  1.
          1   -1    0    0  501    0  0.00000000000E+00 -0.00000000000E+00 -0.56201236238E+02  0.56201236238E+02  0.00000000000E+00 0. -1.
         23    2    1    2    0    0 -0.41004425084E+02  0.22918548488E+02  0.58587794173E+03  0.60092190492E+03  0.12509016934E+03 0.  0.
          5    1    3    3  502    0  0.10965342755E+02  0.62498223411E+02  0.36688359764E+03  0.37235374751E+03  0.41800000000E+01 0.  1.
         -5    1    3    3    0  502 -0.51969767839E+02 -0.39579674924E+02  0.21899434409E+03  0.22856815741E+03  0.41800000000E+01 0.  1.
        -11    1    1    2    0    0  0.64170629465E+02 -0.37954136189E+02  0.11162026289E+02  0.75385522288E+02  0.00000000000E+00 0.  1.
         11    1    1    2    0    0 -0.23166204381E+02  0.15035587702E+02 -0.50579002271E+01  0.28077113058E+02  0.00000000000E+00 0. -1.
</event>
<event>
 7    1  0.1068210E-005  0.1083954E+03  0.7561462E-02  0.1263570E+00
         -1   -1    0    0    0  501 -0.00000000000E+00  0.00000000000E+00  0.23452644125E+03  0.23452644125E+03  0.00000000000E+00 0.  1.
          1   -1    0    0  501    0  0.00000000000E+00 -0.00000000000E+00 -0.11062508460E+03  0.11062508460E+03  0.00000000000E+00 0. -1.
         23    2    1    2    0    0  0.19859505091E+01 -0.68707731366E+02  0.16458432406E+03  0.21785311612E+03  0.12508910476E+03 0.  0.
          5    1    3    3  502    0  0.50711323076E+02 -0.68078601164E+02  0.65319216744E+02  0.10719331463E+03  0.41800000000E+01 0.  1.
         -5    1    3    3    0  502 -0.48725372567E+02 -0.62913020153E+00  0.99265107317E+02  0.11065980150E+03  0.41800000000E+01 0.  1.
        -11    1    1    2    0    0  0.18775637321E+02  0.54730227729E+02  0.20347990675E+02  0.61334844164E+02  0.00000000000E+00 0.  1.
         11    1    1    2    0    0 -0.20761587830E+02  0.13977503637E+02 -0.61030958086E+02  0.65963565565E+02  0.00000000000E+00 0. -1.
</event>
<event>
 7    1  0.1068210E-005  0.9097069E+02  0.7561462E-02  0.1300518E+00
          4   -1    0    0  501    0  0.00000000000E+00  0.00000000000E+00  0.25808204875E+03  0.25808204875E+03  0.00000000000E+00 0. -1.
         -4   -1    0    0    0  501 -0.00000000000E+00 -0.00000000000E+00 -0.70667414110E+02  0.70667414110E+02  0.00000000000E+00 0.  1.
         23    2    1    2    0    0 -0.50624948507E+02  0.58345250334E+02  0.93273492968E+02  0.17410731594E+03  0.12508540813E+03 0.  0.
          5    1    3    3  502    0 -0.48403618898E+01 -0.11160584149E+02  0.89782205450E+02  0.90698977708E+02  0.41800000000E+01 0. -1.
         -5    1    3    3    0  502 -0.45784586618E+02  0.69505834483E+02  0.34912875177E+01  0.83408338237E+02  0.41800000000E+01 0. -1.
        -11    1    1    2    0    0  0.12213408539E+02 -0.42450818142E+02  0.10305853824E+03  0.11212627531E+03  0.00000000000E+00 0. -1.
         11    1    1    2    0    0  0.38411539968E+02 -0.15894432192E+02 -0.89173965685E+01  0.42515871613E+02  0.00000000000E+00 0.  1.
</event>
<event>
 7    1  0.1068210E-005  0.1886740E+03  0.7561462E-02  0.1159663E+00
          2   -1    0    0  501    0  0.00000000000E+00  0.00000000000E+00  0.37913340567E+03  0.37913340567E+03  0.00000000000E+00 0. -1.
         -2   -1    0    0    0  501 -0.00000000000E+00 -0.00000000000E+00 -0.11452217970E+03  0.11452217970E+03  0.00000000000E+00 0.  1.
         23    2    1    2    0    0 -0.86887695382E+02 -0.15214039510E+03  0.10194926147E+03  0.23819594157E+03  0.12508990062E+03 0.  0.
          5    1    3    3  502    0 -0.86944985558E+02 -0.11384227407E+03  0.16237775741E+02  0.14422424082E+03  0.41800000000E+01 0. -1.
         -5    1    3    3    0  502  0.57290175788E-01 -0.38298121034E+02  0.85711485728E+02  0.93971700753E+02  0.41800000000E+01 0. -1.
        -11    1    1    2    0    0  0.10402928944E+03  0.11797089757E+03  0.14250641193E+03  0.21224349972E+03  0.00000000000E+00 0.  1.
         11    1    1    2    0    0 -0.17141594058E+02  0.34169497535E+02  0.20155552574E+02  0.43216144069E+02  0.00000000000E+00 0. -1.
</event>
<event>
 7    1  0.1068210E-005  0.2486448E+03  0.7561462E-02  0.1114164E+00
         -2   -1    0    0    0  501 -0.00000000000E+00  0.00000000000E+00  0.10303837264E+03  0.10303837264E+03  0.00000000000E+00 0.  1.
          2   -1    0    0  501    0  0.00000000000E+00 -0.00000000000E+00 -0.69227184183E+03  0.69227184183E+03  0.00000000000E+00 0. -1.
         23    2    1    2    0    0 -0.19709846424E+03  0.12479374819E+03 -0.40479635177E+03  0.48366962638E+03  0.12511969025E+03 0.  0.
          5    1    3    3  502    0 -0.72160646592E+02  0.10274845327E+03 -0.12899908645E+03  0.18006287866E+03  0.41800000000E+01 0.  1.
         -5    1    3    3    0  502 -0.12493781765E+03  0.22045294919E+02 -0.27579726532E+03  0.30360674773E+03  0.41800000000E+01 0.  1.
        -11    1    1    2    0    0  0.43914222776E+02  0.46704278624E+01 -0.87742798790E+01  0.45025102397E+02  0.00000000000E+00 0.  1.
         11    1    1    2    0    0  0.15318424147E+03 -0.12946417605E+03 -0.17566283755E+03  0.26661548569E+03  0.00000000000E+00 0. -1.
</event>
<event>
 7    1  0.1068210E-005  0.1130559E+03  0.7561462E-02  0.1255013E+00
         -2   -1    0    0    0  501 -0.00000000000E+00  0.00000000000E+00  0.99242484986E+02  0.99242484986E+02  0.00000000000E+00 0.  1.
          2   -1    0    0  501    0  0.00000000000E+00 -0.00000000000E+00 -0.15658161293E+03  0.15658161293E+03  0.00000000000E+00 0. -1.
         23    2    1    2    0    0  0.18584007655E+02  0.33558572879E+02  0.17936235040E+02  0.13206545548E+03  0.12509209747E+03 0.  0.
          5    1    3    3  502    0  0.93125071142E+01  0.79842885345E+02  0.24698772797E+02  0.84196858057E+02  0.41800000000E+01 0. -1.
         -5    1    3    3    0  502  0.92715005404E+01 -0.46284312466E+02 -0.67625377571E+01  0.47868597427E+02  0.41800000000E+01 0. -1.
        -11    1    1    2    0    0  0.14795196978E+02 -0.56057280205E+02 -0.44896298018E+02  0.73327989836E+02  0.00000000000E+00 0.  1.
         11    1    1    2    0    0 -0.33379204632E+02  0.22498707326E+02 -0.30379064966E+02  0.50430652597E+02  0.00000000000E+00 0. -1.
</event>
<event>
 7    1  0.1068210E-005  0.1238822E+03  0.7561462E-02  0.1236827E+00
          2   -1    0    0  501    0  0.00000000000E+00  0.00000000000E+00  0.85266106265E+03  0.85266106265E+03  0.00000000000E+00 0. -1.
         -2   -1    0    0    0  501 -0.00000000000E+00 -0.00000000000E+00 -0.20628964291E+02  0.20628964291E+02  0.00000000000E+00 0.  1.
         23    2    1    2    0    0 -0.47512149189E+02  0.49295930266E+02  0.35318806158E+03  0.38089285562E+03  0.12510023006E+03 0.  0.
          5    1    3    3  502    0 -0.87500336896E+02  0.29199806652E+02  0.28170240845E+03  0.29645009191E+03  0.41800000000E+01 0. -1.
         -5    1    3    3    0  502  0.39988187707E+02  0.20096123613E+02  0.71485653133E+02  0.84442763718E+02  0.41800000000E+01 0. -1.
        -11    1    1    2    0    0  0.39980317956E+02  0.17223712053E+02  0.25740248866E+03  0.26105770100E+03  0.00000000000E+00 0. -1.
         11    1    1    2    0    0  0.75318312329E+01 -0.66519642319E+02  0.22144154812E+03  0.23133947032E+03  0.00000000000E+00 0.  1.
</event>
<event>
 7    1  0.1068210E-005  0.7722766E+02  0.7561462E-02  0.1337108E+00
          1   -1    0    0  501    0  0.00000000000E+00  0.00000000000E+00  0.48030753796E+03  0.48030753796E+03  0.00000000000E+00 0. -1.
         -1   -1    0    0    0  501 -0.00000000000E+00 -0.00000000000E+00 -0.29910578279E+02  0.29910578279E+02  0.00000000000E+00 0.  1.
         23    2    1    2    0    0  0.18717309880E+02 -0.13278391986E+02  0.15697481478E+03  0.20202739185E+03  0.12508925294E+03 0.  0.
          5    1    3    3  502    0  0.11546306543E+02 -0.35811424142E+02 -0.50849370839E+01  0.38198223506E+02  0.41800000000E+01 0.  1.
         -5    1    3    3    0  502  0.71710033372E+01  0.22533032156E+02  0.16205975187E+03  0.16382916835E+03  0.41800000000E+01 0.  1.
        -11    1    1    2    0    0  0.10128152389E+02 -0.34949726060E+02  0.88143055734E+02  0.95358592149E+02  0.00000000000E+00 0.  1.
         11    1    1    2    0    0 -0.28845462269E+02  0.48228118045E+02  0.20527908916E+03  0.21283213223E+03  0.00000000000E+00 0. -1.
</event>
<event>
 7    1  0.1068210E-005  0.2897137E+03  0.7561462E-02  0.1090499E+00
          1   -1    0    0  501    0  0.00000000000E+00  0.00000000000E+00  0.28118381333E+03  0.28118381333E+03  0.00000000000E+00 0. -1.
         -1   -1    0    0    0  501 -0.00000000000E+00 -0.00000000000E+00 -0.31670903749E+03  0.31670903749E+03  0.00000000000E+00 0.  1.
         23    2    1    2    0    0  0.17152987066E+02 -0.27570031630E+03  0.92458589399E+01  0.30340322398E+03  0.12515247119E+03 0.  0.
          5    1    3    3  502    0 -0.31152295950E+02 -0.21796479005E+02 -0.20172128943E+02  0.43242793921E+02  0.41800000000E+01 0. -1.
         -5    1    3    3    0  502  0.48305283017E+02 -0.25390383729E+03  0.29417987883E+02  0.26016043006E+03  0.41800000000E+01 0. -1.
        -11    1    1    2    0    0  0.22418476835E+02  0.83706585997E+02  0.18291989596E+02  0.88566232427E+02  0.00000000000E+00 0. -1.
         11    1    1    2    0    0 -0.39571463902E+02  0.19199373030E+03 -0.63063072697E+02  0.20592339442E+03  0.00000000000E+00 0.  1.
</event>
<event>
 7    1  0.1068210E-005  0.1690200E+03  0.7561462E-02  0.1178874E+00
         -2   -1    0    0    0  501 -0.00000000000E+00  0.00000000000E+00  0.59010747153E+03  0.59010747153E+03  0.00000000000E+00 0.  1.
          2   -1    0    0  501    0  0.00000000000E+00 -0.00000000000E+00 -0.89849817211E+02  0.89849817211E+02  0.00000000000E+00 0. -1.
         23    2    1    2    0    0 -0.41429889992E+02  0.14862669322E+03  0.45324807121E+03  0.49484991804E+03  0.12504518226E+03 0.  0.
          5    1    3    3  502    0 -0.23557339301E+02  0.15632998663E+03  0.44673991578E+03  0.47390720368E+03  0.41800000000E+01 0.  1.
         -5    1    3    3    0  502 -0.17872550691E+02 -0.77032934074E+01  0.65081554334E+01  0.20942714357E+02  0.41800000000E+01 0.  1.
        -11    1    1    2    0    0  0.54111914896E+00 -0.80688433842E+02  0.65216468046E+02  0.10375019937E+03  0.00000000000E+00 0.  1.
         11    1    1    2    0    0  0.40888770843E+02 -0.67938259377E+02 -0.18206884931E+02  0.81357171332E+02  0.00000000000E+00 0. -1.
</event>
<event>
 7    1  0.1068210E-005  0.1240198E+03  0.7561462E-02  0.1236609E+00
         -2   -1    0    0    0  501 -0.00000000000E+00  0.00000000000E+00  0.27396919442E+02  0.27396919442E+02  0.00000000000E+00 0.  1.
          2   -1    0    0  501    0  0.00000000000E+00 -0.00000000000E+00 -0.70677780096E+03  0.70677780096E+03  0.00000000000E+00 0. -1.
         23    2    1    2    0    0 -0.45155118584E+02 -0.73737715855E+02 -0.35737286386E+03  0.38838022388E+03  0.12509036333E+03 0.  0.
          5    1    3    3  502    0  0.26083813440E+02 -0.12341306081E+02 -0.21953826218E+03  0.22146601121E+03  0.41800000000E+01 0. -1.
         -5    1    3    3    0  502 -0.71238932025E+02 -0.61396409774E+02 -0.13783460168E+03  0.16691421267E+03  0.41800000000E+01 0. -1.
        -11    1    1    2    0    0 -0.18243967290E+02  0.56020085446E+02 -0.12762573635E+03  0.14056820727E+03  0.00000000000E+00 0.  1.
         11    1    1    2    0    0  0.63399085875E+02  0.17717630409E+02 -0.19438228130E+03  0.20522628925E+03  0.00000000000E+00 0. -1.
</event>
<event>
 7    1  0.1068210E-005  0.5725981E+02  0.7561462E-02  0.1409705E+00
          1   -1    0    0  501    0  0.00000000000E+00  0.00000000000E+00  0.12796064660E+03  0.12796064660E+03  0.00000000000E+00 0. -1.
         -1   -1    0    0    0  501 -0.00000000000E+00 -0.00000000000E+00 -0.93718325077E+02  0.93718325077E+02  0.00000000000E+00 0.  1.
         23    2    1    2    0    0 -0.16769810914E+02  0.94799018819E+01  0.20679286189E+02  0.12824310731E+03  0.12509023382E+03 0.  0.
          5    1    3    3  502    0 -0.35669876278E+02  0.98320856402E+01 -0.45786023346E+02  0.59015610778E+02  0.41800000000E+01 0.  1.
         -5    1    3    3    0  502  0.18900065363E+02 -0.35218375825E+00  0.66465309535E+02  0.69227496529E+02  0.41800000000E+01 0.  1.
        -11    1    1    2    0    0  0.36944960530E+02 -0.69161436357E+01  0.43345208096E+02  0.57372207699E+02  0.00000000000E+00 0. -1.
         11    1    1    2    0    0 -0.20175149616E+02 -0.25637582462E+01 -0.29782172760E+02  0.36063656673E+02  0.00000000000E+00 0.  1.
</event>
<event>
 7    1  0.1068210E-005  0.1638972E+03  0.7561462E-02  0.1184366E+00
          1   -1    0    0  501    0  0.00000000000E+00  0.00000000000E+00  0.61818793003E+03  0.61818793003E+03  0.00000000000E+00 0. -1.
         -1   -1    0    0    0  501 -0.00000000000E+00 -0.00000000000E+00 -0.52130125417E+02  0.52130125417E+02  0.00000000000E+00 0.  1.
         23    2    1    2    0    0  0.97551301416E+02 -0.98889697209E+02  0.24335988754E+03  0.30686832756E+03  0.12509479194E+03 0.  0.
          5    1    3    3  502    0 -0.22432036151E+02 -0.54196066310E+02  0.78875155593E+02  0.98382785177E+02  0.41800000000E+01 0. -1.
         -5    1    3    3    0  502  0.11998333757E+03 -0.44693630899E+02  0.16448473195E+03  0.20848554238E+03  0.41800000000E+01 0. -1.
        -11    1    1    2    0    0 -0.35498192643E+02  0.52647794565E+02  0.52507770479E+02  0.82395254197E+02  0.00000000000E+00 0.  1.
         11    1    1    2    0    0 -0.62053108773E+02  0.46241902644E+02  0.27019014660E+03  0.28105447370E+03  0.00000000000E+00 0. -1.
</event>
<event>
 7    1  0.1068210E-005  0.7777834E+02  0.7561462E-02  0.1335477E+00
          2   -1    0    0  501    0  0.00000000000E+00  0.00000000000E+00  0.37243364467E+03  0.37243364467E+03  0.00000000000E+00 0.  1.
         -2   -1    0    0    0  501 -0.00000000000E+00 -0.00000000000E+00 -0.48572739682E+02  0.48572739682E+02  0.00000000000E+00 0. -1.
         23    2    1    2    0    0 -0.53283739661E+02 -0.30273850526E+01  0.88756457713E+02  0.16239582223E+03  0.12508546006E+03 0.  0.
          5    1    3    3  502    0 -0.12449187274E+02  0.16535057116E+02 -0.29167715846E+02  0.36008588216E+02  0.41800000000E+01 0. -1.
         -5    1    3    3    0  502 -0.40834552387E+02 -0.19562442169E+02  0.11792417356E+03  0.12638723401E+03  0.41800000000E+01 0. -1.
        -11    1    1    2    0    0  0.10001828622E+02 -0.31850640525E+02  0.26200450731E+02  0.42437760263E+02  0.00000000000E+00 0. -1.
         11    1    1    2    0    0  0.43281911039E+02  0.34878025578E+02  0.20890399655E+03  0.21617280186E+03  0.00000000000E+00 0.  1.
</event>
<event>
 7    1  0.1068210E-005  0.1137049E+03  0.7561462E-02  0.1253859E+00
         -1   -1    0    0    0  501 -0.00000000000E+00  0.00000000000E+00  0.25971930342E+03  0.25971930342E+03  0.00000000000E+00 0.  1.
          1   -1    0    0  501    0  0.00000000000E+00 -0.00000000000E+00 -0.59444295017E+02  0.59444295017E+02  0.00000000000E+00 0. -1.
         23    2    1    2    0    0 -0.22098231957E+02 -0.50747336249E+02  0.13779553072E+03  0.19416560398E+03  0.12509616097E+03 0.  0.
          5    1    3    3  502    0 -0.11509012999E+02 -0.83664643767E+02  0.13490713929E+03  0.15921569844E+03  0.41800000000E+01 0.  1.
         -5    1    3    3    0  502 -0.10589218957E+02  0.32917307518E+02  0.28883914323E+01  0.34949905542E+02  0.41800000000E+01 0.  1.
        -11    1    1    2    0    0 -0.27082253031E+02  0.52215629928E+02  0.29873076332E+02  0.65972123867E+02  0.00000000000E+00 0.  1.
         11    1    1    2    0    0  0.49180484988E+02 -0.14682936784E+01  0.32606401341E+02  0.59025870586E+02  0.00000000000E+00 0. -1.
</event>
<event>
 7    1  0.1068210E-005  0.1071894E+03  0.7561462E-02  0.1265865E+00
          2   -1    0    0  501    0  0.00000000000E+00  0.00000000000E+00  0.41869203383E+02  0.41869203383E+02  0.00000000000E+00 0. -1.
         -2   -1    0    0    0  501 -0.00000000000E+00 -0.00000000000E+00 -0.32760932839E+03  0.32760932839E+03  0.00000000000E+00 0.  1.
         23    2    1    2    0    0  0.32218870702E+02 -0.63900060493E+01 -0.21067231176E+03  0.24720475023E+03  0.12509387590E+03 0.  0.
          5    1    3    3  502    0  0.54156098097E+02  0.41501228814E+02 -0.16001059544E+03  0.17400028163E+03  0.41800000000E+01 0. -1.
         -5    1    3    3    0  502 -0.21937227396E+02 -0.47891234863E+02 -0.50661716321E+02  0.73204468601E+02  0.41800000000E+01 0. -1.
        -11    1    1    2    0    0 -0.44068162398E+02  0.38772763484E+02 -0.31194321320E+02  0.66471165237E+02  0.00000000000E+00 0. -1.
         11    1    1    2    0    0  0.11849291696E+02 -0.32382757435E+02 -0.43873491929E+02  0.55802616308E+02  0.00000000000E+00 0.  1.
</event>
<event>
 7    1  0.1068210E-005  0.1488544E+03  0.7561462E-02  0.1201888E+00
          2   -1    0    0  501    0  0.00000000000E+00  0.00000000000E+00  0.28140979991E+03  0.28140979991E+03  0.00000000000E+00 0.  1.
         -2   -1    0    0    0  501 -0.00000000000E+00 -0.00000000000E+00 -0.91924154503E+02  0.91924154503E+02  0.00000000000E+00 0. -1.
         23    2    1    2    0    0  0.82214130829E+02  0.20833590003E+02  0.27526701780E+02  0.15362377711E+03  0.12509733731E+03 0.  0.
          5    1    3    3  502    0  0.44173625662E+02 -0.52278462217E+02  0.10618088487E+02  0.69387052243E+02  0.41800000000E+01 0. -1.
         -5    1    3    3    0  502  0.38040505167E+02  0.73112052220E+02  0.16908613293E+02  0.84236724869E+02  0.41800000000E+01 0. -1.
        -11    1    1    2    0    0 -0.89229799852E+02 -0.59545891158E+02  0.13293629662E+03  0.17082075194E+03  0.00000000000E+00 0.  1.
         11    1    1    2    0    0  0.70156690234E+01  0.38712301154E+02  0.29022647004E+02  0.48889425356E+02  0.00000000000E+00 0. -1.
</event>
<event>
 7    1  0.1068210E-005  0.1827063E+03  0.7561462E-02  0.1165209E+00
          2   -1    0    0  501    0  0.00000000000E+00  0.00000000000E+00  0.23813584753E+03  0.23813584753E+03  0.00000000000E+00 0. -1.
         -2   -1    0    0    0  501 -0.00000000000E+00 -0.00000000000E+00 -0.15707040357E+03  0.15707040357E+03  0.00000000000E+00 0.  1.
         23    2    1    2    0    0 -0.15200588377E+03  0.45452282831E+02  0.64145328179E+02  0.21197927303E+03  0.12509552492E+03 0.  0.
          5    1    3    3  502    0 -0.15976435077E+03  0.71051951153E+02  0.53691893503E+02  0.18295715173E+03  0.41800000000E+01 0.  1.
         -5    1    3    3    0  502  0.77584670077E+01 -0.25599668322E+02  0.10453434676E+02  0.29022121305E+02  0.41800000000E+01 0.  1.
        -11    1    1    2    0    0  0.83053007316E+02 -0.45047192785E+02  0.49834459684E+02  0.10682005886E+03  0.00000000000E+00 0. -1.
         11    1    1    2    0    0  0.68952876450E+02 -0.40509004552E+00 -0.32914343900E+02  0.76406919209E+02  0.00000000000E+00 0.  1.
</event>
<event>
 7    1  0.1068210E-005  0.1039724E+03  0.7561462E-02  0.1272158E+00
          1   -1    0    0  501    0  0.00000000000E+00  0.00000000000E+00  0.43056440024E+02  0.43056440024E+02  0.00000000000E+00 0. -1.
         -1   -1    0    0    0  501 -0.00000000000E+00 -0.00000000000E+00 -0.44355685214E+03  0.44355685214E+03  0.00000000000E+00 0.  1.
         23    2    1    2    0    0  0.29074007567E+02 -0.26363827285E+02 -0.32166004519E+03  0.34748228262E+03  0.12545279094E+03 0.  0.
          5    1    3    3  502    0 -0.46737887172E+01 -0.67067252682E+02 -0.24618910643E+03  0.25523794626E+03  0.41800000000E+01 0.  1.
         -5    1    3    3    0  502  0.33747796284E+02  0.40703425397E+02 -0.75470938759E+02  0.92244336359E+02  0.41800000000E+01 0.  1.
        -11    1    1    2    0    0  0.27155511182E+02  0.66204019300E+01  0.12056023883E+02  0.30440092331E+02  0.00000000000E+00 0. -1.
         11    1    1    2    0    0 -0.56229518749E+02  0.19743425355E+02 -0.90896390804E+02  0.10869091721E+03  0.00000000000E+00 0.  1.
</event>
<event>
 7    1  0.1068210E-005  0.1288694E+03  0.7561462E-02  0.1229143E+00
         -1   -1    0    0    0  501 -0.00000000000E+00  0.00000000000E+00  0.36782834285E+02  0.36782834285E+02  0.00000000000E+00 0.  1.
          1   -1    0    0  501    0  0.00000000000E+00 -0.00000000000E+00 -0.45541641567E+03  0.45541641567E+03  0.00000000000E+00 0. -1.
         23    2    1    2    0    0  0.17726957617E+02  0.77691632343E+02 -0.25972725954E+03  0.29908419458E+03  0.12507146492E+03 0.  0.
          5    1    3    3  502    0  0.50474587088E+01  0.11162353531E+03 -0.19800940726E+03  0.22739940246E+03  0.41800000000E+01 0.  1.
         -5    1    3    3    0  502  0.12679498908E+02 -0.33931902967E+02 -0.61717852282E+02  0.71684792124E+02  0.41800000000E+01 0.  1.
        -11    1    1    2    0    0  0.26843178008E+02 -0.50660184191E+02 -0.90071139029E+02  0.10676994218E+03  0.00000000000E+00 0.  1.
         11    1    1    2    0    0 -0.44570135625E+02 -0.27031448153E+02 -0.68835182822E+02  0.86345113197E+02  0.00000000000E+00 0. -1.
</event>
<event>
 7    1  0.1068210E-005  0.9427783E+02  0.7561462E-02  0.1292811E+00
         -2   -1    0    0    0  501 -0.00000000000E+00  0.00000000000E+00  0.32256563923E+02  0.32256563923E+02  0.00000000000E+00 0.  1.
          2   -1    0    0  501    0  0.00000000000E+00 -0.00000000000E+00 -0.38988204304E+03  0.38988204304E+03  0.00000000000E+00 0. -1.
         23    2    1    2    0    0  0.25195363844E+01 -0.78093408046E+01 -0.15251226103E+03  0.19741946293E+03  0.12508845154E+03 0.  0.
          5    1    3    3  502    0  0.43155712829E+02 -0.29518228638E+02 -0.13999014596E+03  0.14949399566E+03  0.41800000000E+01 0. -1.
         -5    1    3    3    0  502 -0.40636176444E+02  0.21708887834E+02 -0.12522115071E+02  0.47925467268E+02  0.41800000000E+01 0. -1.
        -11    1    1    2    0    0 -0.67365062005E+01 -0.40648044852E+02 -0.11742554942E+03  0.12444438004E+03  0.00000000000E+00 0. -1.
         11    1    1    2    0    0  0.42169698161E+01  0.48457385657E+02 -0.87687668659E+02  0.10027476399E+03  0.00000000000E+00 0.  1.
</event>
<event>
 6    1  0.1068210E-005  0.2060819E+03  0.7561462E-02  0.1144707E+00
         -2   -1    0    0    0  501 -0.00000000000E+00  0.00000000000E+00  0.14868781815E+03  0.14868781815E+03  0.00000000000E+00 0.  1.
          2   -1    0    0  501    0  0.00000000000E+00 -0.00000000000E+00 -0.48916797595E+03  0.48916797595E+03  0.00000000000E+00 0. -1.
          5    1    1    2  502    0 -0.54623898856E+02 -0.16753374419E+03 -0.19510323318E+03  0.26293358433E+03  0.41800000000E+01 0. -1.
         -5    1    1    2    0  502  0.41167581311E+02  0.15777509076E+03  0.39880808521E+02  0.16791575359E+03  0.41800000000E+01 0.  1.
        -11    1    1    2    0    0 -0.29040810311E+02  0.85570127291E+01 -0.14611028070E+03  0.14921395798E+03  0.00000000000E+00 0. -1.
         11    1    1    2    0    0  0.42497127856E+02  0.12016407087E+01 -0.39147452442E+02  0.57792498208E+02  0.00000000000E+00 0.  1.
</event>
<event>
 6    1  0.1068210E-005  0.1421225E+03  0.7561462E-02  0.1210501E+00
         -2   -1    0    0    0  501 -0.00000000000E+00  0.00000000000E+00  0.12964247206E+03  0.12964247206E+03  0.00000000000E+00 0.  1.
          2   -1    0    0  501    0  0.00000000000E+00 -0.00000000000E+00 -0.30810464739E+03  0.30810464739E+03  0.00000000000E+00 0. -1.
          5    1    1    2  502    0  0.97451843606E+02 -0.41166978929E+02 -0.18918942400E+03  0.21679873738E+03  0.41800000000E+01 0. -1.
         -5    1    1    2    0  502 -0.84734223241E+02  0.17462269991E+02  0.69923920654E+02  0.11131777280E+03  0.41800000000E+01 0.  1.
        -11    1    1    2    0    0  0.58845174309E+01 -0.32254146701E+02 -0.15683059558E+02  0.36344406473E+02  0.00000000000E+00 0.  1.
         11    1    1    2    0    0 -0.18602137795E+02  0.55958855639E+02 -0.43513612424E+02  0.73286202802E+02  0.00000000000E+00 0. -1.
</event>
<event>
 7    1  0.1068210E-005  0.1094291E+03  0.7561462E-02  0.1261631E+00
          1   -1    0    0  501    0  0.00000000000E+00  0.00000000000E+00  0.30220871118E+03  0.30220871118E+03  0.00000000000E+00 0. -1.
         -1   -1    0    0    0  501 -0.00000000000E+00 -0.00000000000E+00 -0.46299977665E+02  0.46299977665E+02  0.00000000000E+00 0.  1.
         23    2    1    2    0    0 -0.80134084915E+01  0.24851707597E+02  0.86555572505E+02  0.15434229997E+03  0.12509139196E+03 0.  0.
          5    1    3    3  502    0  0.77652354890E+01 -0.48667296076E+02  0.51059623498E+02  0.71087004025E+02  0.41800000000E+01 0. -1.
         -5    1    3    3    0  502 -0.15778643980E+02  0.73519003673E+02  0.35495949007E+02  0.83255295945E+02  0.41800000000E+01 0. -1.
        -11    1    1    2    0    0  0.37910233744E+02  0.17897734974E+02  0.62483055917E+02  0.75243916807E+02  0.00000000000E+00 0.  1.
         11    1    1    2    0    0 -0.29896825253E+02 -0.42749442571E+02  0.10687010509E+03  0.11892247206E+03  0.00000000000E+00 0. -1.
</event>
<event>
 7    1  0.1068210E-005  0.9241178E+02  0.7561462E-02  0.1297114E+00
         -1   -1    0    0    0  501 -0.00000000000E+00  0.00000000000E+00  0.10160112191E+03  0.10160112191E+03  0.00000000000E+00 0.  1.
          1   -1    0    0  501    0  0.00000000000E+00 -0.00000000000E+00 -0.16835545929E+03  0.16835545929E+03  0.00000000000E+00 0. -1.
         23    2    1    2    0    0  0.38406600219E+02  0.58787921152E+02 -0.17780476066E+02  0.14455473104E+03  0.12509531695E+03 0.  0.
          5    1    3    3  502    0  0.38560851662E+02  0.51117514726E+02 -0.68049850773E+02  0.93531781673E+02  0.41800000000E+01 0.  1.
         -5    1    3    3    0  502 -0.15425144327E+00  0.76704064261E+01  0.50269374707E+02  0.51022949363E+02  0.41800000000E+01 0.  1.
        -11    1    1    2    0    0 -0.38241948620E+01 -0.74029022960E+02 -0.46550805428E+02  0.87532269437E+02  0.00000000000E+00 0.  1.
         11    1    1    2    0    0 -0.34582405357E+02  0.15241101808E+02 -0.24230558906E+01  0.37869580727E+02  0.00000000000E+00 0. -1.
</event>
<event>
 7    1  0.1068210E-005  0.1140176E+03  0.7561462E-02  0.1253306E+00
         -2   -1    0    0    0  501 -0.00000000000E+00  0.00000000000E+00  0.13353756710E+03  0.13353756710E+03  0.00000000000E+00 0. -1.
          2   -1    0    0  501    0  0.00000000000E+00 -0.00000000000E+00 -0.12705370028E+03  0.12705370028E+03  0.00000000000E+00 0.  1.
         23    2    1    2    0    0  0.17633785260E+00  0.70613784916E+02  0.14400942592E+02  0.14435068912E+03  0.12507356470E+03 0.  0.
          5    1    3    3  502    0 -0.30963532990E+02  0.97171390547E+02  0.52521723422E+01  0.10220605281E+03  0.41800000000E+01 0. -1.
         -5    1    3    3    0  502  0.31139870842E+02 -0.26557605631E+02  0.91487702498E+01  0.42144636314E+02  0.41800000000E+01 0. -1.
        -11    1    1    2    0    0  0.19639788038E+02 -0.12151106817E+02 -0.40363043586E+02  0.46503182242E+02  0.00000000000E+00 0.  1.
         11    1    1    2    0    0 -0.19816125891E+02 -0.58462678099E+02  0.32445967819E+02  0.69737396019E+02  0.00000000000E+00 0. -1.
</event>
<event>
 6    1  0.1068210E-005  0.1252522E+03  0.7561462E-02  0.1234676E+00
          1   -1    0    0  501    0  0.00000000000E+00  0.00000000000E+00  0.72499590334E+02  0.72499590334E+02  0.00000000000E+00 0. -1.
         -1   -1    0    0    0  501 -0.00000000000E+00 -0.00000000000E+00 -0.23856278240E+03  0.23856278240E+03  0.00000000000E+00 0.  1.
          5    1    1    2  502    0 -0.57780700957E+02  0.66667671982E+02 -0.77146066100E+02  0.11726967129E+03  0.41800000000E+01 0. -1.
         -5    1    1    2    0  502  0.47389002523E+02 -0.58631521187E+02 -0.64943686989E+02  0.99591805469E+02  0.41800000000E+01 0.  1.
        -11    1    1    2    0    0 -0.24598398045E+02 -0.34807552591E+02 -0.26298717552E+02  0.50082626216E+02  0.00000000000E+00 0. -1.
         11    1    1    2    0    0  0.34990096479E+02  0.26771401796E+02  0.23252785764E+01  0.44118269755E+02  0.00000000000E+00 0.  1.
</event>
<event>
 7    1  0.1068210E-005  0.4650600E+02  0.7561462E-02  0.1465153E+00
          1   -1    0    0  501    0  0.00000000000E+00  0.00000000000E+00  0.44177025338E+02  0.44177025338E+02  0.00000000000E+00 0. -1.
         -1   -1    0    0    0  501 -0.00000000000E+00 -0.00000000000E+00 -0.33938538771E+03  0.33938538771E+03  0.00000000000E+00 0.  1.
         23    2    1    2    0    0  0.15144764626E+02 -0.35696835815E+01 -0.25514560438E+03  0.28458410276E+03  0.12508687210E+03 0.  0.
          5    1    3    3  502    0 -0.55727640809E-01  0.24277093788E+02 -0.25112797883E+03  0.25233334013E+03  0.41800000000E+01 0. -1.
         -5    1    3    3    0  502  0.15200492267E+02 -0.27846777370E+02 -0.40176255472E+01  0.32250762628E+02  0.41800000000E+01 0. -1.
        -11    1    1    2    0    0 -0.16779528355E+02  0.16388783008E+02 -0.65976119174E+02  0.70021375891E+02  0.00000000000E+00 0.  1.
         11    1    1    2    0    0  0.16347637291E+01 -0.12819099427E+02  0.25913361178E+02  0.28956934404E+02  0.00000000000E+00 0. -1.
</event>
<event>
 7    1  0.1068210E-005  0.1408034E+03  0.7561462E-02  0.1212252E+00
         -2   -1    0    0    0  501 -0.00000000000E+00  0.00000000000E+00  0.56667772709E+02  0.56667772709E+02  0.00000000000E+00 0.  1.
          2   -1    0    0  501    0  0.00000000000E+00 -0.00000000000E+00 -0.36658059183E+03  0.36658059183E+03  0.00000000000E+00 0. -1.
         23    2    1    2    0    0  0.73424494767E+02 -0.57850059524E+02 -0.14099732435E+03  0.21039482176E+03  0.12509176524E+03 0.  0.
          5    1    3    3  502    0  0.96873223699E+02 -0.83951706036E+01 -0.66570067547E+02  0.11791499757E+03  0.41800000000E+01 0.  1.
         -5    1    3    3    0  502 -0.23448728932E+02 -0.49454888921E+02 -0.74427256799E+02  0.92479824185E+02  0.41800000000E+01 0.  1.
        -11    1    1    2    0    0 -0.53230704110E+02  0.82090922178E+02 -0.12360577351E+03  0.15764141147E+03  0.00000000000E+00 0.  1.
         11    1    1    2    0    0 -0.20193790657E+02 -0.24240862654E+02 -0.45309721264E+02  0.55212131315E+02  0.00000000000E+00 0. -1.
</event>
<event>
 7    1  0.1068210E-005  0.1422024E+03  0.7561462E-02  0.1210396E+00
         -2   -1    0    0    0  501 -0.00000000000E+00  0.00000000000E+00  0.29761554828E+02  0.29761554828E+02  0.00000000000E+00 0.  1.
          2   -1    0    0  501    0  0.00000000000E+00 -0.00000000000E+00 -0.83471595727E+03  0.83471595727E+03  0.00000000000E+00 0. -1.
         23    2    1    2    0    0  0.12959866305E+02  0.11536504745E+03 -0.40664472297E+03  0.44100358826E+03  0.12508869586E+03 0.  0.
          5    1    3    3  502    0 -0.24762573183E+02  0.73286664895E+01 -0.22337399381E+03  0.22490066228E+03  0.41800000000E+01 0. -1.
         -5    1    3    3    0  502  0.37722439488E+02  0.10803638096E+03 -0.18327072917E+03  0.21610292599E+03  0.41800000000E+01 0. -1.
        -11    1    1    2    0    0 -0.33561950021E+02 -0.11826067123E+03 -0.34512288593E+03  0.36636293104E+03  0.00000000000E+00 0.  1.
         11    1    1    2    0    0  0.20602083716E+02  0.28956237867E+01 -0.53186793538E+02  0.57110992789E+02  0.00000000000E+00 0. -1.
</event>
<event>
 7    1  0.1068210E-005  0.2139087E+03  0.7561462E-02  0.1138508E+00
          1   -1    0    0  501    0  0.00000000000E+00  0.00000000000E+00  0.82200340144E+02  0.82200340144E+02  0.00000000000E+00 0. -1.
         -1   -1    0    0    0  501 -0.00000000000E+00 -0.00000000000E+00 -0.90483697119E+03  0.90483697119E+03  0.00000000000E+00 0.  1.
         23    2    1    2    0    0 -0.11157435118E+03  0.17436893618E+03 -0.67450219126E+03  0.71659721113E+03  0.12531957244E+03 0.  0.
          5    1    3    3  502    0 -0.13687473982E+02  0.40716233136E+01 -0.23155728001E+03  0.23203484951E+03  0.41800000000E+01 0. -1.
         -5    1    3    3    0  502 -0.97886877203E+02  0.17029731287E+03 -0.44294491125E+03  0.48456236162E+03  0.41800000000E+01 0. -1.
        -11    1    1    2    0    0  0.98416153484E+02 -0.97692456538E+02 -0.13103214319E+03  0.19078516158E+03  0.00000000000E+00 0. -1.
         11    1    1    2    0    0  0.13158197700E+02 -0.76676479646E+02 -0.17102296596E+02  0.79654938620E+02  0.00000000000E+00 0.  1.
</event>
<event>
 7    1  0.1068210E-005  0.9013551E+02  0.7561462E-02  0.1302524E+00
          2   -1    0    0  501    0  0.00000000000E+00  0.00000000000E+00  0.48232883076E+02  0.48232883076E+02  0.00000000000E+00 0. -1.
         -2   -1    0    0    0  501 -0.00000000000E+00 -0.00000000000E+00 -0.27364050659E+03  0.27364050659E+03  0.00000000000E+00 0.  1.
         23    2    1    2    0    0  0.41413111551E+02  0.13067694251E+02 -0.13165189949E+03  0.18188847278E+03  0.11775136283E+03 0.  0.
          5    1    3    3  502    0 -0.27509582703E+02  0.16549942275E+02 -0.10136284151E+03  0.10640759263E+03  0.41800000000E+01 0. -1.
         -5    1    3    3    0  502  0.68922694255E+02 -0.34822480247E+01 -0.30289057982E+02  0.75480880149E+02  0.41800000000E+01 0.  1.
        -11    1    1    2    0    0 -0.32621286674E+02  0.24104675789E+02 -0.20164023482E+01  0.40610954404E+02  0.00000000000E+00 0. -1.
         11    1    1    2    0    0 -0.87918248777E+01 -0.37172370040E+02 -0.91739321669E+02  0.99373962482E+02  0.00000000000E+00 0.  1.
</event>
<event>
 7    1  0.1068210E-005  0.2921069E+03  0.7561462E-02  0.1089254E+00
         -2   -1    0    0    0  501 -0.00000000000E+00  0.00000000000E+00  0.23427771157E+03  0.23427771157E+03  0.00000000000E+00 0.  1.
          2   -1    0    0  501    0  0.00000000000E+00 -0.00000000000E+00 -0.40321028228E+03  0.40321028228E+03  0.00000000000E+00 0. -1.
         23    2    1    2    0    0  0.52189470428E+02  0.27606944297E+03 -0.35210418445E+02  0.30955710164E+03  0.12509095668E+03 0.  0.
          5    1    3    3  502    0  0.43166895945E+02  0.34997565663E+02 -0.39389910354E+02  0.68244032307E+02  0.41800000000E+01 0. -1.
         -5    1    3    3    0  502  0.90225744824E+01  0.24107187731E+03  0.41794919093E+01  0.24131306933E+03  0.41800000000E+01 0. -1.
        -11    1    1    2    0    0 -0.47668250813E+02 -0.96981807756E+02 -0.65987923884E+01  0.10826484763E+03  0.00000000000E+00 0. -1.
         11    1    1    2    0    0 -0.45212196144E+01 -0.17908763521E+03 -0.12712335988E+03  0.21966604458E+03  0.00000000000E+00 0.  1.
</event>
<event>
 7    1  0.1068210E-005  0.1286888E+03  0.7561462E-02  0.1229414E+00
         -1   -1    0    0    0  501 -0.00000000000E+00  0.00000000000E+00  0.25210592266E+03  0.25210592266E+03  0.00000000000E+00 0.  1.
          1   -1    0    0  501    0  0.00000000000E+00 -0.00000000000E+00 -0.17579276954E+03  0.17579276954E+03  0.00000000000E+00 0. -1.
         23    2    1    2    0    0 -0.72310791459E+02  0.96845340438E+02  0.17553394830E+03  0.24711318809E+03  0.12507953549E+03 0.  0.
          5    1    3    3  502    0 -0.61126906493E+02  0.92577997573E+02  0.19470360763E+03  0.22412976500E+03  0.41800000000E+01 0. -1.
         -5    1    3    3    0  502 -0.11183884966E+02  0.42673428645E+01 -0.19169659335E+02  0.22983423094E+02  0.41800000000E+01 0. -1.
        -11    1    1    2    0    0  0.61327280904E+01 -0.55093598355E+02 -0.84660412108E+02  0.10119436897E+03  0.00000000000E+00 0. -1.
         11    1    1    2    0    0  0.66178063369E+02 -0.41751742082E+02 -0.14560383070E+02  0.79591135143E+02  0.00000000000E+00 0.  1.
</event>
<event>
 7    1  0.1068210E-005  0.1203738E+03  0.7561462E-02  0.1242482E+00
         -2   -1    0    0    0  501 -0.00000000000E+00  0.00000000000E+00  0.20312327915E+02  0.20312327915E+02  0.00000000000E+00 0.  1.
          2   -1    0    0  501    0  0.00000000000E+00 -0.00000000000E+00 -0.76035657975E+03  0.76035657975E+03  0.00000000000E+00 0. -1.
         23    2    1    2    0    0  0.19931468340E+02 -0.57343842590E+02 -0.42105037063E+03  0.44341468108E+03  0.12509030768E+03 0.  0.
          5    1    3    3  502    0  0.66529063668E+02 -0.58475617328E+02 -0.22468748677E+03  0.24155217500E+03  0.41800000000E+01 0. -1.
         -5    1    3    3    0  502 -0.46597595328E+02  0.11317747379E+01 -0.19636288386E+03  0.20186250608E+03  0.41800000000E+01 0. -1.
        -11    1    1    2    0    0 -0.39297511700E+02 -0.53490837728E+01 -0.78224268571E+02  0.87703724644E+02  0.00000000000E+00 0.  1.
         11    1    1    2    0    0  0.19366043360E+02  0.62692926363E+02 -0.24076961263E+03  0.24955050194E+03  0.00000000000E+00 0. -1.
</event>
<event>
 7    1  0.1068210E-005  0.7079768E+02  0.7561462E-02  0.1357401E+00
         -2   -1    0    0    0  501 -0.00000000000E+00  0.00000000000E+00  0.51276327571E+03  0.51276327571E+03  0.00000000000E+00 0.  1.
          2   -1    0    0  501    0  0.00000000000E+00 -0.00000000000E+00 -0.71239711993E+02  0.71239711993E+02  0.00000000000E+00 0. -1.
         23    2    1    2    0    0  0.11541877022E+02  0.12842068215E+02  0.47272388374E+03  0.48601498186E+03  0.11155518230E+03 0.  0.
          5    1    3    3  502    0 -0.27324688152E+02 -0.34469412660E+02  0.28783357033E+03  0.29120510916E+03  0.41800000000E+01 0. -1.
         -5    1    3    3    0  502  0.38866565174E+02  0.47311480876E+02  0.18489031340E+03  0.19480987270E+03  0.41800000000E+01 0.  1.
        -11    1    1    2    0    0  0.35354326244E+01 -0.19311840191E+02  0.29318386791E+02  0.35284759591E+02  0.00000000000E+00 0.  1.
         11    1    1    2    0    0 -0.15077309646E+02  0.64697719759E+01 -0.60518706812E+02  0.62703246246E+02  0.00000000000E+00 0. -1.
</event>
<event>
 7    1  0.1068210E-005  0.1089698E+03  0.7561462E-02  0.1262490E+00
          1   -1    0    0  501    0  0.00000000000E+00  0.00000000000E+00  0.12531352206E+03  0.12531352206E+03  0.00000000000E+00 0. -1.
         -1   -1    0    0    0  501 -0.00000000000E+00 -0.00000000000E+00 -0.13044129166E+03  0.13044129166E+03  0.00000000000E+00 0.  1.
         23    2    1    2    0    0 -0.39555613498E+02  0.61430025180E+01 -0.56573299007E+02  0.14300664773E+03  0.12509188661E+03 0.  0.
          5    1    3    3  502    0 -0.50428493197E+02  0.51807960053E+02 -0.62304316796E+02  0.95532182757E+02  0.41800000000E+01 0. -1.
         -5    1    3    3    0  502  0.10872879699E+02 -0.45664957536E+02  0.57310177892E+01  0.47474464974E+02  0.41800000000E+01 0. -1.
        -11    1    1    2    0    0 -0.29319393015E+02 -0.23578480413E+01  0.25897240935E+02  0.39189964815E+02  0.00000000000E+00 0. -1.
         11    1    1    2    0    0  0.68875006513E+02 -0.37851544767E+01  0.25548288473E+02  0.73558201178E+02  0.00000000000E+00 0.  1.
</event>
<event>
 7    1  0.1068210E-005  0.1412532E+03  0.7561462E-02  0.1211653E+00
          1   -1    0    0  501    0  0.00000000000E+00  0.00000000000E+00  0.79473912702E+03  0.79473912702E+03  0.00000000000E+00 0. -1.
         -1   -1    0    0    0  501 -0.00000000000E+00 -0.00000000000E+00 -0.39514925842E+02  0.39514925842E+02  0.00000000000E+00 0.  1.
         23    2    1    2    0    0  0.83500537456E+02  0.51694502640E+02  0.27065157238E+03  0.31391655330E+03  0.12508663974E+03 0.  0.
          5    1    3    3  502    0  0.54796272827E+02 -0.16884332811E+02  0.36232642651E+02  0.67955787124E+02  0.41800000000E+01 0. -1.
         -5    1    3    3    0  502  0.28704264629E+02  0.68578835451E+02  0.23441892973E+03  0.24596076617E+03  0.41800000000E+01 0. -1.
        -11    1    1    2    0    0 -0.99481736241E+02 -0.32420549222E+01  0.44437132772E+03  0.45538226104E+03  0.00000000000E+00 0. -1.
         11    1    1    2    0    0  0.15981198785E+02 -0.48452447718E+02  0.40201301074E+02  0.64955238530E+02  0.00000000000E+00 0.  1.
</event>
<event>
 7    1  0.1068210E-005  0.2475412E+03  0.7561462E-02  0.1114869E+00
         -1   -1    0    0    0  501 -0.00000000000E+00  0.00000000000E+00  0.13932066475E+03  0.13932066475E+03  0.00000000000E+00 0.  1.
          1   -1    0    0  501    0  0.00000000000E+00 -0.00000000000E+00 -0.50705199322E+03  0.50705199322E+03  0.00000000000E+00 0. -1.
         23    2    1    2    0    0 -0.14142797741E+03  0.19120544883E+03 -0.13248028350E+03  0.29960274499E+03  0.12509749331E+03 0.  0.
          5    1    3    3  502    0  0.58387537243E+01  0.24055504233E+02 -0.60423875797E+02  0.65431456466E+02  0.41800000000E+01 0.  1.
         -5    1    3    3    0  502 -0.14726673114E+03  0.16714994459E+03 -0.72056407702E+02  0.23417128852E+03  0.41800000000E+01 0.  1.
        -11    1    1    2    0    0  0.42412094196E+02 -0.11392765005E+03 -0.73792741408E+02  0.14220992886E+03  0.00000000000E+00 0. -1.
         11    1    1    2    0    0  0.99015883216E+02 -0.77277798773E+02 -0.16145830356E+03  0.20455998412E+03  0.00000000000E+00 0.  1.
</event>
<event>
 7    1  0.1068210E-005  0.7298300E+02  0.7561462E-02  0.1350233E+00
         -1   -1    0    0    0  501 -0.00000000000E+00  0.00000000000E+00  0.31042903345E+02  0.31042903345E+02  0.00000000000E+00 0.  1.
          1   -1    0    0  501    0  0.00000000000E+00 -0.00000000000E+00 -0.44182932606E+03  0.44182932606E+03  0.00000000000E+00 0. -1.
         23    2    1    2    0    0 -0.13314590945E+02 -0.33805045792E+02 -0.19641484324E+03  0.23567959828E+03  0.12508406352E+03 0.  0.
          5    1    3    3  502    0 -0.40764745718E+01 -0.59499439462E+02 -0.19914193609E+03  0.20792254340E+03  0.41800000000E+01 0.  1.
         -5    1    3    3    0  502 -0.92381163730E+01  0.25694393670E+02  0.27270928578E+01  0.27757054881E+02  0.41800000000E+01 0.  1.
        -11    1    1    2    0    0  0.22429843017E+01 -0.11603956811E+02  0.50469637983E+01  0.12851250360E+02  0.00000000000E+00 0.  1.
         11    1    1    2    0    0  0.11071606643E+02  0.45409002603E+02 -0.21941854327E+03  0.22434138077E+03  0.00000000000E+00 0. -1.
</event>
<event>
 7    1  0.1068210E-005  0.9843410E+02  0.7561462E-02  0.1283624E+00
          2   -1    0    0  501    0  0.00000000000E+00  0.00000000000E+00  0.20513206736E+03  0.20513206736E+03  0.00000000000E+00 0. -1.
         -2   -1    0    0    0  501 -0.00000000000E+00 -0.00000000000E+00 -0.76673709967E+02  0.76673709967E+02  0.00000000000E+00 0.  1.
         23    2    1    2    0    0 -0.53148263396E+02  0.35462754413E+02  0.61676151028E+02  0.15340543158E+03  0.12508770515E+03 0.  0.
          5    1    3    3  502    0 -0.60569607510E+02  0.11259378490E+02 -0.22257274518E+02  0.65637714973E+02  0.41800000000E+01 0. -1.
         -5    1    3    3    0  502  0.74213441146E+01  0.24203375923E+02  0.83933425547E+02  0.87767716608E+02  0.41800000000E+01 0. -1.
        -11    1    1    2    0    0 -0.23752960153E+02  0.21577765819E+01  0.11373728596E+02  0.26423868339E+02  0.00000000000E+00 0.  1.
         11    1    1    2    0    0  0.76901223549E+02 -0.37620530994E+02  0.55408477769E+02  0.10197647741E+03  0.00000000000E+00 0. -1.
</event>
<event>
 7    1  0.1068210E-005  0.1827858E+03  0.7561462E-02  0.1165134E+00
          2   -1    0    0  501    0  0.00000000000E+00  0.00000000000E+00  0.41627634822E+03  0.41627634822E+03  0.00000000000E+00 0.  1.
         -2   -1    0    0    0  501 -0.00000000000E+00 -0.00000000000E+00 -0.95040593369E+02  0.95040593369E+02  0.00000000000E+00 0. -1.
         23    2    1    2    0    0 -0.14456907112E+03  0.79579026461E+02  0.14161592580E+03  0.25086102856E+03  0.12507256866E+03 0.  0.
          5    1    3    3  502    0 -0.16388424470E+03  0.69397563800E+02  0.14335038541E+03  0.22856262363E+03  0.41800000000E+01 0.  1.
         -5    1    3    3    0  502  0.19315173575E+02  0.10181462661E+02 -0.17344596163E+01  0.22298404928E+02  0.41800000000E+01 0.  1.
        -11    1    1    2    0    0  0.73351804471E+02 -0.46007891042E+02  0.15572219587E+03  0.17817579955E+03  0.00000000000E+00 0.  1.
         11    1    1    2    0    0  0.71217266653E+02 -0.33571135420E+02  0.23897633179E+02  0.82280113481E+02  0.00000000000E+00 0. -1.
</event>
<event>
 7    1  0.1068210E-005  0.1777762E+03  0.7561462E-02  0.1169973E+00
          2   -1    0    0  501    0  0.00000000000E+00  0.00000000000E+00  0.11010706097E+04  0.11010706097E+04  0.00000000000E+00 0. -1.
         -2   -1    0    0    0  501 -0.00000000000E+00 -0.00000000000E+00 -0.37218080154E+02  0.37218080154E+02  0.00000000000E+00 0.  1.
         23    2    1    2    0    0  0.56280093313E+02 -0.13627462053E+03  0.79518693428E+03  0.81835087015E+03  0.12505065020E+03 0.  0.
          5    1    3    3  502    0  0.81000686023E+02 -0.14057425349E+03  0.73993414008E+03  0.75752375272E+03  0.41800000000E+01 0.  1.
         -5    1    3    3    0  502 -0.24720592710E+02  0.42996329576E+01  0.55252794207E+02  0.60827117433E+02  0.41800000000E+01 0.  1.
        -11    1    1    2    0    0 -0.34290357850E+02  0.14118417007E+03  0.25528427209E+03  0.29373263029E+03  0.00000000000E+00 0. -1.
         11    1    1    2    0    0 -0.21989735463E+02 -0.49095495401E+01  0.13381323169E+02  0.26205189414E+02  0.00000000000E+00 0.  1.
</event>
<event>
 7    1  0.1068210E-005  0.1186982E+03  0.7561462E-02  0.1245260E+00
         -2   -1    0    0    0  501 -0.00000000000E+00  0.00000000000E+00  0.20613792007E+03  0.20613792007E+03  0.00000000000E+00 0. -1.
          2   -1    0    0  501    0  0.00000000000E+00 -0.00000000000E+00 -0.13828197496E+03  0.13828197496E+03  0.00000000000E+00 0.  1.
         23    2    1    2    0    0 -0.80904168395E+02 -0.63532842087E+02  0.11558469002E+03  0.19897225715E+03  0.12509289373E+03 0.  0.
          5    1    3    3  502    0 -0.78661360300E+02 -0.17039719222E+02  0.71688097207E+01  0.80912458053E+02  0.41800000000E+01 0. -1.
         -5    1    3    3    0  502 -0.22428080947E+01 -0.46493122866E+02  0.10841588030E+03  0.11805979910E+03  0.41800000000E+01 0. -1.
        -11    1    1    2    0    0  0.71477174206E+02  0.68850631620E+02 -0.28530200348E+01  0.99285122905E+02  0.00000000000E+00 0. -1.
         11    1    1    2    0    0  0.94269941890E+01 -0.53177895333E+01 -0.44875724879E+02  0.46162514970E+02  0.00000000000E+00 0.  1.
</event>
<event>
 7    1  0.1068210E-005  0.3055707E+03  0.7561462E-02  0.1082489E+00
          1   -1    0    0  501    0  0.00000000000E+00  0.00000000000E+00  0.60198066667E+03  0.60198066667E+03  0.00000000000E+00 0. -1.
         -1   -1    0    0    0  501 -0.00000000000E+00 -0.00000000000E+00 -0.16849366246E+03  0.16849366246E+03  0.00000000000E+00 0.  1.
         23    2    1    2    0    0 -0.63849489715E+02 -0.29157072210E+03  0.21799373542E+03  0.39020359490E+03  0.12508930199E+03 0.  0.
          5    1    3    3  502    0 -0.57405169433E+02 -0.16550549949E+03  0.54297317889E+02  0.18344779903E+03  0.41800000000E+01 0. -1.
         -5    1    3    3    0  502 -0.64443202818E+01 -0.12606522261E+03  0.16369641753E+03  0.20675579587E+03  0.41800000000E+01 0. -1.
        -11    1    1    2    0    0  0.16634968550E+02  0.23645969827E+03  0.13882769313E+03  0.27470536847E+03  0.00000000000E+00 0.  1.
         11    1    1    2    0    0  0.47214521165E+02  0.55111023830E+02  0.76665575656E+02  0.10556536576E+03  0.00000000000E+00 0. -1.
</event>
<event>
 7    1  0.1068210E-005  0.2155601E+03  0.7561462E-02  0.1137237E+00
         -1   -1    0    0    0  501 -0.00000000000E+00  0.00000000000E+00  0.12370964100E+03  0.12370964100E+03  0.00000000000E+00 0.  1.
          1   -1    0    0  501    0  0.00000000000E+00 -0.00000000000E+00 -0.44031978311E+03  0.44031978311E+03  0.00000000000E+00 0. -1.
         23    2    1    2    0    0  0.16134468520E+03  0.98483040885E+02 -0.64210478292E+02  0.23558652551E+03  0.12508800381E+03 0.  0.
          5    1    3    3  502    0 -0.13488021520E+02  0.30379017519E+02  0.80942323756E+01  0.34464480668E+02  0.41800000000E+01 0. -1.
         -5    1    3    3    0  502  0.17483270672E+03  0.68104023366E+02 -0.72304710668E+02  0.20112204484E+03  0.41800000000E+01 0. -1.
        -11    1    1    2    0    0 -0.53438167325E+02  0.12784929924E+02 -0.72794584176E+02  0.91203857624E+02  0.00000000000E+00 0.  1.
         11    1    1    2    0    0 -0.10790651787E+03 -0.11126797081E+03 -0.17960507964E+03  0.23723904097E+03  0.00000000000E+00 0. -1.
</event>
<event>
 7    1  0.1068210E-005  0.1283362E+03  0.7561462E-02  0.1229946E+00
          2   -1    0    0  501    0  0.00000000000E+00  0.00000000000E+00  0.83320913488E+02  0.83320913488E+02  0.00000000000E+00 0. -1.
         -2   -1    0    0    0  501 -0.00000000000E+00 -0.00000000000E+00 -0.29902457341E+03  0.29902457341E+03  0.00000000000E+00 0.  1.
         23    2    1    2    0    0 -0.67077229083E+02 -0.71751538035E+02 -0.18880022869E+03  0.24686175171E+03  0.12509020837E+03 0.  0.
          5    1    3    3  502    0 -0.51966160566E+02 -0.91916755257E+02 -0.73387017622E+02  0.12865573635E+03  0.41800000000E+01 0.  1.
         -5    1    3    3    0  502 -0.15111068517E+02  0.20165217222E+02 -0.11541321107E+03  0.11820601535E+03  0.41800000000E+01 0.  1.
        -11    1    1    2    0    0 -0.15693297349E+02 -0.33390501371E+00 -0.20113847815E+02  0.25513877560E+02  0.00000000000E+00 0.  1.
         11    1    1    2    0    0  0.82770526432E+02  0.72085443049E+02 -0.67895834228E+01  0.10996985764E+03  0.00000000000E+00 0. -1.
</event>
<event>
 7    1  0.1068210E-005  0.5798896E+02  0.7561462E-02  0.1406470E+00
          1   -1    0    0  501    0  0.00000000000E+00  0.00000000000E+00  0.41924276306E+02  0.41924276306E+02  0.00000000000E+00 0. -1.
         -1   -1    0    0    0  501 -0.00000000000E+00 -0.00000000000E+00 -0.29179355892E+03  0.29179355892E+03  0.00000000000E+00 0.  1.
         23    2    1    2    0    0 -0.27344663721E+02  0.27965970492E+01 -0.16902070780E+03  0.21206454774E+03  0.12509125131E+03 0.  0.
          5    1    3    3  502    0 -0.46803111368E+02 -0.22540074381E+02 -0.14324162041E+02  0.54048498638E+02  0.41800000000E+01 0.  1.
         -5    1    3    3    0  502  0.19458447647E+02  0.25336671430E+02 -0.15469654576E+03  0.15801604910E+03  0.41800000000E+01 0.  1.
        -11    1    1    2    0    0  0.14791472606E+02 -0.93335314155E+01 -0.97924654026E+02  0.99474319986E+02  0.00000000000E+00 0.  1.
         11    1    1    2    0    0  0.12553191115E+02  0.65369343662E+01  0.17076079212E+02  0.22178967500E+02  0.00000000000E+00 0. -1.
</event>
<event>
 7    1  0.1068210E-005  0.1275437E+03  0.7561462E-02  0.1231147E+00
         -4   -1    0    0    0  501 -0.00000000000E+00  0.00000000000E+00  0.64291293503E+02  0.64291293503E+02  0.00000000000E+00 0.  1.
          4   -1    0    0  501    0  0.00000000000E+00 -0.00000000000E+00 -0.27984872990E+03  0.27984872990E+03  0.00000000000E+00 0. -1.
         23    2    1    2    0    0  0.60221756930E+02  0.35075165318E+02 -0.16593420091E+03  0.21917554702E+03  0.12508730611E+03 0.  0.
          5    1    3    3  502    0  0.87055984709E+02  0.59954187230E+02 -0.11416757053E+03  0.15564368153E+03  0.41800000000E+01 0.  1.
         -5    1    3    3    0  502 -0.26834227779E+02 -0.24879021912E+02 -0.51766630381E+02  0.63531865491E+02  0.41800000000E+01 0.  1.
        -11    1    1    2    0    0 -0.79810981963E+02 -0.96773456339E+01 -0.23969794402E+02  0.83892758353E+02  0.00000000000E+00 0.  1.
         11    1    1    2    0    0  0.19589225032E+02 -0.25397819684E+02 -0.25653441082E+02  0.41071718024E+02  0.00000000000E+00 0. -1.
</event>
<event>
 7    1  0.2319512E-005  0.2203554E+03  0.7561462E-02  0.1133618E+00
         -1   -1    0    0    0  501 -0.00000000000E+00  0.00000000000E+00  0.23547572431E+03  0.23547572431E+03  0.00000000000E+00 0.  1.
          1   -1    0    0  501    0  0.00000000000E+00 -0.00000000000E+00 -0.25079483078E+03  0.25079483078E+03  0.00000000000E+00 0. -1.
         23    2    1    2    0    0 -0.58767724839E+02  0.19932105798E+03  0.55005873936E+02  0.24870726580E+03  0.12508848172E+03 0.  0.
          5    1    3    3  502    0  0.23411103233E+02  0.10546487671E+02  0.32384696011E+02  0.41539729085E+02  0.41800000000E+01 0.  1.
         -5    1    3    3    0  502 -0.82178828073E+02  0.18877457031E+03  0.22621177925E+02  0.20716753672E+03  0.41800000000E+01 0.  1.
        -11    1    1    2    0    0  0.17124512881E+02 -0.93343105988E+02 -0.78842928584E+02  0.12337905724E+03  0.00000000000E+00 0. -1.
         11    1    1    2    0    0  0.41643211958E+02 -0.10597795199E+03  0.85179481790E+01  0.11418423206E+03  0.00000000000E+00 0.  1.
</event>
<event>
 7    1  0.1068210E-005  0.1180453E+03  0.7561462E-02  0.1246357E+00
          1   -1    0    0  501    0  0.00000000000E+00  0.00000000000E+00  0.52252472429E+03  0.52252472429E+03  0.00000000000E+00 0. -1.
         -1   -1    0    0    0  501 -0.00000000000E+00 -0.00000000000E+00 -0.32352089200E+02  0.32352089200E+02  0.00000000000E+00 0.  1.
         23    2    1    2    0    0  0.68382660221E+02 -0.13382132327E+02  0.24449295670E+03  0.28333702401E+03  0.12509114123E+03 0.  0.
          5    1    3    3  502    0 -0.11542410454E+02 -0.41974092875E+02  0.15000825913E+03  0.15625300611E+03  0.41800000000E+01 0.  1.
         -5    1    3    3    0  502  0.79925070675E+02  0.28591960549E+02  0.94484697574E+02  0.12708401790E+03  0.41800000000E+01 0.  1.
        -11    1    1    2    0    0  0.90819082793E+01 -0.20802013823E+02  0.10432619004E+03  0.10676684301E+03  0.00000000000E+00 0. -1.
         11    1    1    2    0    0 -0.77464568500E+02  0.34184146150E+02  0.14135348834E+03  0.16477294647E+03  0.00000000000E+00 0.  1.
</event>
<event>
 7    1  0.1068210E-005  0.9026209E+02  0.7561462E-02  0.1302218E+00
         -1   -1    0    0    0  501 -0.00000000000E+00  0.00000000000E+00  0.18183776743E+03  0.18183776743E+03  0.00000000000E+00 0.  1.
          1   -1    0    0  501    0  0.00000000000E+00 -0.00000000000E+00 -0.77930892256E+02  0.77930892256E+02  0.00000000000E+00 0. -1.
         23    2    1    2    0    0  0.34037979604E+02 -0.17890175444E+02  0.96554943698E+02  0.16263124890E+03  0.12508966198E+03 0.  0.
          5    1    3    3  502    0  0.54001410533E+02  0.29915402663E+02  0.91436939849E+02  0.11040502717E+03  0.41800000000E+01 0. -1.
         -5    1    3    3    0  502 -0.19963430929E+02 -0.47805578107E+02  0.51180038486E+01  0.52226221728E+02  0.41800000000E+01 0. -1.
        -11    1    1    2    0    0  0.15095081313E+02  0.43519993415E+01  0.35568585796E+02  0.38883488445E+02  0.00000000000E+00 0.  1.
         11    1    1    2    0    0 -0.49133060918E+02  0.13538176102E+02 -0.28216654318E+02  0.58253922342E+02  0.00000000000E+00 0. -1.
</event>
<event>
 7    1  0.1068210E-005  0.1085061E+03  0.7561462E-02  0.1263362E+00
         -2   -1    0    0    0  501 -0.00000000000E+00  0.00000000000E+00  0.16411596096E+03  0.16411596096E+03  0.00000000000E+00 0. -1.
          2   -1    0    0  501    0  0.00000000000E+00 -0.00000000000E+00 -0.91607127495E+02  0.91607127495E+02  0.00000000000E+00 0.  1.
         23    2    1    2    0    0 -0.41682281660E+02 -0.29954691911E+02  0.68855027753E+02  0.15172936121E+03  0.12508432370E+03 0.  0.
          5    1    3    3  502    0 -0.75630500610E+02  0.11441985093E+02  0.20099007688E+02  0.79198069140E+02  0.41800000000E+01 0.  1.
         -5    1    3    3    0  502  0.33948218950E+02 -0.41396677004E+02  0.48756020064E+02  0.72531292070E+02  0.41800000000E+01 0.  1.
        -11    1    1    2    0    0  0.53333688808E+02 -0.13021068817E+01 -0.26011737528E+02  0.59353081920E+02  0.00000000000E+00 0.  1.
         11    1    1    2    0    0 -0.11651407148E+02  0.31256798792E+02  0.29665543242E+02  0.44640645326E+02  0.00000000000E+00 0. -1.
</event>
<event>
 7    1  0.1068210E-005  0.1566541E+03  0.7561462E-02  0.1192527E+00
         -2   -1    0    0    0  501 -0.00000000000E+00  0.00000000000E+00  0.42196828505E+02  0.42196828505E+02  0.00000000000E+00 0.  1.
          2   -1    0    0  501    0  0.00000000000E+00 -0.00000000000E+00 -0.67970982172E+03  0.67970982172E+03  0.00000000000E+00 0. -1.
         23    2    1    2    0    0  0.55383315489E+01 -0.12566313197E+03 -0.28388323079E+03  0.33475593081E+03  0.12509975472E+03 0.  0.
          5    1    3    3  502    0 -0.73579451384E+01  0.24427594373E+02 -0.54149219443E+02  0.60003808961E+02  0.41800000000E+01 0.  1.
         -5    1    3    3    0  502  0.12896276687E+02 -0.15009072635E+03 -0.22973401135E+03  0.27475212185E+03  0.41800000000E+01 0.  1.
        -11    1    1    2    0    0 -0.29743340690E+02  0.68765568373E+02 -0.93716939413E+02  0.11998430915E+03  0.00000000000E+00 0.  1.
         11    1    1    2    0    0  0.24205009141E+02  0.56897563602E+02 -0.25991282300E+03  0.26716641026E+03  0.00000000000E+00 0. -1.
</event>
<event>
 7    1  0.1068210E-005  0.1322312E+03  0.7561462E-02  0.1224182E+00
         -1   -1    0    0    0  501 -0.00000000000E+00  0.00000000000E+00  0.38551303329E+02  0.38551303329E+02  0.00000000000E+00 0.  1.
          1   -1    0    0  501    0  0.00000000000E+00 -0.00000000000E+00 -0.78046074655E+03  0.78046074655E+03  0.00000000000E+00 0. -1.
         23    2    1    2    0    0 -0.12407166535E+03  0.29733505074E+01 -0.27435247396E+03  0.32606633143E+03  0.12508938232E+03 0.  0.
          5    1    3    3  502    0 -0.12437953602E+03  0.11471069897E+02 -0.12620037144E+03  0.17761154404E+03  0.41800000000E+01 0. -1.
         -5    1    3    3    0  502  0.30787066738E+00 -0.84977193893E+01 -0.14815210251E+03  0.14845478739E+03  0.41800000000E+01 0. -1.
        -11    1    1    2    0    0  0.61486610437E+02  0.17894487930E+02 -0.36789270332E+03  0.37342449989E+03  0.00000000000E+00 0. -1.
         11    1    1    2    0    0  0.62585054915E+02 -0.20867838438E+02 -0.99664265950E+02  0.11952121856E+03  0.00000000000E+00 0.  1.
</event>
<event>
 7    1  0.1068210E-005  0.7036211E+02  0.7561462E-02  0.1358866E+00
          2   -1    0    0  501    0  0.00000000000E+00  0.00000000000E+00  0.15368638849E+02  0.15368638849E+02  0.00000000000E+00 0. -1.
         -2   -1    0    0    0  501 -0.00000000000E+00 -0.00000000000E+00 -0.89045207253E+03  0.89045207253E+03  0.00000000000E+00 0.  1.
         23    2    1    2    0    0 -0.35870236109E+02  0.19232971692E+02 -0.56141833666E+03  0.57662460254E+03  0.12509517372E+03 0.  0.
          5    1    3    3  502    0 -0.36826290040E+02  0.17528560886E+02 -0.56750643943E+03  0.56898546315E+03  0.41800000000E+01 0.  1.
         -5    1    3    3    0  502  0.95605393128E+00  0.17044108061E+01  0.60881027717E+01  0.76391393935E+01  0.41800000000E+01 0.  1.
        -11    1    1    2    0    0 -0.64276778851E+00 -0.48384322215E+02 -0.20976925736E+03  0.21527795317E+03  0.00000000000E+00 0.  1.
         11    1    1    2    0    0  0.36513003898E+02  0.29151350522E+02 -0.10389583966E+03  0.11391815566E+03  0.00000000000E+00 0. -1.
</event>
<event>
 6    1  0.1068210E-005  0.1763684E+03  0.7561462E-02  0.1171365E+00
         -2   -1    0    0    0  501 -0.00000000000E+00  0.00000000000E+00  0.65044953795E+02  0.65044953795E+02  0.00000000000E+00 0.  1.
          2   -1    0    0  501    0  0.00000000000E+00 -0.00000000000E+00 -0.65172374321E+03  0.65172374321E+03  0.00000000000E+00 0. -1.
          5    1    1    2  502    0 -0.97966388215E+02  0.11334860666E+03 -0.25158530252E+03  0.29284459479E+03  0.41800000000E+01 0. -1.
         -5    1    1    2    0  502  0.61434763000E+00  0.17172706216E+02  0.17714841084E+02  0.25031325503E+02  0.41800000000E+01 0.  1.
        -11    1    1    2    0    0  0.99490887687E+02 -0.14206355650E+03 -0.33882967381E+03  0.38063898733E+03  0.00000000000E+00 0.  1.
         11    1    1    2    0    0 -0.21388471022E+01  0.11542243624E+02 -0.13978654169E+02  0.18253789392E+02  0.00000000000E+00 0. -1.
</event>
<event>
 7    1  0.1068210E-005  0.7894657E+02  0.7561462E-02  0.1332068E+00
         -1   -1    0    0    0  501 -0.00000000000E+00  0.00000000000E+00  0.54853198576E+02  0.54853198576E+02  0.00000000000E+00 0.  1.
          1   -1    0    0  501    0  0.00000000000E+00 -0.00000000000E+00 -0.31311164234E+03  0.31311164234E+03  0.00000000000E+00 0. -1.
         23    2    1    2    0    0 -0.48005302624E+02  0.47082465926E+02 -0.11435998550E+03  0.18233617034E+03  0.12508798925E+03 0.  0.
          5    1    3    3  502    0 -0.11231536118E+02  0.11814219076E+02  0.27112075567E+02  0.31910189869E+02  0.41800000000E+01 0.  1.
         -5    1    3    3    0  502 -0.36773766507E+02  0.35268246850E+02 -0.14147206106E+03  0.15042598047E+03  0.41800000000E+01 0.  1.
        -11    1    1    2    0    0  0.25075191316E+02  0.11085743793E+02  0.13962449446E+01  0.27451929530E+02  0.00000000000E+00 0.  1.
         11    1    1    2    0    0  0.22930111309E+02 -0.58168209720E+02 -0.14529470322E+03  0.15817674105E+03  0.00000000000E+00 0. -1.
</event>
<event>
 7    1  0.1068210E-005  0.1292589E+03  0.7561462E-02  0.1228559E+00
          1   -1    0    0  501    0  0.00000000000E+00  0.00000000000E+00  0.44278657999E+02  0.44278657999E+02  0.00000000000E+00 0. -1.
         -1   -1    0    0    0  501 -0.00000000000E+00 -0.00000000000E+00 -0.54203422958E+03  0.54203422958E+03  0.00000000000E+00 0.  1.
         23    2    1    2    0    0  0.86543590018E+02  0.31365319203E+02 -0.38468124593E+03  0.41485156442E+03  0.12509429769E+03 0.  0.
          5    1    3    3  502    0  0.96292745408E+02 -0.92315038517E+01 -0.34016662519E+03  0.35367827015E+03  0.41800000000E+01 0.  1.
         -5    1    3    3    0  502 -0.97491553903E+01  0.40596823055E+02 -0.44514620732E+02  0.61173294270E+02  0.41800000000E+01 0.  1.
        -11    1    1    2    0    0 -0.75393041801E+02  0.10760479914E+02 -0.10052119954E+03  0.12611268865E+03  0.00000000000E+00 0.  1.
         11    1    1    2    0    0 -0.11150548216E+02 -0.42125799118E+02 -0.12553126111E+02  0.45348634511E+02  0.00000000000E+00 0. -1.
</event>
<event>
 7    1  0.1068210E-005  0.2376188E+03  0.7561462E-02  0.1121389E+00
         -1   -1    0    0    0  501 -0.00000000000E+00  0.00000000000E+00  0.11625751583E+03  0.11625751583E+03  0.00000000000E+00 0.  1.
          1   -1    0    0  501    0  0.00000000000E+00 -0.00000000000E+00 -0.62364209500E+03  0.62364209500E+03  0.00000000000E+00 0. -1.
         23    2    1    2    0    0 -0.11603684901E+03  0.19871081943E+03 -0.14065097948E+03  0.29729039448E+03  0.12509332731E+03 0.  0.
          5    1    3    3  502    0 -0.77759586892E+02  0.18987577754E+03 -0.15291027207E+03  0.25592652843E+03  0.41800000000E+01 0. -1.
         -5    1    3    3    0  502 -0.38277262114E+02  0.88350418929E+01  0.12259292589E+02  0.41363866054E+02  0.41800000000E+01 0. -1.
        -11    1    1    2    0    0  0.27470267127E+02 -0.59138303047E+02 -0.40155585733E+02  0.76579537272E+02  0.00000000000E+00 0.  1.
         11    1    1    2    0    0  0.88566581878E+02 -0.13957251639E+03 -0.32657801396E+03  0.36602967907E+03  0.00000000000E+00 0. -1.
</event>
<event>
 7    1  0.1068210E-005  0.1052288E+03  0.7561462E-02  0.1269669E+00
          2   -1    0    0  501    0  0.00000000000E+00  0.00000000000E+00  0.99658484274E+03  0.99658484274E+03  0.00000000000E+00 0. -1.
         -2   -1    0    0    0  501 -0.00000000000E+00 -0.00000000000E+00 -0.13287622143E+02  0.13287622143E+02  0.00000000000E+00 0.  1.
         23    2    1    2    0    0 -0.40896429003E+01 -0.28469863304E+02  0.43385173789E+03  0.45244239526E+03  0.12509809059E+03 0.  0.
          5    1    3    3  502    0  0.43545274743E+02  0.20255125240E+02  0.28006366197E+03  0.28418231508E+03  0.41800000000E+01 0. -1.
         -5    1    3    3    0  502 -0.47634917643E+02 -0.48724988544E+02  0.15378807592E+03  0.16826008018E+03  0.41800000000E+01 0. -1.
        -11    1    1    2    0    0  0.41773803792E+02  0.36474068694E+02  0.33101079410E+03  0.33562412634E+03  0.00000000000E+00 0.  1.
         11    1    1    2    0    0 -0.37684160892E+02 -0.80042053900E+01  0.21843468861E+03  0.22180594328E+03  0.00000000000E+00 0. -1.
</event>
<event>
 7    1  0.1068210E-005  0.8858487E+02  0.7561462E-02  0.1306315E+00
         -1   -1    0    0    0  501 -0.00000000000E+00  0.00000000000E+00  0.23609656692E+02  0.23609656692E+02  0.00000000000E+00 0.  1.
          1   -1    0    0  501    0  0.00000000000E+00 -0.00000000000E+00 -0.64629312277E+03  0.64629312277E+03  0.00000000000E+00 0. -1.
         23    2    1    2    0    0 -0.51289804645E+02 -0.53458415594E+01 -0.26494380116E+03  0.29748975063E+03  0.12508282006E+03 0.  0.
          5    1    3    3  502    0  0.17913715612E+02 -0.19235218526E+02 -0.19910423532E+03  0.20087524428E+03  0.41800000000E+01 0.  1.
         -5    1    3    3    0  502 -0.69203520257E+02  0.13889376967E+02 -0.65839565835E+02  0.96614506353E+02  0.41800000000E+01 0.  1.
        -11    1    1    2    0    0  0.59040727958E+02  0.20768076559E+02 -0.34581746262E+03  0.35143539665E+03  0.00000000000E+00 0. -1.
         11    1    1    2    0    0 -0.77509233127E+01 -0.15422235000E+02 -0.11922202298E+02  0.20977632188E+02  0.00000000000E+00 0.  1.
</event>
<event>
 7    1  0.1068210E-005  0.1131821E+03  0.7561462E-02  0.1254788E+00
          1   -1    0    0  501    0  0.00000000000E+00  0.00000000000E+00  0.76841520743E+02  0.76841520743E+02  0.00000000000E+00 0. -1.
         -1   -1    0    0    0  501 -0.00000000000E+00 -0.00000000000E+00 -0.17626940783E+03  0.17626940783E+03  0.00000000000E+00 0.  1.
         23    2    1    2    0    0 -0.66713819757E+01 -0.40092734294E+02 -0.80152638966E+02  0.15402446462E+03  0.12508859056E+03 0.  0.
          5    1    3    3  502    0  0.34688756345E+02  0.32507413104E+02 -0.25682611334E+02  0.54195116463E+02  0.41800000000E+01 0.  1.
         -5    1    3    3    0  502 -0.41360138320E+02 -0.72600147398E+02 -0.54470027633E+02  0.99829348162E+02  0.41800000000E+01 0.  1.
        -11    1    1    2    0    0  0.21689242419E+02 -0.22121389690E+02 -0.16322883623E+02  0.35017362098E+02  0.00000000000E+00 0.  1.
         11    1    1    2    0    0 -0.15017860443E+02  0.62214123984E+02 -0.29523644930E+01  0.64069101847E+02  0.00000000000E+00 0. -1.
</event>
<event>
 6    1  0.1068210E-005  0.1909006E+03  0.7561462E-02  0.1157652E+00
          1   -1    0    0  501    0  0.00000000000E+00  0.00000000000E+00  0.17720607991E+03  0.17720607991E+03  0.00000000000E+00 0. -1.
         -1   -1    0    0    0  501 -0.00000000000E+00 -0.00000000000E+00 -0.50529011688E+03  0.50529011688E+03  0.00000000000E+00 0.  1.
          5    1    1    2  502    0  0.88627153411E+02 -0.65927169648E+02 -0.95680571929E+02  0.14619647145E+03  0.41800000000E+01 0. -1.
         -5    1    1    2    0  502 -0.14791760548E+03  0.85184356056E+02 -0.34124072857E+03  0.38157397679E+03  0.41800000000E+01 0.  1.
        -11    1    1    2    0    0  0.32783212766E+02 -0.50086349971E+02  0.32202321125E+02  0.67973310781E+02  0.00000000000E+00 0.  1.
         11    1    1    2    0    0  0.26507239306E+02  0.30829163562E+02  0.76634942400E+02  0.86752437765E+02  0.00000000000E+00 0. -1.
</event>
<event>
 7    1  0.1068210E-005  0.1035786E+03  0.7561462E-02  0.1272946E+00
          3   -1    0    0  501    0  0.00000000000E+00  0.00000000000E+00  0.50891920021E+02  0.50891920021E+02  0.00000000000E+00 0. -1.
         -3   -1    0    0    0  501 -0.00000000000E+00 -0.00000000000E+00 -0.41395393985E+03  0.41395393985E+03  0.00000000000E+00 0.  1.
         23    2    1    2    0    0  0.34774089963E+02 -0.44712803085E+02 -0.32399038408E+03  0.35188980556E+03  0.12509274233E+03 0.  0.
          5    1    3    3  502    0  0.30116043435E+02  0.31156880654E+02 -0.21233430931E+03  0.21675114439E+03  0.41800000000E+01 0. -1.
         -5    1    3    3    0  502  0.46580465288E+01 -0.75869683739E+02 -0.11165607477E+03  0.13513866116E+03  0.41800000000E+01 0. -1.
        -11    1    1    2    0    0 -0.54176216171E+02  0.40501772431E+02  0.16392733918E+01  0.67661977402E+02  0.00000000000E+00 0. -1.
         11    1    1    2    0    0  0.19402126208E+02  0.42110306543E+01 -0.40710909135E+02  0.45294076910E+02  0.00000000000E+00 0.  1.
</event>
<event>
 6    1  0.1068210E-005  0.5315480E+02  0.7561462E-02  0.1429032E+00
         -1   -1    0    0    0  501 -0.00000000000E+00  0.00000000000E+00  0.25122206363E+03  0.25122206363E+03  0.00000000000E+00 0.  1.
          1   -1    0    0  501    0  0.00000000000E+00 -0.00000000000E+00 -0.26566495039E+03  0.26566495039E+03  0.00000000000E+00 0. -1.
          5    1    1    2  502    0 -0.66234071568E+01 -0.42610226225E+01 -0.56620002807E+02  0.57317736819E+02  0.41800000000E+01 0. -1.
         -5    1    1    2    0  502  0.44502094782E+01  0.41422955167E+01  0.24069494974E+03  0.24080800279E+03  0.41800000000E+01 0.  1.
        -11    1    1    2    0    0  0.14719003903E+02  0.42940769681E+02 -0.12215978329E+03  0.13032103218E+03  0.00000000000E+00 0.  1.
         11    1    1    2    0    0 -0.12545806224E+02 -0.42822042576E+02 -0.76358050408E+02  0.88440242233E+02  0.00000000000E+00 0. -1.
</event>
<event>
 7    1  0.1068210E-005  0.1169109E+03  0.7561462E-02  0.1248282E+00
         -2   -1    0    0    0  501 -0.00000000000E+00  0.00000000000E+00  0.62840003949E+02  0.62840003949E+02  0.00000000000E+00 0.  1.
          2   -1    0    0  501    0  0.00000000000E+00 -0.00000000000E+00 -0.33787850931E+03  0.33787850931E+03  0.00000000000E+00 0. -1.
         23    2    1    2    0    0  0.67971343415E+02 -0.67832767661E+02 -0.12874672667E+03  0.20357804019E+03  0.12508761300E+03 0.  0.
          5    1    3    3  502    0  0.57200333038E+02  0.26933971134E+01 -0.12640685418E+01  0.57429981342E+02  0.41800000000E+01 0. -1.
         -5    1    3    3    0  502  0.10771010377E+02 -0.70526164774E+02 -0.12748265812E+03  0.14614805885E+03  0.41800000000E+01 0. -1.
        -11    1    1    2    0    0 -0.45443339446E+02  0.15584633460E+02 -0.94786539153E+01  0.48967568657E+02  0.00000000000E+00 0.  1.
         11    1    1    2    0    0 -0.22528003968E+02  0.52248134201E+02 -0.13681312478E+03  0.14817290441E+03  0.00000000000E+00 0. -1.
</event>
<event>
 7    1  0.1068210E-005  0.9795820E+02  0.7561462E-02  0.1284649E+00
          1   -1    0    0  501    0  0.00000000000E+00  0.00000000000E+00  0.33214386540E+03  0.33214386540E+03  0.00000000000E+00 0. -1.
         -1   -1    0    0    0  501 -0.00000000000E+00 -0.00000000000E+00 -0.70906949312E+02  0.70906949312E+02  0.00000000000E+00 0.  1.
         23    2    1    2    0    0  0.32782967435E+02  0.73180499357E+02  0.60444735777E+02  0.16040923432E+03  0.12508975950E+03 0.  0.
          5    1    3    3  502    0  0.16794555120E+02  0.48452230786E+02  0.99085768140E+02  0.11164738061E+03  0.41800000000E+01 0.  1.
         -5    1    3    3    0  502  0.15988412315E+02  0.24728268570E+02 -0.38641032363E+02  0.48761853707E+02  0.41800000000E+01 0.  1.
        -11    1    1    2    0    0 -0.60383844187E+02 -0.45254211185E+02  0.18592894632E+03  0.20065823020E+03  0.00000000000E+00 0. -1.
         11    1    1    2    0    0  0.27600876751E+02 -0.27926288172E+02  0.14863233993E+02  0.41983350191E+02  0.00000000000E+00 0.  1.
</event>
<event>
 7    1  0.1068210E-005  0.3564219E+03  0.7561462E-02  0.1060010E+00
          2   -1    0    0  501    0  0.00000000000E+00  0.00000000000E+00  0.14784259364E+04  0.14784259364E+04  0.00000000000E+00 0. -1.
         -2   -1    0    0    0  501 -0.00000000000E+00 -0.00000000000E+00 -0.87764226088E+02  0.87764226088E+02  0.00000000000E+00 0.  1.
         23    2    1    2    0    0  0.10605295793E+03  0.32674397469E+03  0.67439745523E+03  0.76711653217E+03  0.12508793477E+03 0.  0.
          5    1    3    3  502    0 -0.22506020458E+02  0.12788863423E+02  0.44221515914E+02  0.51410999351E+02  0.41800000000E+01 0. -1.
         -5    1    3    3    0  502  0.12855897839E+03  0.31395511127E+03  0.63017593931E+03  0.71570553282E+03  0.41800000000E+01 0. -1.
        -11    1    1    2    0    0 -0.10643714607E+03 -0.26474281835E+03  0.51862559159E+03  0.59193760667E+03  0.00000000000E+00 0. -1.
         11    1    1    2    0    0  0.38418813857E+00 -0.62001156336E+02  0.19763866348E+03  0.20713602364E+03  0.00000000000E+00 0.  1.
</event>
<event>
 7    1  0.1068210E-005  0.1040252E+03  0.7561462E-02  0.1272052E+00
          1   -1    0    0  501    0  0.00000000000E+00  0.00000000000E+00  0.40047995517E+03  0.40047995517E+03  0.00000000000E+00 0. -1.
         -1   -1    0    0    0  501 -0.00000000000E+00 -0.00000000000E+00 -0.36046698694E+02  0.36046698694E+02  0.00000000000E+00 0.  1.
         23    2    1    2    0    0  0.21647158663E+02 -0.38925642048E+02  0.15090362028E+03  0.20100555212E+03  0.12509006469E+03 0.  0.
          5    1    3    3  502    0  0.57213456405E+02  0.12285961852E+02  0.11457770588E+03  0.12872391984E+03  0.41800000000E+01 0. -1.
         -5    1    3    3    0  502 -0.35566297743E+02 -0.51211603900E+02  0.36325914397E+02  0.72281632286E+02  0.41800000000E+01 0. -1.
        -11    1    1    2    0    0 -0.48539573233E+02  0.14749420081E+02  0.63930629753E+02  0.81613485301E+02  0.00000000000E+00 0.  1.
         11    1    1    2    0    0  0.26892414570E+02  0.24176221967E+02  0.14959900645E+03  0.15390761644E+03  0.00000000000E+00 0. -1.
</event>
<event>
 7    1  0.1068210E-005  0.6498020E+02  0.7561462E-02  0.1378046E+00
         -2   -1    0    0    0  501 -0.00000000000E+00  0.00000000000E+00  0.40869705111E+03  0.40869705111E+03  0.00000000000E+00 0.  1.
          2   -1    0    0  501    0  0.00000000000E+00 -0.00000000000E+00 -0.33681012165E+02  0.33681012165E+02  0.00000000000E+00 0. -1.
         23    2    1    2    0    0  0.35832049253E+02  0.10685934544E+02  0.25599055725E+03  0.28736091553E+03  0.12508799072E+03 0.  0.
          5    1    3    3  502    0  0.46546998615E+02  0.10621873322E+00  0.26515672906E+03  0.26924375151E+03  0.41800000000E+01 0.  1.
         -5    1    3    3    0  502 -0.10714949362E+02  0.10579715810E+02 -0.91661718105E+01  0.18117164020E+02  0.41800000000E+01 0.  1.
        -11    1    1    2    0    0 -0.23106922811E+02 -0.33958421906E+02  0.92770862138E+01  0.42109008879E+02  0.00000000000E+00 0. -1.
         11    1    1    2    0    0 -0.12725126442E+02  0.23272487362E+02  0.10974839548E+03  0.11290813886E+03  0.00000000000E+00 0.  1.
</event>
<event>
 7    1  0.1068210E-005  0.9686604E+02  0.7561462E-02  0.1287028E+00
          1   -1    0    0  501    0  0.00000000000E+00  0.00000000000E+00  0.11362441429E+03  0.11362441429E+03  0.00000000000E+00 0. -1.
         -1   -1    0    0    0  501 -0.00000000000E+00 -0.00000000000E+00 -0.15893247498E+03  0.15893247498E+03  0.00000000000E+00 0.  1.
         23    2    1    2    0    0 -0.34152911401E+02  0.70304207932E+02 -0.10479469099E+02  0.14787435043E+03  0.12509157139E+03 0.  0.
          5    1    3    3  502    0 -0.19868704383E+02  0.49916342171E+02 -0.66994915373E+02  0.85977890852E+02  0.41800000000E+01 0. -1.
         -5    1    3    3    0  502 -0.14284207018E+02  0.20387865762E+02  0.56515446274E+02  0.61896459576E+02  0.41800000000E+01 0. -1.
        -11    1    1    2    0    0  0.37144590912E+01  0.19463209290E+02  0.70830535744E+01  0.21042418353E+02  0.00000000000E+00 0.  1.
         11    1    1    2    0    0  0.30438452310E+02 -0.89767417222E+02 -0.41911645170E+02  0.10364012049E+03  0.00000000000E+00 0. -1.
</event>
<event>
 6    1  0.1068210E-005  0.1261641E+03  0.7561462E-02  0.1233261E+00
         -1   -1    0    0    0  501 -0.00000000000E+00  0.00000000000E+00  0.16896616673E+03  0.16896616673E+03  0.00000000000E+00 0.  1.
          1   -1    0    0  501    0  0.00000000000E+00 -0.00000000000E+00 -0.11564874629E+03  0.11564874629E+03  0.00000000000E+00 0. -1.
          5    1    1    2  502    0 -0.20303688499E+02  0.77387441928E+02  0.74151628946E+01  0.80458144247E+02  0.41800000000E+01 0. -1.
         -5    1    1    2    0  502  0.47422569745E+01 -0.82501160361E+02  0.69097511105E+02  0.10780013406E+03  0.41800000000E+01 0.  1.
        -11    1    1    2    0    0 -0.35098002311E+02 -0.10192773276E+02 -0.23469169609E+02  0.43434598137E+02  0.00000000000E+00 0. -1.
         11    1    1    2    0    0  0.50659433835E+02  0.15306491709E+02  0.27391604850E+00  0.52922036571E+02  0.00000000000E+00 0.  1.
</event>
<event>
 7    1  0.1068210E-005  0.1521816E+03  0.7561462E-02  0.1197818E+00
         -1   -1    0    0    0  501 -0.00000000000E+00  0.00000000000E+00  0.56147817574E+02  0.56147817574E+02  0.00000000000E+00 0.  1.
          1   -1    0    0  501    0  0.00000000000E+00 -0.00000000000E+00 -0.74323125825E+03  0.74323125825E+03  0.00000000000E+00 0. -1.
         23    2    1    2    0    0 -0.24564784058E+02  0.14704421270E+03 -0.18308680089E+03  0.26719733651E+03  0.12509280905E+03 0.  0.
          5    1    3    3  502    0 -0.30948479119E+02  0.66395986446E+02 -0.16997372193E+03  0.18513447524E+03  0.41800000000E+01 0.  1.
         -5    1    3    3    0  502  0.63836950612E+01  0.80648226257E+02 -0.13113078961E+02  0.82062861276E+02  0.41800000000E+01 0.  1.
        -11    1    1    2    0    0  0.18354672264E+02 -0.60712656351E+02 -0.34844340475E+03  0.35416906549E+03  0.00000000000E+00 0. -1.
         11    1    1    2    0    0  0.62101117940E+01 -0.86331556352E+02 -0.15555323504E+03  0.17801267383E+03  0.00000000000E+00 0.  1.
</event>
<event>
 7    1  0.1068210E-005  0.1019519E+03  0.7561462E-02  0.1276244E+00
         -1   -1    0    0    0  501 -0.00000000000E+00  0.00000000000E+00  0.68931558181E+02  0.68931558181E+02  0.00000000000E+00 0.  1.
          1   -1    0    0  501    0  0.00000000000E+00 -0.00000000000E+00 -0.21858184609E+03  0.21858184609E+03  0.00000000000E+00 0. -1.
         23    2    1    2    0    0  0.30671596307E+02 -0.75515162702E+01 -0.25430758579E+02  0.13149735746E+03  0.12508820616E+03 0.  0.
          5    1    3    3  502    0 -0.61514833718E+01 -0.52700860963E+02  0.20659186629E+02  0.57091994939E+02  0.41800000000E+01 0.  1.
         -5    1    3    3    0  502  0.36823079679E+02  0.45149344693E+02 -0.46089945208E+02  0.74405362526E+02  0.41800000000E+01 0.  1.
        -11    1    1    2    0    0 -0.59452479889E+02  0.17239917264E+02 -0.97908080333E+02  0.11583524639E+03  0.00000000000E+00 0.  1.
         11    1    1    2    0    0  0.28780883581E+02 -0.96884009934E+01 -0.26311448995E+02  0.40180800412E+02  0.00000000000E+00 0. -1.
</event>
<event>
 7    1  0.1068210E-005  0.1962556E+03  0.7561462E-02  0.1152937E+00
         -2   -1    0    0    0  501 -0.00000000000E+00  0.00000000000E+00  0.43713713423E+03  0.43713713423E+03  0.00000000000E+00 0. -1.
          2   -1    0    0  501    0  0.00000000000E+00 -0.00000000000E+00 -0.98699478222E+02  0.98699478222E+02  0.00000000000E+00 0.  1.
         23    2    1    2    0    0 -0.17482189909E+03  0.18474849789E+02  0.20541416664E+03  0.29790247496E+03  0.12508752238E+03 0.  0.
          5    1    3    3  502    0 -0.74368893053E+02  0.67942013297E+02  0.12168825520E+03  0.15802643221E+03  0.41800000000E+01 0. -1.
         -5    1    3    3    0  502 -0.10045300604E+03 -0.49467163508E+02  0.83725911439E+02  0.13987604275E+03  0.41800000000E+01 0. -1.
        -11    1    1    2    0    0  0.13859653307E+03  0.82039606535E+00  0.53732565014E+02  0.14865012806E+03  0.00000000000E+00 0.  1.
         11    1    1    2    0    0  0.36225366024E+02 -0.19295245854E+02  0.79290924351E+02  0.89284009434E+02  0.00000000000E+00 0. -1.
</event>
<event>
 7    1  0.1068210E-005  0.1024114E+03  0.7561462E-02  0.1275305E+00
         -1   -1    0    0    0  501 -0.00000000000E+00  0.00000000000E+00  0.96279281910E+02  0.96279281910E+02  0.00000000000E+00 0.  1.
          1   -1    0    0  501    0  0.00000000000E+00 -0.00000000000E+00 -0.19820034310E+03  0.19820034310E+03  0.00000000000E+00 0. -1.
         23    2    1    2    0    0  0.39992945460E+02  0.81939744663E+02 -0.29678642250E+02  0.15761229252E+03  0.12508899035E+03 0.  0.
          5    1    3    3  502    0 -0.11348083425E+01  0.98946315935E+01  0.44778415291E+02  0.46062679040E+02  0.41800000000E+01 0.  1.
         -5    1    3    3    0  502  0.41127753803E+02  0.72045113069E+02 -0.74457057541E+02  0.11154961348E+03  0.41800000000E+01 0.  1.
        -11    1    1    2    0    0 -0.51432998904E+02 -0.33957917715E+02 -0.19476890832E+02  0.64636234639E+02  0.00000000000E+00 0.  1.
         11    1    1    2    0    0  0.11440053444E+02 -0.47981826948E+02 -0.52765528104E+02  0.72231097847E+02  0.00000000000E+00 0. -1.
</event>
<event>
 7    1  0.1068210E-005  0.2540018E+03  0.7561462E-02  0.1110802E+00
         -2   -1    0    0    0  501 -0.00000000000E+00  0.00000000000E+00  0.71240361656E+02  0.71240361656E+02  0.00000000000E+00 0.  1.
          2   -1    0    0  501    0  0.00000000000E+00 -0.00000000000E+00 -0.10798569237E+04  0.10798569237E+04  0.00000000000E+00 0. -1.
         23    2    1    2    0    0  0.15503801627E+03  0.20072935225E+03 -0.56928994927E+03  0.63566363456E+03  0.12509256823E+03 0.  0.
          5    1    3    3  502    0  0.83978643576E+02  0.96495918709E+02 -0.14698633620E+03  0.19490082179E+03  0.41800000000E+01 0.  1.
         -5    1    3    3    0  502  0.71059372694E+02  0.10423343354E+03 -0.42230361307E+03  0.44076281277E+03  0.41800000000E+01 0.  1.
        -11    1    1    2    0    0 -0.36329324964E+02 -0.40935028846E+02 -0.18228276225E+03  0.19032210028E+03  0.00000000000E+00 0. -1.
         11    1    1    2    0    0 -0.11870869131E+03 -0.15979432341E+03 -0.25704385051E+03  0.32511155050E+03  0.00000000000E+00 0.  1.
</event>
<event>
 7    1  0.1068210E-005  0.7295755E+02  0.7561462E-02  0.1350315E+00
         -3   -1    0    0    0  501 -0.00000000000E+00  0.00000000000E+00  0.45384235869E+03  0.45384235869E+03  0.00000000000E+00 0.  1.
          3   -1    0    0  501    0  0.00000000000E+00 -0.00000000000E+00 -0.58154295925E+02  0.58154295925E+02  0.00000000000E+00 0. -1.
         23    2    1    2    0    0  0.56743248448E+01  0.45094641396E+02  0.38959760099E+03  0.41170446919E+03  0.12509418296E+03 0.  0.
          5    1    3    3  502    0 -0.59023252455E+01 -0.94194313232E+01  0.32921265491E+03  0.32942678652E+03  0.41800000000E+01 0.  1.
         -5    1    3    3    0  502  0.11576650090E+02  0.54514072719E+02  0.60384946084E+02  0.82277682668E+02  0.41800000000E+01 0.  1.
        -11    1    1    2    0    0 -0.67220044676E+01  0.15841066351E+02 -0.26181424734E+02  0.31330364318E+02  0.00000000000E+00 0. -1.
         11    1    1    2    0    0  0.10476796227E+01 -0.60935707746E+02  0.32271886510E+02  0.68961821105E+02  0.00000000000E+00 0.  1.
</event>
<event>
 6    1  0.1068210E-005  0.2209022E+03  0.7561462E-02  0.1133212E+00
         -2   -1    0    0    0  501 -0.00000000000E+00  0.00000000000E+00  0.58944460988E+03  0.58944460988E+03  0.00000000000E+00 0.  1.
          2   -1    0    0  501    0  0.00000000000E+00 -0.00000000000E+00 -0.74793391612E+03  0.74793391612E+03  0.00000000000E+00 0. -1.
          5    1    1    2  502    0  0.52885868695E+02  0.46464411228E+02 -0.21340750450E+02  0.73680096690E+02  0.41800000000E+01 0. -1.
         -5    1    1    2    0  502  0.94988194423E+02 -0.15883901837E+03  0.53201093857E+03  0.56329894549E+03  0.41800000000E+01 0.  1.
        -11    1    1    2    0    0 -0.11584434161E+03  0.94370026876E+02 -0.62662202882E+03  0.64419001891E+03  0.00000000000E+00 0. -1.
         11    1    1    2    0    0 -0.32029721511E+02  0.18004580270E+02 -0.42537465540E+02  0.56209464909E+02  0.00000000000E+00 0.  1.
</event>
<event>
 7    1  0.1068210E-005  0.1097367E+03  0.7561462E-02  0.1261058E+00
          2   -1    0    0  501    0  0.00000000000E+00  0.00000000000E+00  0.18562652207E+03  0.18562652207E+03  0.00000000000E+00 0. -1.
         -2   -1    0    0    0  501 -0.00000000000E+00 -0.00000000000E+00 -0.10143650669E+03  0.10143650669E+03  0.00000000000E+00 0.  1.
         23    2    1    2    0    0 -0.74620576144E+02  0.29744383766E+02  0.37630485731E+02  0.15335110371E+03  0.12509016269E+03 0.  0.
          5    1    3    3  502    0  0.19708502348E+02 -0.82556320904E+00 -0.27898520702E+02  0.34422470521E+02  0.41800000000E+01 0. -1.
         -5    1    3    3    0  502 -0.94329078492E+02  0.30569946975E+02  0.65529006433E+02  0.11892863319E+03  0.41800000000E+01 0. -1.
        -11    1    1    2    0    0  0.52065286985E+01 -0.30201564087E+02  0.55821596309E+02  0.63681182690E+02  0.00000000000E+00 0. -1.
         11    1    1    2    0    0  0.69414047445E+02  0.45718032112E+00 -0.92620666633E+01  0.70030742360E+02  0.00000000000E+00 0.  1.
</event>
<event>
 6    1  0.1068210E-005  0.1695834E+03  0.7561462E-02  0.1178283E+00
          2   -1    0    0  501    0  0.00000000000E+00  0.00000000000E+00  0.10329355385E+04  0.10329355385E+04  0.00000000000E+00 0. -1.
         -2   -1    0    0    0  501 -0.00000000000E+00 -0.00000000000E+00 -0.10241362902E+03  0.10241362902E+03  0.00000000000E+00 0.  1.
          5    1    1    2  502    0 -0.71262237502E+02  0.15759926766E+02 -0.28032801968E+02  0.78294266531E+02  0.41800000000E+01 0. -1.
         -5    1    1    2    0  502 -0.22417433445E+02 -0.10552322592E+03  0.25913304899E+02  0.11102551194E+03  0.41800000000E+01 0.  1.
        -11    1    1    2    0    0 -0.11090235198E+02 -0.88774093188E+01  0.64798112210E+02  0.66336996156E+02  0.00000000000E+00 0.  1.
         11    1    1    2    0    0  0.10476990615E+03  0.98640708471E+02  0.86784329438E+03  0.87969239294E+03  0.00000000000E+00 0. -1.
</event>
<event>
 6    1  0.1068210E-005  0.6098215E+02  0.7561462E-02  0.1393756E+00
         -1   -1    0    0    0  501 -0.00000000000E+00  0.00000000000E+00  0.92311219688E+02  0.92311219688E+02  0.00000000000E+00 0.  1.
          1   -1    0    0  501    0  0.00000000000E+00 -0.00000000000E+00 -0.16579965474E+03  0.16579965474E+03  0.00000000000E+00 0. -1.
          5    1    1    2  502    0  0.20776398032E+01  0.20329489398E+02  0.50533289209E+02  0.54668916622E+02  0.41800000000E+01 0.  1.
         -5    1    1    2    0  502 -0.19893895573E+01  0.27956440809E+02 -0.82899966525E+02  0.87609343699E+02  0.41800000000E+01 0. -1.
        -11    1    1    2    0    0  0.46272220563E+01 -0.59980756318E+02  0.11906344363E+02  0.61325878294E+02  0.00000000000E+00 0.  1.
         11    1    1    2    0    0 -0.47154723022E+01  0.11694826111E+02 -0.53028102098E+02  0.54506735812E+02  0.00000000000E+00 0. -1.
</event>
<event>
 7    1  0.1068210E-005  0.1180879E+03  0.7561462E-02  0.1246285E+00
         -3   -1    0    0    0  501 -0.00000000000E+00  0.00000000000E+00  0.39935098045E+02  0.39935098045E+02  0.00000000000E+00 0.  1.
          3   -1    0    0  501    0  0.00000000000E+00 -0.00000000000E+00 -0.46036634261E+03  0.46036634261E+03  0.00000000000E+00 0. -1.
         23    2    1    2    0    0  0.72210076222E+02 -0.30514679492E+02 -0.24605707760E+03  0.28697864238E+03  0.12516874598E+03 0.  0.
          5    1    3    3  502    0  0.98737784577E+02 -0.21766102933E+02 -0.11620709243E+03  0.15409242055E+03  0.41800000000E+01 0. -1.
         -5    1    3    3    0  502 -0.26527708355E+02 -0.87485765592E+01 -0.12984998517E+03  0.13288622183E+03  0.41800000000E+01 0. -1.
        -11    1    1    2    0    0 -0.22152237376E+02  0.48681412142E+02 -0.14018124846E+03  0.15003794163E+03  0.00000000000E+00 0. -1.
         11    1    1    2    0    0 -0.50057838847E+02 -0.18166732650E+02 -0.34192918505E+02  0.63284856649E+02  0.00000000000E+00 0.  1.
</event>
<event>
 7    1  0.1068210E-005  0.1865866E+03  0.7561462E-02  0.1161576E+00
          1   -1    0    0  501    0  0.00000000000E+00  0.00000000000E+00  0.92798056056E+02  0.92798056056E+02  0.00000000000E+00 0. -1.
         -1   -1    0    0    0  501 -0.00000000000E+00 -0.00000000000E+00 -0.38913508000E+03  0.38913508000E+03  0.00000000000E+00 0.  1.
         23    2    1    2    0    0 -0.72079755684E+02  0.14377000176E+03 -0.17516779379E+03  0.26870054578E+03  0.12510364798E+03 0.  0.
          5    1    3    3  502    0  0.37308380071E+01  0.11715477655E+03 -0.71090228624E+02  0.13715120789E+03  0.41800000000E+01 0. -1.
         -5    1    3    3    0  502 -0.75810593691E+02  0.26615225207E+02 -0.10407756516E+03  0.13154933789E+03  0.41800000000E+01 0. -1.
        -11    1    1    2    0    0 -0.17442545904E+00 -0.77147579855E+02 -0.55270544089E+02  0.94903174581E+02  0.00000000000E+00 0.  1.
         11    1    1    2    0    0  0.72254181143E+02 -0.66622421902E+02 -0.65898686067E+02  0.11832941569E+03  0.00000000000E+00 0. -1.
</event>
<event>
 7    1  0.1068210E-005  0.1173113E+03  0.7561462E-02  0.1247600E+00
          2   -1    0    0  501    0  0.00000000000E+00  0.00000000000E+00  0.99817840858E+02  0.99817840858E+02  0.00000000000E+00 0. -1.
         -2   -1    0    0    0  501 -0.00000000000E+00 -0.00000000000E+00 -0.21170037200E+03  0.21170037200E+03  0.00000000000E+00 0.  1.
         23    2    1    2    0    0  0.84432255264E+02  0.31611716263E+02 -0.97973115348E+02  0.18267650043E+03  0.12507544182E+03 0.  0.
          5    1    3    3  502    0  0.96117318957E+02  0.35704650153E+01 -0.11306374004E+03  0.14849972705E+03  0.41800000000E+01 0. -1.
         -5    1    3    3    0  502 -0.11685063693E+02  0.28041251248E+02  0.15090624690E+02  0.34176773379E+02  0.41800000000E+01 0. -1.
        -11    1    1    2    0    0 -0.86420553969E+02 -0.11163160326E+02 -0.39793668369E+02  0.95794907689E+02  0.00000000000E+00 0.  1.
         11    1    1    2    0    0  0.19882987051E+01 -0.20448555938E+02  0.25884252576E+02  0.33046804734E+02  0.00000000000E+00 0. -1.
</event>
<event>
 7    1  0.1068210E-005  0.1514919E+03  0.7561462E-02  0.1198652E+00
          3   -1    0    0  501    0  0.00000000000E+00  0.00000000000E+00  0.33179509539E+03  0.33179509539E+03  0.00000000000E+00 0. -1.
         -3   -1    0    0    0  501 -0.00000000000E+00 -0.00000000000E+00 -0.78983630493E+02  0.78983630493E+02  0.00000000000E+00 0.  1.
         23    2    1    2    0    0 -0.23210654599E+02 -0.11429848803E+03  0.10440157034E+03  0.20037552585E+03  0.12509110527E+03 0.  0.
          5    1    3    3  502    0  0.25221348210E+02 -0.10759028559E+03  0.36212033041E+02  0.11636395360E+03  0.41800000000E+01 0. -1.
         -5    1    3    3    0  502 -0.48432002809E+02 -0.67082024355E+01  0.68189537296E+02  0.84011572254E+02  0.41800000000E+01 0. -1.
        -11    1    1    2    0    0  0.54542406853E+02  0.80505794275E+02  0.12599968502E+03  0.15916022645E+03  0.00000000000E+00 0. -1.
         11    1    1    2    0    0 -0.31331752253E+02  0.33792693754E+02  0.22410209541E+02  0.51242973587E+02  0.00000000000E+00 0.  1.
</event>
<event>
 7    1  0.1068210E-005  0.8494598E+02  0.7561462E-02  0.1315574E+00
          2   -1    0    0  501    0  0.00000000000E+00  0.00000000000E+00  0.32179597000E+03  0.32179597000E+03  0.00000000000E+00 0. -1.
         -2   -1    0    0    0  501 -0.00000000000E+00 -0.00000000000E+00 -0.64343360772E+02  0.64343360772E+02  0.00000000000E+00 0.  1.
         23    2    1    2    0    0 -0.41895186075E+02 -0.17556868820E+02  0.28603757651E+02  0.13611863491E+03  0.12508660024E+03 0.  0.
          5    1    3    3  502    0 -0.25198665524E+02 -0.51086758287E+02  0.63039622829E+02  0.85066421476E+02  0.41800000000E+01 0. -1.
         -5    1    3    3    0  502 -0.16696520551E+02  0.33529889467E+02 -0.34435865177E+02  0.51052213436E+02  0.41800000000E+01 0. -1.
        -11    1    1    2    0    0 -0.11046268339E+02  0.19164425953E+02  0.89987819931E+01  0.23880396640E+02  0.00000000000E+00 0.  1.
         11    1    1    2    0    0  0.52941454414E+02 -0.16075571334E+01  0.21985006959E+03  0.22614029922E+03  0.00000000000E+00 0. -1.
</event>
<event>
 7    1  0.1068210E-005  0.1072629E+03  0.7561462E-02  0.1265724E+00
         -2   -1    0    0    0  501 -0.00000000000E+00  0.00000000000E+00  0.75403833026E+02  0.75403833026E+02  0.00000000000E+00 0. -1.
          2   -1    0    0  501    0  0.00000000000E+00 -0.00000000000E+00 -0.30417179976E+03  0.30417179976E+03  0.00000000000E+00 0.  1.
         23    2    1    2    0    0  0.20595518887E+02 -0.93237346635E+02 -0.68332681340E+02  0.17408206074E+03  0.12852171150E+03 0.  0.
          5    1    3    3  502    0 -0.13311015689E+01 -0.24221231322E+02  0.38053387497E+02  0.45320774245E+02  0.41800000000E+01 0.  1.
         -5    1    3    3    0  502  0.21926620456E+02 -0.69016115313E+02 -0.10638606884E+03  0.12876128650E+03  0.41800000000E+01 0.  1.
        -11    1    1    2    0    0 -0.14462708971E+02 -0.76088043111E+01 -0.63173546684E+02  0.65253052453E+02  0.00000000000E+00 0.  1.
         11    1    1    2    0    0 -0.61328099168E+01  0.10084615095E+03 -0.97261738706E+02  0.14024051959E+03  0.00000000000E+00 0. -1.
</event>
<event>
 7    1  0.1068210E-005  0.9781128E+02  0.7561462E-02  0.1284967E+00
          1   -1    0    0  501    0  0.00000000000E+00  0.00000000000E+00  0.66925540431E+02  0.66925540431E+02  0.00000000000E+00 0. -1.
         -1   -1    0    0    0  501 -0.00000000000E+00 -0.00000000000E+00 -0.19479671569E+03  0.19479671569E+03  0.00000000000E+00 0.  1.
         23    2    1    2    0    0 -0.41613155599E+01  0.30431526844E+02 -0.91503732793E+02  0.15799993388E+03  0.12509057366E+03 0.  0.
          5    1    3    3  502    0 -0.84879667262E+01  0.68946955272E+02 -0.96202307398E+02  0.11873535518E+03  0.41800000000E+01 0. -1.
         -5    1    3    3    0  502  0.43266511663E+01 -0.38515428428E+02  0.46985746050E+01  0.39264578702E+02  0.41800000000E+01 0. -1.
        -11    1    1    2    0    0 -0.38189108200E+02 -0.76133729420E+01 -0.39560063481E+02  0.55510089670E+02  0.00000000000E+00 0.  1.
         11    1    1    2    0    0  0.42350423759E+02 -0.22818153902E+02  0.31926210192E+01  0.48212232567E+02  0.00000000000E+00 0. -1.
</event>
<event>
 7    1  0.1068210E-005  0.2500337E+03  0.7561462E-02  0.1113284E+00
          2   -1    0    0  501    0  0.00000000000E+00  0.00000000000E+00  0.11823243076E+04  0.11823243076E+04  0.00000000000E+00 0. -1.
         -2   -1    0    0    0  501 -0.00000000000E+00 -0.00000000000E+00 -0.57705201379E+02  0.57705201379E+02  0.00000000000E+00 0.  1.
         23    2    1    2    0    0 -0.73601024184E+02  0.22517060938E+03  0.53863623149E+03  0.60158153425E+03  0.12510970542E+03 0.  0.
          5    1    3    3  502    0  0.29174293586E+02  0.36455429555E+02  0.15391351699E+03  0.16089431582E+03  0.41800000000E+01 0. -1.
         -5    1    3    3    0  502 -0.10277531777E+03  0.18871517982E+03  0.38472271451E+03  0.44068721844E+03  0.41800000000E+01 0. -1.
        -11    1    1    2    0    0  0.20497962444E+02 -0.10345534498E+03  0.37152490169E+03  0.38620451505E+03  0.00000000000E+00 0. -1.
         11    1    1    2    0    0  0.53103061740E+02 -0.12171526440E+03  0.21445797308E+03  0.25224345972E+03  0.00000000000E+00 0.  1.
</event>
<event>
 7    1  0.1068210E-005  0.1108851E+03  0.7561462E-02  0.1258940E+00
         -2   -1    0    0    0  501 -0.00000000000E+00  0.00000000000E+00  0.28563794356E+02  0.28563794356E+02  0.00000000000E+00 0.  1.
          2   -1    0    0  501    0  0.00000000000E+00 -0.00000000000E+00 -0.47772632961E+03  0.47772632961E+03  0.00000000000E+00 0. -1.
         23    2    1    2    0    0 -0.36292120095E+02 -0.30440029807E+02 -0.24817958987E+03  0.28192929216E+03  0.12508918240E+03 0.  0.
          5    1    3    3  502    0 -0.73729768332E+02  0.14333905404E+02 -0.13729642189E+03  0.15655452547E+03  0.41800000000E+01 0. -1.
         -5    1    3    3    0  502  0.37437648237E+02 -0.44773935212E+02 -0.11088316798E+03  0.12537476669E+03  0.41800000000E+01 0. -1.
        -11    1    1    2    0    0  0.40506591902E+02 -0.14402391746E+02 -0.45982922200E+02  0.62949519534E+02  0.00000000000E+00 0.  1.
         11    1    1    2    0    0 -0.42144718065E+01  0.44842421553E+02 -0.15500002318E+03  0.16141131227E+03  0.00000000000E+00 0. -1.
</event>
<event>
 7    1  0.1068210E-005  0.6664087E+02  0.7561462E-02  0.1371903E+00
          1   -1    0    0  501    0  0.00000000000E+00  0.00000000000E+00  0.37151358356E+03  0.37151358356E+03  0.00000000000E+00 0. -1.
         -1   -1    0    0    0  501 -0.00000000000E+00 -0.00000000000E+00 -0.34618561306E+02  0.34618561306E+02  0.00000000000E+00 0.  1.
         23    2    1    2    0    0 -0.82168339988E+01 -0.25878020807E+02  0.16733690798E+03  0.21062603102E+03  0.12499798338E+03 0.  0.
          5    1    3    3  502    0  0.14076002012E+02 -0.35122276291E+02  0.17935011932E+03  0.18334570031E+03  0.41800000000E+01 0. -1.
         -5    1    3    3    0  502 -0.22292836011E+02  0.92442554845E+01 -0.12013211335E+02  0.27280330706E+02  0.41800000000E+01 0. -1.
        -11    1    1    2    0    0  0.35856129252E+01  0.47992663842E+02  0.36131709468E+02  0.60180169755E+02  0.00000000000E+00 0.  1.
         11    1    1    2    0    0  0.46312210736E+01 -0.22114643035E+02  0.13342640480E+03  0.13532594409E+03  0.00000000000E+00 0. -1.
</event>
<event>
 7    1  0.1068210E-005  0.1314464E+03  0.7561462E-02  0.1225325E+00
         -4   -1    0    0    0  501 -0.00000000000E+00  0.00000000000E+00  0.11368209722E+03  0.11368209722E+03  0.00000000000E+00 0.  1.
          4   -1    0    0  501    0  0.00000000000E+00 -0.00000000000E+00 -0.33167486854E+03  0.33167486854E+03  0.00000000000E+00 0. -1.
         23    2    1    2    0    0  0.14460106778E+02 -0.92377943328E+02  0.34777459990E+02  0.15999937892E+03  0.12509016920E+03 0.  0.
          5    1    3    3  502    0 -0.24882232589E+02 -0.90512429850E+02 -0.16297725068E+02  0.95366208367E+02  0.41800000000E+01 0.  1.
         -5    1    3    3    0  502  0.39342339367E+02 -0.18655134778E+01  0.51075185058E+02  0.64633170556E+02  0.41800000000E+01 0.  1.
        -11    1    1    2    0    0  0.38019732651E+02  0.39164545057E+02 -0.13794575427E+03  0.14835225911E+03  0.00000000000E+00 0. -1.
         11    1    1    2    0    0 -0.52479839429E+02  0.53213398271E+02 -0.11482447703E+03  0.13700532774E+03  0.00000000000E+00 0.  1.
</event>
<event>
 7    1  0.1068210E-005  0.9033929E+02  0.7561462E-02  0.1302032E+00
         -3   -1    0    0    0  501 -0.00000000000E+00  0.00000000000E+00  0.55422429316E+03  0.55422429316E+03  0.00000000000E+00 0.  1.
          3   -1    0    0  501    0  0.00000000000E+00 -0.00000000000E+00 -0.40997398287E+02  0.40997398287E+02  0.00000000000E+00 0. -1.
         23    2    1    2    0    0 -0.38534728403E+02  0.30883247302E+02  0.45559225618E+03  0.47325785213E+03  0.11819471419E+03 0.  0.
          5    1    3    3  502    0  0.11893790238E+02 -0.43679023731E+01 -0.16898469066E+00  0.13343229489E+02  0.41800000000E+01 0. -1.
         -5    1    3    3    0  502 -0.50428518641E+02  0.35251149675E+02  0.45576124087E+03  0.45991462264E+03  0.41800000000E+01 0.  1.
        -11    1    1    2    0    0 -0.19633379878E+02 -0.42076277804E+02  0.36538135612E+02  0.59083992023E+02  0.00000000000E+00 0.  1.
         11    1    1    2    0    0  0.58168108281E+02  0.11193030502E+02  0.21096503083E+02  0.62879847290E+02  0.00000000000E+00 0. -1.
</event>
<event>
 7    1  0.1420046E-005  0.2778108E+03  0.7561462E-02  0.1096891E+00
         -1   -1    0    0    0  501 -0.00000000000E+00  0.00000000000E+00  0.10428867772E+03  0.10428867772E+03  0.00000000000E+00 0.  1.
          1   -1    0    0  501    0  0.00000000000E+00 -0.00000000000E+00 -0.81465408275E+03  0.81465408275E+03  0.00000000000E+00 0. -1.
         23    2    1    2    0    0  0.10924872270E+03  0.24362811395E+03 -0.29448792794E+03  0.41672559921E+03  0.12508854471E+03 0.  0.
          5    1    3    3  502    0  0.12713535739E+03  0.23621559862E+03 -0.24461676528E+03  0.36306479090E+03  0.41800000000E+01 0. -1.
         -5    1    3    3    0  502 -0.17886634697E+02  0.74125153310E+01 -0.49871162661E+02  0.53660808319E+02  0.41800000000E+01 0. -1.
        -11    1    1    2    0    0 -0.97101521115E+02 -0.20141810148E+03 -0.39428066313E+03  0.45327166063E+03  0.00000000000E+00 0. -1.
         11    1    1    2    0    0 -0.12147201582E+02 -0.42210012472E+02 -0.21596813955E+02  0.48945500633E+02  0.00000000000E+00 0.  1.
</event>
<event>
 7    1  0.1068210E-005  0.1851928E+03  0.7561462E-02  0.1162870E+00
          2   -1    0    0  501    0  0.00000000000E+00  0.00000000000E+00  0.63124495157E+03  0.63124495157E+03  0.00000000000E+00 0. -1.
         -2   -1    0    0    0  501 -0.00000000000E+00 -0.00000000000E+00 -0.58658610100E+02  0.58658610100E+02  0.00000000000E+00 0.  1.
         23    2    1    2    0    0  0.14967170968E+03  0.27292026201E+02  0.22009236109E+03  0.29533984223E+03  0.12505398685E+03 0.  0.
          5    1    3    3  502    0  0.93716489483E+02  0.77177431969E+02  0.12698504208E+03  0.17573221024E+03  0.41800000000E+01 0. -1.
         -5    1    3    3    0  502  0.55955220201E+02 -0.49885405768E+02  0.93107319014E+02  0.11960763199E+03  0.41800000000E+01 0. -1.
        -11    1    1    2    0    0 -0.95325963137E+02  0.24852772181E+02  0.16044869699E+03  0.18827767764E+03  0.00000000000E+00 0. -1.
         11    1    1    2    0    0 -0.54345746547E+02 -0.52144798382E+02  0.19204528339E+03  0.20628604180E+03  0.00000000000E+00 0.  1.
</event>
<event>
 7    1  0.1068210E-005  0.1454490E+03  0.7561462E-02  0.1206179E+00
         -2   -1    0    0    0  501 -0.00000000000E+00  0.00000000000E+00  0.24311063938E+02  0.24311063938E+02  0.00000000000E+00 0.  1.
          2   -1    0    0  501    0  0.00000000000E+00 -0.00000000000E+00 -0.11037170428E+04  0.11037170428E+04  0.00000000000E+00 0. -1.
         23    2    1    2    0    0 -0.12111856698E+03 -0.22879962666E+02 -0.53611190032E+03  0.56414194013E+03  0.12508780512E+03 0.  0.
          5    1    3    3  502    0 -0.28141881020E+01  0.19728219383E+02 -0.25908893666E+03  0.25988780617E+03  0.41800000000E+01 0.  1.
         -5    1    3    3    0  502 -0.11830437888E+03 -0.42608182049E+02 -0.27702296366E+03  0.30425413396E+03  0.41800000000E+01 0.  1.
        -11    1    1    2    0    0  0.35348883204E+02 -0.27914348479E+02 -0.10247247474E+03  0.11193463483E+03  0.00000000000E+00 0.  1.
         11    1    1    2    0    0  0.85769683774E+02  0.50794311145E+02 -0.44082160381E+03  0.45195153179E+03  0.00000000000E+00 0. -1.
</event>
<event>
 7    1  0.1068210E-005  0.9303545E+02  0.7561462E-02  0.1295663E+00
          2   -1    0    0  501    0  0.00000000000E+00  0.00000000000E+00  0.39219637954E+03  0.39219637954E+03  0.00000000000E+00 0.  1.
         -2   -1    0    0    0  501 -0.00000000000E+00 -0.00000000000E+00 -0.43574982561E+02  0.43574982561E+02  0.00000000000E+00 0. -1.
         23    2    1    2    0    0 -0.17226121634E+02  0.27647594462E+02  0.83639029220E+02  0.15396038886E+03  0.12508871005E+03 0.  0.
          5    1    3    3  502    0  0.34394679219E+02  0.11742680376E+02  0.92124830659E+02  0.99122859750E+02  0.41800000000E+01 0. -1.
         -5    1    3    3    0  502 -0.51620800853E+02  0.15904914086E+02 -0.84858014396E+01  0.54837529110E+02  0.41800000000E+01 0. -1.
        -11    1    1    2    0    0  0.50188414680E+02 -0.35439426328E+02  0.15506058947E+03  0.16678913728E+03  0.00000000000E+00 0. -1.
         11    1    1    2    0    0 -0.32962293046E+02  0.77918318660E+01  0.10992177829E+03  0.11502183596E+03  0.00000000000E+00 0.  1.
</event>
<event>
 7    1  0.1068210E-005  0.8519111E+02  0.7561462E-02  0.1314934E+00
         -2   -1    0    0    0  501 -0.00000000000E+00  0.00000000000E+00  0.71986898768E+02  0.71986898768E+02  0.00000000000E+00 0.  1.
          2   -1    0    0  501    0  0.00000000000E+00 -0.00000000000E+00 -0.17450530545E+03  0.17450530545E+03  0.00000000000E+00 0. -1.
         23    2    1    2    0    0 -0.12500459063E+02  0.23426555729E+01 -0.31831054509E+02  0.12969957510E+03  0.12508802596E+03 0.  0.
          5    1    3    3  502    0  0.35324567343E+02 -0.39934237966E+02  0.83944404251E+01  0.54134161580E+02  0.41800000000E+01 0.  1.
         -5    1    3    3    0  502 -0.47825026407E+02  0.42276893539E+02 -0.40225494934E+02  0.75565413522E+02  0.41800000000E+01 0.  1.
        -11    1    1    2    0    0  0.17610401190E+02  0.21931979083E+02 -0.84039020851E+02  0.88621075158E+02  0.00000000000E+00 0. -1.
         11    1    1    2    0    0 -0.51099421269E+01 -0.24274634656E+02  0.13351668675E+02  0.28171553962E+02  0.00000000000E+00 0.  1.
</event>
<event>
 7    1  0.1068210E-005  0.6354363E+02  0.7561462E-02  0.1383535E+00
         -2   -1    0    0    0  501 -0.00000000000E+00  0.00000000000E+00  0.65144637356E+02  0.65144637356E+02  0.00000000000E+00 0.  1.
          2   -1    0    0  501    0  0.00000000000E+00 -0.00000000000E+00 -0.21534044467E+03  0.21534044467E+03  0.00000000000E+00 0. -1.
         23    2    1    2    0    0  0.28627147193E+02 -0.37780102376E+02 -0.85402716343E+02  0.15870420859E+03  0.12508617899E+03 0.  0.
          5    1    3    3  502    0 -0.10225851318E+02 -0.18283482684E+02  0.29132865659E+02  0.36125476270E+02  0.41800000000E+01 0.  1.
         -5    1    3    3    0  502  0.38852998512E+02 -0.19496619692E+02 -0.11453558200E+03  0.12257873232E+03  0.41800000000E+01 0.  1.
        -11    1    1    2    0    0 -0.32277874396E+02  0.96513385927E+01 -0.81968149191E+02  0.88621594400E+02  0.00000000000E+00 0. -1.
         11    1    1    2    0    0  0.36507272030E+01  0.28128763783E+02  0.17175058223E+02  0.33159279034E+02  0.00000000000E+00 0.  1.
</event>
<event>
 7    1  0.1068210E-005  0.1410860E+03  0.7561462E-02  0.1211875E+00
         -1   -1    0    0    0  501 -0.00000000000E+00  0.00000000000E+00  0.46614263496E+02  0.46614263496E+02  0.00000000000E+00 0.  1.
          1   -1    0    0  501    0  0.00000000000E+00 -0.00000000000E+00 -0.43581467798E+03  0.43581467798E+03  0.00000000000E+00 0. -1.
         23    2    1    2    0    0 -0.50187145999E+02  0.77519949827E+02 -0.19335287585E+03  0.24811620896E+03  0.12509287071E+03 0.  0.
          5    1    3    3  502    0 -0.63084385070E+02 -0.10950690820E+02 -0.62433809115E+02  0.89526589289E+02  0.41800000000E+01 0. -1.
         -5    1    3    3    0  502  0.12897239071E+02  0.88470640647E+02 -0.13091906674E+03  0.15858961967E+03  0.41800000000E+01 0. -1.
        -11    1    1    2    0    0 -0.24978114238E+02 -0.82969870553E+01 -0.36014162596E+02  0.44606794243E+02  0.00000000000E+00 0. -1.
         11    1    1    2    0    0  0.75165260237E+02 -0.69222962772E+02 -0.15983337604E+03  0.18970593828E+03  0.00000000000E+00 0.  1.
</event>
<event>
 7    1  0.1068210E-005  0.1911584E+03  0.7561462E-02  0.1157421E+00
         -3   -1    0    0    0  501 -0.00000000000E+00  0.00000000000E+00  0.11785706762E+04  0.11785706762E+04  0.00000000000E+00 0.  1.
          3   -1    0    0  501    0  0.00000000000E+00 -0.00000000000E+00 -0.49243155540E+02  0.49243155540E+02  0.00000000000E+00 0. -1.
         23    2    1    2    0    0 -0.40283086502E+02  0.15660785398E+03  0.93811844755E+03  0.96013684078E+03  0.12509110443E+03 0.  0.
          5    1    3    3  502    0  0.59790071227E+01  0.15763421464E+03  0.74105069164E+03  0.75766608353E+03  0.41800000000E+01 0. -1.
         -5    1    3    3    0  502 -0.46262093625E+02 -0.10263606635E+01  0.19706775591E+03  0.20247075725E+03  0.41800000000E+01 0. -1.
        -11    1    1    2    0    0  0.20082037934E+02  0.64912234072E-01  0.56861664264E+02  0.60303742206E+02  0.00000000000E+00 0.  1.
         11    1    1    2    0    0  0.20201048568E+02 -0.15667276622E+03  0.13434740886E+03  0.20737324877E+03  0.00000000000E+00 0. -1.
</event>
<event>
 7    1  0.1068210E-005  0.1390133E+03  0.7561462E-02  0.1214663E+00
         -1   -1    0    0    0  501 -0.00000000000E+00  0.00000000000E+00  0.26139828242E+02  0.26139828242E+02  0.00000000000E+00 0.  1.
          1   -1    0    0  501    0  0.00000000000E+00 -0.00000000000E+00 -0.83466737861E+03  0.83466737861E+03  0.00000000000E+00 0. -1.
         23    2    1    2    0    0 -0.37103115462E+01 -0.92964638908E+02 -0.33344976428E+03  0.36809646098E+03  0.12510023497E+03 0.  0.
          5    1    3    3  502    0  0.21728497717E+02 -0.11274831555E+03 -0.19912503693E+03  0.22989685296E+03  0.41800000000E+01 0.  1.
         -5    1    3    3    0  502 -0.25438809263E+02  0.19783676637E+02 -0.13432472735E+03  0.13819960802E+03  0.41800000000E+01 0.  1.
        -11    1    1    2    0    0  0.38007394806E+02  0.77715226063E+01 -0.14217288871E+03  0.14737058359E+03  0.00000000000E+00 0.  1.
         11    1    1    2    0    0 -0.34297083260E+02  0.85193116301E+02 -0.33290489738E+03  0.34534016228E+03  0.00000000000E+00 0. -1.
</event>
<event>
 7    1  0.1068210E-005  0.1003555E+03  0.7561462E-02  0.1279550E+00
         -3   -1    0    0    0  501 -0.00000000000E+00  0.00000000000E+00  0.35171892445E+03  0.35171892445E+03  0.00000000000E+00 0.  1.
          3   -1    0    0  501    0  0.00000000000E+00 -0.00000000000E+00 -0.41030939661E+02  0.41030939661E+02  0.00000000000E+00 0. -1.
         23    2    1    2    0    0 -0.19735000984E+02  0.91627966577E+01  0.25543454446E+03  0.28525067489E+03  0.12509082266E+03 0.  0.
          5    1    3    3  502    0 -0.82356869299E+00 -0.57327228768E+02  0.10735175670E+03  0.12177422342E+03  0.41800000000E+01 0.  1.
         -5    1    3    3    0  502 -0.18911432291E+02  0.66490025425E+02  0.14808278777E+03  0.16347645147E+03  0.41800000000E+01 0.  1.
        -11    1    1    2    0    0  0.15591897938E+02 -0.39961775067E+02  0.62294600800E+02  0.75635097915E+02  0.00000000000E+00 0.  1.
         11    1    1    2    0    0  0.41431030456E+01  0.30798978409E+02 -0.70411604764E+01  0.31864091306E+02  0.00000000000E+00 0. -1.
</event>
<event>
 7    1  0.1068210E-005  0.1145083E+03  0.7561462E-02  0.1252442E+00
         -1   -1    0    0    0  501 -0.00000000000E+00  0.00000000000E+00  0.33439901657E+02  0.33439901657E+02  0.00000000000E+00 0.  1.
          1   -1    0    0  501    0  0.00000000000E+00 -0.00000000000E+00 -0.61497255995E+03  0.61497255995E+03  0.00000000000E+00 0. -1.
         23    2    1    2    0    0  0.24510885745E+02 -0.84219800150E+02 -0.24316099740E+03  0.28717276715E+03  0.12508864569E+03 0.  0.
          5    1    3    3  502    0 -0.32725843563E+02 -0.22572574121E+02 -0.12921241349E+02  0.42011103501E+02  0.41800000000E+01 0.  1.
         -5    1    3    3    0  502  0.57236729308E+02 -0.61647226029E+02 -0.23023975605E+03  0.24516166365E+03  0.41800000000E+01 0.  1.
        -11    1    1    2    0    0  0.89420754742E+01 -0.44920468042E+01 -0.17878501316E+00  0.10008554459E+02  0.00000000000E+00 0.  1.
         11    1    1    2    0    0 -0.33452961219E+02  0.88711846954E+02 -0.33819287588E+03  0.35123113999E+03  0.00000000000E+00 0. -1.
</event>
<event>
 7    1  0.1068210E-005  0.1234903E+03  0.7561462E-02  0.1237448E+00
         -4   -1    0    0    0  501 -0.00000000000E+00  0.00000000000E+00  0.49844357417E+03  0.49844357417E+03  0.00000000000E+00 0. -1.
          4   -1    0    0  501    0  0.00000000000E+00 -0.00000000000E+00 -0.35452155788E+02  0.35452155788E+02  0.00000000000E+00 0.  1.
         23    2    1    2    0    0  0.62157069947E+01  0.66075665490E+02  0.30177460672E+03  0.33336056108E+03  0.12512682302E+03 0.  0.
          5    1    3    3  502    0  0.34925878197E+02  0.87432630317E+02  0.26757557929E+03  0.28368723066E+03  0.41800000000E+01 0.  1.
         -5    1    3    3    0  502 -0.28710171202E+02 -0.21356964827E+02  0.34199027431E+02  0.49673330413E+02  0.41800000000E+01 0.  1.
        -11    1    1    2    0    0  0.35361352656E+02  0.36308739322E+01  0.69493170561E+02  0.78057089760E+02  0.00000000000E+00 0.  1.
         11    1    1    2    0    0 -0.41577059651E+02 -0.69706539422E+02  0.91723641103E+02  0.12247807912E+03  0.00000000000E+00 0. -1.
</event>
<event>
 7    1  0.2242043E-005  0.2198435E+03  0.7561462E-02  0.1134000E+00
         -1   -1    0    0    0  501 -0.00000000000E+00  0.00000000000E+00  0.78277657757E+02  0.78277657757E+02  0.00000000000E+00 0.  1.
          1   -1    0    0  501    0  0.00000000000E+00 -0.00000000000E+00 -0.67419884485E+03  0.67419884485E+03  0.00000000000E+00 0. -1.
         23    2    1    2    0    0  0.81726560576E+02 -0.18461548331E+03 -0.29617097382E+03  0.37964095759E+03  0.12509158074E+03 0.  0.
          5    1    3    3  502    0  0.22401062333E+02  0.15513426224E+02 -0.47776671502E+02  0.55159375692E+02  0.41800000000E+01 0.  1.
         -5    1    3    3    0  502  0.59325498243E+02 -0.20012890953E+03 -0.24839430232E+03  0.32448158190E+03  0.41800000000E+01 0.  1.
        -11    1    1    2    0    0 -0.28250008977E+02  0.93681595815E+02 -0.70880833544E+02  0.12082382615E+03  0.00000000000E+00 0.  1.
         11    1    1    2    0    0 -0.53476551599E+02  0.90933887491E+02 -0.22886937973E+03  0.25201171886E+03  0.00000000000E+00 0. -1.
</event>
<event>
 7    1  0.1068210E-005  0.9189901E+02  0.7561462E-02  0.1298317E+00
          2   -1    0    0  501    0  0.00000000000E+00  0.00000000000E+00  0.25452585795E+03  0.25452585795E+03  0.00000000000E+00 0.  1.
         -2   -1    0    0    0  501 -0.00000000000E+00 -0.00000000000E+00 -0.51337614627E+02  0.51337614627E+02  0.00000000000E+00 0. -1.
         23    2    1    2    0    0  0.24514717947E+02  0.22265689748E+02  0.92095389527E+02  0.15882204076E+03  0.12508456149E+03 0.  0.
          5    1    3    3  502    0  0.58248063287E+02 -0.91961770802E+01  0.39508725510E+01  0.59249374203E+02  0.41800000000E+01 0.  1.
         -5    1    3    3    0  502 -0.33733345340E+02  0.31461866828E+02  0.88144516976E+02  0.99572666556E+02  0.41800000000E+01 0.  1.
        -11    1    1    2    0    0 -0.45589720282E+02 -0.31438655402E+02  0.30473413139E+02  0.63209497366E+02  0.00000000000E+00 0. -1.
         11    1    1    2    0    0  0.21075002334E+02  0.91729656546E+01  0.80619440658E+02  0.83831934454E+02  0.00000000000E+00 0.  1.
</event>
<event>
 7    1  0.1068210E-005  0.1046152E+03  0.7561462E-02  0.1270880E+00
         -1   -1    0    0    0  501 -0.00000000000E+00  0.00000000000E+00  0.29967493586E+02  0.29967493586E+02  0.00000000000E+00 0.  1.
          1   -1    0    0  501    0  0.00000000000E+00 -0.00000000000E+00 -0.51496620600E+03  0.51496620600E+03  0.00000000000E+00 0. -1.
         23    2    1    2    0    0  0.29810005671E+02  0.21053962395E+02 -0.16095635851E+03  0.20709197017E+03  0.12509288147E+03 0.  0.
          5    1    3    3  502    0 -0.44305695101E+02  0.15299442039E+02 -0.10125505963E+03  0.11165628977E+03  0.41800000000E+01 0.  1.
         -5    1    3    3    0  502  0.74115700771E+02  0.57545203557E+01 -0.59701298874E+02  0.95435680396E+02  0.41800000000E+01 0.  1.
        -11    1    1    2    0    0  0.58255644977E+01 -0.44615845674E+02 -0.98514668990E+02  0.10830351284E+03  0.00000000000E+00 0.  1.
         11    1    1    2    0    0 -0.35635570168E+02  0.23561883279E+02 -0.22552768492E+03  0.22953821658E+03  0.00000000000E+00 0. -1.
</event>
<event>
 7    1  0.1068210E-005  0.9271610E+02  0.7561462E-02  0.1296404E+00
          1   -1    0    0  501    0  0.00000000000E+00  0.00000000000E+00  0.40273273659E+03  0.40273273659E+03  0.00000000000E+00 0. -1.
         -1   -1    0    0    0  501 -0.00000000000E+00 -0.00000000000E+00 -0.53780132662E+02  0.53780132662E+02  0.00000000000E+00 0.  1.
         23    2    1    2    0    0  0.10925166689E+02 -0.20797632732E+02  0.39971294247E+02  0.13340902524E+03  0.12509341652E+03 0.  0.
          5    1    3    3  502    0  0.47511960301E+02 -0.25304956797E+02  0.68060046532E+02  0.86875598093E+02  0.41800000000E+01 0.  1.
         -5    1    3    3    0  502 -0.36586793611E+02  0.45073240646E+01 -0.28088752285E+02  0.46533427146E+02  0.41800000000E+01 0.  1.
        -11    1    1    2    0    0  0.25123548131E+02 -0.25410578892E+02  0.12570419072E+03  0.13068448169E+03  0.00000000000E+00 0.  1.
         11    1    1    2    0    0 -0.36048714820E+02  0.46208211624E+02  0.18327711897E+03  0.19241936233E+03  0.00000000000E+00 0. -1.
</event>
<event>
 7    1  0.1068210E-005  0.2176886E+03  0.7561462E-02  0.1135618E+00
          1   -1    0    0  501    0  0.00000000000E+00  0.00000000000E+00  0.20041168094E+04  0.20041168094E+04  0.00000000000E+00 0. -1.
         -1   -1    0    0    0  501 -0.00000000000E+00 -0.00000000000E+00 -0.28500695570E+02  0.28500695570E+02  0.00000000000E+00 0.  1.
         23    2    1    2    0    0 -0.14558977965E+03 -0.15415805563E+03  0.99513343257E+03  0.10251345682E+04  0.12509693961E+03 0.  0.
          5    1    3    3  502    0 -0.45466047348E+02 -0.83024578876E+02  0.20927394117E+03  0.22972439359E+03  0.41800000000E+01 0. -1.
         -5    1    3    3    0  502 -0.10012373230E+03 -0.71133476751E+02  0.78585949140E+03  0.79541017463E+03  0.41800000000E+01 0. -1.
        -11    1    1    2    0    0  0.96737606743E+02  0.66520939306E+02  0.69584289961E+03  0.70567736315E+03  0.00000000000E+00 0. -1.
         11    1    1    2    0    0  0.48852172906E+02  0.87637116321E+02  0.28463978165E+03  0.30180557360E+03  0.00000000000E+00 0.  1.
</event>
<event>
 7    1  0.1068210E-005  0.1300349E+03  0.7561462E-02  0.1227404E+00
         -1   -1    0    0    0  501 -0.00000000000E+00  0.00000000000E+00  0.13515842678E+03  0.13515842678E+03  0.00000000000E+00 0.  1.
          1   -1    0    0  501    0  0.00000000000E+00 -0.00000000000E+00 -0.14377334571E+03  0.14377334571E+03  0.00000000000E+00 0. -1.
         23    2    1    2    0    0 -0.49010649553E+02  0.70062500501E+02  0.14471124867E+02  0.15220956115E+03  0.12509012473E+03 0.  0.
          5    1    3    3  502    0  0.33495455039E+02  0.57066324338E+02  0.17340922895E+02  0.68532407579E+02  0.41800000000E+01 0.  1.
         -5    1    3    3    0  502 -0.82506104592E+02  0.12996176164E+02 -0.28697980281E+01  0.83677153576E+02  0.41800000000E+01 0.  1.
        -11    1    1    2    0    0  0.20449565610E+02 -0.77886516470E+02  0.11329880559E+02  0.81319495663E+02  0.00000000000E+00 0.  1.
         11    1    1    2    0    0  0.28561083943E+02  0.78240159682E+01 -0.34415924349E+02  0.45402715675E+02  0.00000000000E+00 0. -1.
</event>
<event>
 7    1  0.1068210E-005  0.1682405E+03  0.7561462E-02  0.1179695E+00
         -2   -1    0    0    0  501 -0.00000000000E+00  0.00000000000E+00  0.40779921534E+02  0.40779921534E+02  0.00000000000E+00 0.  1.
          2   -1    0    0  501    0  0.00000000000E+00 -0.00000000000E+00 -0.10556719733E+04  0.10556719733E+04  0.00000000000E+00 0. -1.
         23    2    1    2    0    0  0.15727749372E+03 -0.22461351627E+01 -0.32020940020E+03  0.37805014832E+03  0.12508636821E+03 0.  0.
          5    1    3    3  502    0  0.27100411384E+02 -0.28297687505E+00  0.48636997253E+01  0.27850320431E+02  0.41800000000E+01 0. -1.
         -5    1    3    3    0  502  0.13017708233E+03 -0.19631582876E+01 -0.32507309993E+03  0.35019982789E+03  0.41800000000E+01 0. -1.
        -11    1    1    2    0    0 -0.12139579333E+03  0.38929783892E+02 -0.55866986767E+03  0.57303096579E+03  0.00000000000E+00 0.  1.
         11    1    1    2    0    0 -0.35881700383E+02 -0.36683648729E+02 -0.13601278389E+03  0.14537078073E+03  0.00000000000E+00 0. -1.
</event>
<event>
 7    1  0.1068210E-005  0.7669135E+02  0.7561462E-02  0.1338712E+00
         -4   -1    0    0    0  501 -0.00000000000E+00  0.00000000000E+00  0.94417003544E+02  0.94417003544E+02  0.00000000000E+00 0. -1.
          4   -1    0    0  501    0  0.00000000000E+00 -0.00000000000E+00 -0.13908591897E+03  0.13908591897E+03  0.00000000000E+00 0.  1.
         23    2    1    2    0    0 -0.32479348208E+02  0.16599891104E+02 -0.94047809380E+01  0.13063793122E+03  0.12508938694E+03 0.  0.
          5    1    3    3  502    0  0.37804246828E+02  0.24966772456E+02 -0.32674149721E+02  0.56014045249E+02  0.41800000000E+01 0. -1.
         -5    1    3    3    0  502 -0.70283595035E+02 -0.83668813526E+01  0.23269368783E+02  0.74623885976E+02  0.41800000000E+01 0. -1.
        -11    1    1    2    0    0  0.15093660776E+02 -0.43276319398E+01 -0.64679916949E+02  0.66558535518E+02  0.00000000000E+00 0.  1.
         11    1    1    2    0    0  0.17385687431E+02 -0.12272259164E+02  0.29415782463E+02  0.36306455767E+02  0.00000000000E+00 0. -1.
</event>
<event>
 7    1  0.1068210E-005  0.1230529E+03  0.7561462E-02  0.1238144E+00
          2   -1    0    0  501    0  0.00000000000E+00  0.00000000000E+00  0.32248689040E+03  0.32248689040E+03  0.00000000000E+00 0. -1.
         -2   -1    0    0    0  501 -0.00000000000E+00 -0.00000000000E+00 -0.47199004603E+02  0.47199004603E+02  0.00000000000E+00 0.  1.
         23    2    1    2    0    0 -0.44805108374E+02  0.38136030518E+02  0.15085032450E+03  0.20461161978E+03  0.12509292541E+03 0.  0.
          5    1    3    3  502    0  0.39660564929E+02 -0.91663850871E+01  0.37688606209E+02  0.55631703767E+02  0.41800000000E+01 0.  1.
         -5    1    3    3    0  502 -0.84465673303E+02  0.47302415605E+02  0.11316171829E+03  0.14897991601E+03  0.41800000000E+01 0.  1.
        -11    1    1    2    0    0  0.62417009769E+02  0.40738218329E+01  0.67162869176E+02  0.91778701934E+02  0.00000000000E+00 0.  1.
         11    1    1    2    0    0 -0.17611901395E+02 -0.42209852351E+02  0.57274692117E+02  0.73295573286E+02  0.00000000000E+00 0. -1.
</event>
<event>
 7    1  0.1068210E-005  0.1765600E+03  0.7561462E-02  0.1171174E+00
          2   -1    0    0  501    0  0.00000000000E+00  0.00000000000E+00  0.70458102842E+03  0.70458102842E+03  0.00000000000E+00 0. -1.
         -2   -1    0    0    0  501 -0.00000000000E+00 -0.00000000000E+00 -0.55011512058E+02  0.55011512058E+02  0.00000000000E+00 0.  1.
         23    2    1    2    0    0 -0.15272455490E+02 -0.14311537692E+03  0.18917124849E+03  0.26860534474E+03  0.12509121057E+03 0.  0.
          5    1    3    3  502    0  0.39683751509E+02 -0.11861368380E+03  0.15523649324E+03  0.19939871452E+03  0.41800000000E+01 0.  1.
         -5    1    3    3    0  502 -0.54956206999E+02 -0.24501693118E+02  0.33934755251E+02  0.69206630227E+02  0.41800000000E+01 0.  1.
        -11    1    1    2    0    0 -0.22653290607E+02  0.12233123070E+03  0.37771424876E+03  0.39767594256E+03  0.00000000000E+00 0.  1.
         11    1    1    2    0    0  0.37925746097E+02  0.20784146215E+02  0.82684019120E+02  0.93311253173E+02  0.00000000000E+00 0. -1.
</event>
<event>
 7    1  0.1068210E-005  0.1302226E+03  0.7561462E-02  0.1227126E+00
          2   -1    0    0  501    0  0.00000000000E+00  0.00000000000E+00  0.74901922368E+03  0.74901922368E+03  0.00000000000E+00 0.  1.
         -2   -1    0    0    0  501 -0.00000000000E+00 -0.00000000000E+00 -0.32676584883E+02  0.32676584883E+02  0.00000000000E+00 0. -1.
         23    2    1    2    0    0 -0.83679339693E+02  0.55508786815E+02  0.25316483794E+03  0.29970440963E+03  0.12508733219E+03 0.  0.
          5    1    3    3  502    0 -0.15736635535E+02  0.58858887205E+02  0.33383404048E+02  0.69598379053E+02  0.41800000000E+01 0. -1.
         -5    1    3    3    0  502 -0.67942704157E+02 -0.33501003898E+01  0.21978143390E+03  0.23010603057E+03  0.41800000000E+01 0. -1.
        -11    1    1    2    0    0  0.48733824881E+02  0.16278728390E+02  0.22483591008E+03  0.23063210780E+03  0.00000000000E+00 0. -1.
         11    1    1    2    0    0  0.34945514811E+02 -0.71787515205E+02  0.23834189076E+03  0.25135929113E+03  0.00000000000E+00 0.  1.
</event>
<event>
 7    1  0.1068210E-005  0.1105708E+03  0.7561462E-02  0.1259516E+00
         -1   -1    0    0    0  501 -0.00000000000E+00  0.00000000000E+00  0.34280576409E+03  0.34280576409E+03  0.00000000000E+00 0.  1.
          1   -1    0    0  501    0  0.00000000000E+00 -0.00000000000E+00 -0.13309914984E+03  0.13309914984E+03  0.00000000000E+00 0. -1.
         23    2    1    2    0    0  0.34931958908E+02 -0.88487865640E+02  0.28369727231E+03  0.32431770017E+03  0.12508990449E+03 0.  0.
          5    1    3    3  502    0  0.31042155163E+02 -0.89171539776E+02  0.29600780338E+03  0.31073022216E+03  0.41800000000E+01 0.  1.
         -5    1    3    3    0  502  0.38898037450E+01  0.68367413661E+00 -0.12310531064E+02  0.13587478006E+02  0.41800000000E+01 0.  1.
        -11    1    1    2    0    0 -0.58625597358E+02  0.61519918652E+02 -0.78146857876E+02  0.11544952340E+03  0.00000000000E+00 0.  1.
         11    1    1    2    0    0  0.23693638450E+02  0.26967946987E+02  0.41561998101E+01  0.36137690360E+02  0.00000000000E+00 0. -1.
</event>
<event>
 7    1  0.1068210E-005  0.2040878E+03  0.7561462E-02  0.1146335E+00
          1   -1    0    0  501    0  0.00000000000E+00  0.00000000000E+00  0.42103578541E+03  0.42103578541E+03  0.00000000000E+00 0. -1.
         -1   -1    0    0    0  501 -0.00000000000E+00 -0.00000000000E+00 -0.12730163864E+03  0.12730163864E+03  0.00000000000E+00 0.  1.
         23    2    1    2    0    0  0.19230408901E+03  0.78224480718E+01  0.71531868724E+02  0.24043066472E+03  0.12509213785E+03 0.  0.
          5    1    3    3  502    0  0.14968698587E+03  0.18537742780E+02  0.10602166759E+03  0.18441233159E+03  0.41800000000E+01 0.  1.
         -5    1    3    3    0  502  0.42617103143E+02 -0.10715294708E+02 -0.34489798863E+02  0.56018333129E+02  0.41800000000E+01 0.  1.
        -11    1    1    2    0    0 -0.11056166724E+03 -0.49793793986E+02  0.12544350661E+03  0.17446884402E+03  0.00000000000E+00 0.  1.
         11    1    1    2    0    0 -0.81742421770E+02  0.41971345914E+02  0.96758771437E+02  0.13343791532E+03  0.00000000000E+00 0. -1.
</event>
<event>
 7    1  0.1068210E-005  0.1000706E+03  0.7561462E-02  0.1280147E+00
          2   -1    0    0  501    0  0.00000000000E+00  0.00000000000E+00  0.21690325159E+02  0.21690325159E+02  0.00000000000E+00 0. -1.
         -2   -1    0    0    0  501 -0.00000000000E+00 -0.00000000000E+00 -0.10058787290E+04  0.10058787290E+04  0.00000000000E+00 0.  1.
         23    2    1    2    0    0  0.54719214212E+02  0.66448780053E+02 -0.72185170529E+03  0.73764959453E+03  0.12508959634E+03 0.  0.
          5    1    3    3  502    0 -0.55101251736E+00 -0.52549840006E+01 -0.46896574200E+03  0.46901413416E+03  0.41800000000E+01 0. -1.
         -5    1    3    3    0  502  0.55270226729E+02  0.71703764054E+02 -0.25288596329E+03  0.26863546038E+03  0.41800000000E+01 0. -1.
        -11    1    1    2    0    0  0.88396582571E+01 -0.25938515149E+02 -0.16267199099E+03  0.16496400450E+03  0.00000000000E+00 0.  1.
         11    1    1    2    0    0 -0.63558872469E+02 -0.40510264904E+02 -0.99664707535E+02  0.12495545510E+03  0.00000000000E+00 0. -1.
</event>
<event>
 7    1  0.1068210E-005  0.8830430E+02  0.7561462E-02  0.1307011E+00
         -1   -1    0    0    0  501 -0.00000000000E+00  0.00000000000E+00  0.31650562696E+03  0.31650562696E+03  0.00000000000E+00 0.  1.
          1   -1    0    0  501    0  0.00000000000E+00 -0.00000000000E+00 -0.40301312246E+02  0.40301312246E+02  0.00000000000E+00 0. -1.
         23    2    1    2    0    0 -0.31066666751E+02 -0.18808504336E+01  0.14367515369E+03  0.19302483869E+03  0.12508942075E+03 0.  0.
          5    1    3    3  502    0 -0.26243793932E+01 -0.54579767879E+02  0.11305279694E+03  0.12563536813E+03  0.41800000000E+01 0.  1.
         -5    1    3    3    0  502 -0.28442287358E+02  0.52698917445E+02  0.30622356753E+02  0.67389470566E+02  0.41800000000E+01 0.  1.
        -11    1    1    2    0    0  0.61393422794E+01  0.26224623191E+02  0.19127051410E+00  0.26934345537E+02  0.00000000000E+00 0. -1.
         11    1    1    2    0    0  0.24927324472E+02 -0.24343772757E+02  0.13233789050E+03  0.13684775497E+03  0.00000000000E+00 0.  1.
</event>
<event>
 7    1  0.1068210E-005  0.1465426E+03  0.7561462E-02  0.1204787E+00
         -1   -1    0    0    0  501 -0.00000000000E+00  0.00000000000E+00  0.45617943676E+03  0.45617943676E+03  0.00000000000E+00 0.  1.
          1   -1    0    0  501    0  0.00000000000E+00 -0.00000000000E+00 -0.52362750615E+02  0.52362750615E+02  0.00000000000E+00 0. -1.
         23    2    1    2    0    0 -0.88659421095E+02 -0.57210707052E+02  0.26147322430E+03  0.30847483608E+03  0.12511962083E+03 0.  0.
          5    1    3    3  502    0 -0.62456246934E+02 -0.92846409622E+02  0.22369074905E+03  0.25015247784E+03  0.41800000000E+01 0. -1.
         -5    1    3    3    0  502 -0.26203174161E+02  0.35635702570E+02  0.37782475252E+02  0.58322358234E+02  0.41800000000E+01 0. -1.
        -11    1    1    2    0    0  0.10840244339E+02 -0.22688874721E+02  0.47137665197E+02  0.53425231995E+02  0.00000000000E+00 0.  1.
         11    1    1    2    0    0  0.77819176756E+02  0.79899581773E+02  0.95205796645E+02  0.14664211930E+03  0.00000000000E+00 0. -1.
</event>
<event>
 7    1  0.1068210E-005  0.1500899E+03  0.7561462E-02  0.1200363E+00
         -1   -1    0    0    0  501 -0.00000000000E+00  0.00000000000E+00  0.85821752002E+03  0.85821752002E+03  0.00000000000E+00 0.  1.
          1   -1    0    0  501    0  0.00000000000E+00 -0.00000000000E+00 -0.35009370452E+02  0.35009370452E+02  0.00000000000E+00 0. -1.
         23    2    1    2    0    0  0.77310948253E+02  0.84738112328E+02  0.61536942188E+03  0.63834574589E+03  0.12509290751E+03 0.  0.
          5    1    3    3  502    0  0.29856912434E+02 -0.26070055782E+02  0.26068127833E+03  0.26371060711E+03  0.41800000000E+01 0.  1.
         -5    1    3    3    0  502  0.47454035819E+02  0.11080816811E+03  0.35468814355E+03  0.37463513878E+03  0.41800000000E+01 0.  1.
        -11    1    1    2    0    0 -0.92307978897E+02 -0.57898043434E+02  0.12135612599E+03  0.16309584825E+03  0.00000000000E+00 0. -1.
         11    1    1    2    0    0  0.14997030644E+02 -0.26840068893E+02  0.86482601710E+02  0.91785296343E+02  0.00000000000E+00 0.  1.
</event>
<event>
 7    1  0.1068210E-005  0.1894862E+03  0.7561462E-02  0.1158926E+00
         -2   -1    0    0    0  501 -0.00000000000E+00  0.00000000000E+00  0.33559692411E+02  0.33559692411E+02  0.00000000000E+00 0.  1.
          2   -1    0    0  501    0  0.00000000000E+00 -0.00000000000E+00 -0.12603471317E+04  0.12603471317E+04  0.00000000000E+00 0. -1.
         23    2    1    2    0    0  0.16853495609E+03 -0.65907974819E+01 -0.77453130519E+03  0.80249201029E+03  0.12508882374E+03 0.  0.
          5    1    3    3  502    0  0.18211340426E+03 -0.27908144211E+02 -0.68714620407E+03  0.71142921973E+03  0.41800000000E+01 0.  1.
         -5    1    3    3    0  502 -0.13578448166E+02  0.21317346729E+02 -0.87385101120E+02  0.91062790557E+02  0.41800000000E+01 0.  1.
        -11    1    1    2    0    0 -0.27804532271E+02 -0.32492650168E+01 -0.14576965639E+02  0.31561648645E+02  0.00000000000E+00 0.  1.
         11    1    1    2    0    0 -0.14073042382E+03  0.98400624987E+01 -0.43767916846E+03  0.45985316518E+03  0.00000000000E+00 0. -1.
</event>
<event>
 7    1  0.1068210E-005  0.1101242E+03  0.7561462E-02  0.1260340E+00
         -1   -1    0    0    0  501 -0.00000000000E+00  0.00000000000E+00  0.76039323450E+02  0.76039323450E+02  0.00000000000E+00 0.  1.
          1   -1    0    0  501    0  0.00000000000E+00 -0.00000000000E+00 -0.27716271001E+03  0.27716271001E+03  0.00000000000E+00 0. -1.
         23    2    1    2    0    0  0.14159510216E+01 -0.10694702330E+03 -0.86291718497E+02  0.18583288329E+03  0.12509168285E+03 0.  0.
          5    1    3    3  502    0  0.15382292077E+01 -0.45704063933E+02 -0.11064286962E+03  0.11979375863E+03  0.41800000000E+01 0.  1.
         -5    1    3    3    0  502 -0.12227818617E+00 -0.61242959370E+02  0.24351151124E+02  0.66039124656E+02  0.41800000000E+01 0.  1.
        -11    1    1    2    0    0 -0.16886920140E+02  0.29735223596E+02 -0.67032306976E+02  0.75250792505E+02  0.00000000000E+00 0. -1.
         11    1    1    2    0    0  0.15470969118E+02  0.77211799706E+02 -0.47799361090E+02  0.92118357671E+02  0.00000000000E+00 0.  1.
</event>
<event>
 7    1  0.1068210E-005  0.1215795E+03  0.7561462E-02  0.1240514E+00
         -1   -1    0    0    0  501 -0.00000000000E+00  0.00000000000E+00  0.45280414348E+02  0.45280414348E+02  0.00000000000E+00 0.  1.
          1   -1    0    0  501    0  0.00000000000E+00 -0.00000000000E+00 -0.39663705381E+03  0.39663705381E+03  0.00000000000E+00 0. -1.
         23    2    1    2    0    0 -0.28158573401E+02  0.77569154544E+02 -0.19927017436E+03  0.24933062629E+03  0.12508908756E+03 0.  0.
          5    1    3    3  502    0 -0.27393446107E+02 -0.24018725236E+02 -0.10290376757E+03  0.10924265573E+03  0.41800000000E+01 0.  1.
         -5    1    3    3    0  502 -0.76512729418E+00  0.10158787978E+03 -0.96366406787E+02  0.14008797056E+03  0.41800000000E+01 0.  1.
        -11    1    1    2    0    0  0.46589089925E+02 -0.71628133996E+02 -0.15061743063E+03  0.17316680770E+03  0.00000000000E+00 0. -1.
         11    1    1    2    0    0 -0.18430516524E+02 -0.59410205486E+01 -0.14690344690E+01  0.19420034160E+02  0.00000000000E+00 0.  1.
</event>
<event>
 7    1  0.1068210E-005  0.1062761E+03  0.7561462E-02  0.1267626E+00
         -2   -1    0    0    0  501 -0.00000000000E+00  0.00000000000E+00  0.35080613237E+02  0.35080613237E+02  0.00000000000E+00 0.  1.
          2   -1    0    0  501    0  0.00000000000E+00 -0.00000000000E+00 -0.53790696896E+03  0.53790696896E+03  0.00000000000E+00 0. -1.
         23    2    1    2    0    0 -0.68937534456E+01  0.59388583067E+02 -0.15382737523E+03  0.20731501608E+03  0.12546763282E+03 0.  0.
          5    1    3    3  502    0  0.17475650312E+02  0.74629332683E+02 -0.16014408780E+03  0.17759092574E+03  0.41800000000E+01 0. -1.
         -5    1    3    3    0  502 -0.24369403757E+02 -0.15240749616E+02  0.63167125712E+01  0.29724090332E+02  0.41800000000E+01 0. -1.
        -11    1    1    2    0    0  0.38074611718E+02  0.17494096388E+01 -0.90069126266E+02  0.97801758665E+02  0.00000000000E+00 0.  1.
         11    1    1    2    0    0 -0.31180858273E+02 -0.61137992706E+02 -0.25892985423E+03  0.26787080746E+03  0.00000000000E+00 0. -1.
</event>
<event>
 7    1  0.1068210E-005  0.1620581E+03  0.7561462E-02  0.1186393E+00
          1   -1    0    0  501    0  0.00000000000E+00  0.00000000000E+00  0.18746683394E+03  0.18746683394E+03  0.00000000000E+00 0. -1.
         -1   -1    0    0    0  501 -0.00000000000E+00 -0.00000000000E+00 -0.18048733216E+03  0.18048733216E+03  0.00000000000E+00 0.  1.
         23    2    1    2    0    0  0.73872455669E+02 -0.12258686069E+03 -0.32150752544E+02  0.19278584629E+03  0.12509210015E+03 0.  0.
          5    1    3    3  502    0 -0.21485177138E+02 -0.24158320965E+02 -0.44454630595E+02  0.55126435490E+02  0.41800000000E+01 0.  1.
         -5    1    3    3    0  502  0.95357632808E+02 -0.98428539726E+02  0.12303878051E+02  0.13765941080E+03  0.41800000000E+01 0.  1.
        -11    1    1    2    0    0 -0.51705432297E+02  0.31239266254E+02  0.52736086621E+02  0.80190013825E+02  0.00000000000E+00 0. -1.
         11    1    1    2    0    0 -0.22167023372E+02  0.91347594437E+02 -0.13605832305E+02  0.94978305982E+02  0.00000000000E+00 0.  1.
</event>
<event>
 7    1  0.1068210E-005  0.2058073E+03  0.7561462E-02  0.1144930E+00
          1   -1    0    0  501    0  0.00000000000E+00  0.00000000000E+00  0.78454569399E+02  0.78454569399E+02  0.00000000000E+00 0. -1.
         -1   -1    0    0    0  501 -0.00000000000E+00 -0.00000000000E+00 -0.66521451972E+03  0.66521451972E+03  0.00000000000E+00 0.  1.
         23    2    1    2    0    0  0.18969144229E+03 -0.24937782834E+02 -0.40038078453E+03  0.46104218300E+03  0.12510150115E+03 0.  0.
          5    1    3    3  502    0  0.24512143194E+02 -0.34998650296E+02 -0.18208956088E+03  0.18708241838E+03  0.41800000000E+01 0. -1.
         -5    1    3    3    0  502  0.16517929910E+03  0.10060867462E+02 -0.21829122366E+03  0.27395976462E+03  0.41800000000E+01 0. -1.
        -11    1    1    2    0    0 -0.48161659886E+02  0.37525928647E+02 -0.97472071986E+02  0.11501541471E+03  0.00000000000E+00 0. -1.
         11    1    1    2    0    0 -0.14152978241E+03 -0.12588145814E+02 -0.88907093796E+02  0.16761149140E+03  0.00000000000E+00 0.  1.
</event>
<event>
 7    1  0.1068210E-005  0.1030908E+03  0.7561462E-02  0.1273928E+00
         -1   -1    0    0    0  501 -0.00000000000E+00  0.00000000000E+00  0.55046453594E+02  0.55046453594E+02  0.00000000000E+00 0.  1.
          1   -1    0    0  501    0  0.00000000000E+00 -0.00000000000E+00 -0.27920275527E+03  0.27920275527E+03  0.00000000000E+00 0. -1.
         23    2    1    2    0    0 -0.76241307529E+01 -0.56105005077E+02 -0.84376502208E+02  0.15759775841E+03  0.12046476815E+03 0.  0.
          5    1    3    3  502    0  0.59400398324E+01 -0.81346109311E+02 -0.96311229793E+02  0.12627667622E+03  0.41800000000E+01 0. -1.
         -5    1    3    3    0  502 -0.13564170585E+02  0.25241104234E+02  0.11934727586E+02  0.31321082184E+02  0.41800000000E+01 0.  1.
        -11    1    1    2    0    0 -0.26777987648E+02  0.54955522994E+02 -0.12508557000E+03  0.13922488985E+03  0.00000000000E+00 0.  1.
         11    1    1    2    0    0  0.34402118401E+02  0.11494820833E+01 -0.14694229465E+02  0.37426560610E+02  0.00000000000E+00 0. -1.
</event>
<event>
 7    1  0.1068210E-005  0.1089900E+03  0.7561462E-02  0.1262452E+00
          2   -1    0    0  501    0  0.00000000000E+00  0.00000000000E+00  0.31612168633E+03  0.31612168633E+03  0.00000000000E+00 0. -1.
         -2   -1    0    0    0  501 -0.00000000000E+00 -0.00000000000E+00 -0.47219976975E+02  0.47219976975E+02  0.00000000000E+00 0.  1.
         23    2    1    2    0    0  0.54943825492E+02  0.49652391831E+01  0.16119405213E+03  0.21136483920E+03  0.12509234687E+03 0.  0.
          5    1    3    3  502    0  0.78188188354E+02  0.42553670433E+02  0.84833650811E+02  0.12303832076E+03  0.41800000000E+01 0. -1.
         -5    1    3    3    0  502 -0.23244362862E+02 -0.37588431250E+02  0.76360401324E+02  0.88326518436E+02  0.41800000000E+01 0. -1.
        -11    1    1    2    0    0 -0.10313164871E+02  0.27442157961E+02  0.89049315272E+02  0.93750807749E+02  0.00000000000E+00 0. -1.
         11    1    1    2    0    0 -0.44630660621E+02 -0.32407397144E+02  0.18658341949E+02  0.58226016362E+02  0.00000000000E+00 0.  1.
</event>
<event>
 7    1  0.1068210E-005  0.1081212E+03  0.7561462E-02  0.1264089E+00
         -1   -1    0    0    0  501 -0.00000000000E+00  0.00000000000E+00  0.16344453965E+02  0.16344453965E+02  0.00000000000E+00 0.  1.
          1   -1    0    0  501    0  0.00000000000E+00 -0.00000000000E+00 -0.86455450134E+03  0.86455450134E+03  0.00000000000E+00 0. -1.
         23    2    1    2    0    0  0.16873141489E+02 -0.36209214760E+02 -0.37625648766E+03  0.39851329871E+03  0.12509234430E+03 0.  0.
          5    1    3    3  502    0 -0.47023128826E+02 -0.91535371360E+01 -0.24810555433E+03  0.25272277376E+03  0.41800000000E+01 0. -1.
         -5    1    3    3    0  502  0.63896270315E+02 -0.27055677624E+02 -0.12815093333E+03  0.14579052495E+03  0.41800000000E+01 0. -1.
        -11    1    1    2    0    0 -0.48319250523E+02 -0.29604687984E+01 -0.26803737051E+03  0.27237390906E+03  0.00000000000E+00 0. -1.
         11    1    1    2    0    0  0.31446109034E+02  0.39169683559E+02 -0.20391618920E+03  0.21001174754E+03  0.00000000000E+00 0.  1.
</event>
<event>
 7    1  0.1068210E-005  0.1200504E+03  0.7561462E-02  0.1243014E+00
         -2   -1    0    0    0  501 -0.00000000000E+00  0.00000000000E+00  0.39896951358E+02  0.39896951358E+02  0.00000000000E+00 0.  1.
          2   -1    0    0  501    0  0.00000000000E+00 -0.00000000000E+00 -0.42658872524E+03  0.42658872524E+03  0.00000000000E+00 0. -1.
         23    2    1    2    0    0  0.63830347042E+02 -0.42622158855E+01 -0.14694460694E+03  0.20328763385E+03  0.12506264381E+03 0.  0.
          5    1    3    3  502    0  0.57346731989E+02  0.50334879430E+02 -0.11912155760E+03  0.14152620125E+03  0.41800000000E+01 0.  1.
         -5    1    3    3    0  502  0.64836150536E+01 -0.54597095315E+02 -0.27823049343E+02  0.61761432592E+02  0.41800000000E+01 0.  1.
        -11    1    1    2    0    0 -0.38134068300E+02 -0.41313422369E+02 -0.12851886310E+03  0.14027866625E+03  0.00000000000E+00 0.  1.
         11    1    1    2    0    0 -0.25696278742E+02  0.45575638255E+02 -0.11122830384E+03  0.12291937650E+03  0.00000000000E+00 0. -1.
</event>
<event>
 7    1  0.1068210E-005  0.1376627E+03  0.7561462E-02  0.1216509E+00
         -1   -1    0    0    0  501 -0.00000000000E+00  0.00000000000E+00  0.31902824029E+02  0.31902824029E+02  0.00000000000E+00 0.  1.
          1   -1    0    0  501    0  0.00000000000E+00 -0.00000000000E+00 -0.84749153892E+03  0.84749153892E+03  0.00000000000E+00 0. -1.
         23    2    1    2    0    0 -0.35901253367E+02 -0.11433861136E+03 -0.37106938518E+03  0.40951486769E+03  0.12509084777E+03 0.  0.
          5    1    3    3  502    0 -0.51689317717E+02 -0.95619221848E+02 -0.14087227704E+03  0.17798115628E+03  0.41800000000E+01 0.  1.
         -5    1    3    3    0  502  0.15788064349E+02 -0.18719389510E+02 -0.23019710814E+03  0.23153371140E+03  0.41800000000E+01 0.  1.
        -11    1    1    2    0    0  0.58747486401E+02  0.66765450159E+02 -0.35492721170E+03  0.36589919117E+03  0.00000000000E+00 0. -1.
         11    1    1    2    0    0 -0.22846233034E+02  0.47573161199E+02 -0.89592117999E+02  0.10398030409E+03  0.00000000000E+00 0.  1.
</event>
<event>
 7    1  0.1068210E-005  0.2033542E+03  0.7561462E-02  0.1146940E+00
          1   -1    0    0  501    0  0.00000000000E+00  0.00000000000E+00  0.13379148249E+04  0.13379148249E+04  0.00000000000E+00 0. -1.
         -1   -1    0    0    0  501 -0.00000000000E+00 -0.00000000000E+00 -0.36546066471E+02  0.36546066471E+02  0.00000000000E+00 0.  1.
         23    2    1    2    0    0 -0.14173065163E+03  0.12740869669E+03  0.58362431247E+03  0.62656843745E+03  0.12510042005E+03 0.  0.
          5    1    3    3  502    0 -0.17083301248E+02  0.46106365460E+02  0.32023914319E+03  0.32401885338E+03  0.41800000000E+01 0. -1.
         -5    1    3    3    0  502 -0.12464735038E+03  0.81302331232E+02  0.26338516928E+03  0.30254958406E+03  0.41800000000E+01 0. -1.
        -11    1    1    2    0    0 -0.78084569785E+01 -0.27631440492E+02  0.13629545271E+03  0.13928718152E+03  0.00000000000E+00 0.  1.
         11    1    1    2    0    0  0.14953910861E+03 -0.99777256201E+02  0.58144899328E+03  0.60860527244E+03  0.00000000000E+00 0. -1.
</event>
<event>
 7    1  0.1068210E-005  0.3149899E+03  0.7561462E-02  0.1077978E+00
         -1   -1    0    0    0  501 -0.00000000000E+00  0.00000000000E+00  0.31279324245E+03  0.31279324245E+03  0.00000000000E+00 0.  1.
          1   -1    0    0  501    0  0.00000000000E+00 -0.00000000000E+00 -0.35048054677E+03  0.35048054677E+03  0.00000000000E+00 0. -1.
         23    2    1    2    0    0 -0.25440992840E+03  0.15806470741E+03  0.68825014955E+02  0.33179986874E+03  0.12508160063E+03 0.  0.
          5    1    3    3  502    0 -0.12696342275E+03  0.15006505566E+03  0.35954058577E+02  0.19987345590E+03  0.41800000000E+01 0.  1.
         -5    1    3    3    0  502 -0.12744650566E+03  0.79996517533E+01  0.32870956378E+02  0.13192641284E+03  0.41800000000E+01 0.  1.
        -11    1    1    2    0    0  0.51253104847E+02 -0.55214855199E+01  0.91111602617E+01  0.52348646593E+02  0.00000000000E+00 0.  1.
         11    1    1    2    0    0  0.20315682356E+03 -0.15254322189E+03 -0.11562347953E+03  0.27912527389E+03  0.00000000000E+00 0. -1.
</event>
<event>
 7    1  0.1068210E-005  0.3026522E+03  0.7561462E-02  0.1083922E+00
          2   -1    0    0  501    0  0.00000000000E+00  0.00000000000E+00  0.35354073579E+03  0.35354073579E+03  0.00000000000E+00 0.  1.
         -2   -1    0    0    0  501 -0.00000000000E+00 -0.00000000000E+00 -0.30034541311E+03  0.30034541311E+03  0.00000000000E+00 0. -1.
         23    2    1    2    0    0 -0.19949941194E+03 -0.21504411315E+03 -0.64186128623E+02  0.32528592832E+03  0.12508832913E+03 0.  0.
          5    1    3    3  502    0 -0.12523683725E+03 -0.58407236664E+02  0.56149687454E+01  0.13836426914E+03  0.41800000000E+01 0. -1.
         -5    1    3    3    0  502 -0.74262574691E+02 -0.15663687649E+03 -0.69801097368E+02  0.18692165918E+03  0.41800000000E+01 0. -1.
        -11    1    1    2    0    0  0.48616992207E+02  0.61335406304E+02  0.76350592572E+02  0.10933918320E+03  0.00000000000E+00 0.  1.
         11    1    1    2    0    0  0.15088241974E+03  0.15370870685E+03  0.41030858732E+02  0.21926103738E+03  0.00000000000E+00 0. -1.
</event>
<event>
 7    1  0.1068210E-005  0.9050047E+02  0.7561462E-02  0.1301644E+00
          1   -1    0    0  501    0  0.00000000000E+00  0.00000000000E+00  0.52994766049E+03  0.52994766049E+03  0.00000000000E+00 0.  1.
         -1   -1    0    0    0  501 -0.00000000000E+00 -0.00000000000E+00 -0.30147079510E+02  0.30147079510E+02  0.00000000000E+00 0. -1.
         23    2    1    2    0    0 -0.27098439504E+02 -0.53113826362E+02  0.22304644678E+03  0.26259001701E+03  0.12509354755E+03 0.  0.
          5    1    3    3  502    0  0.38036900187E+02 -0.38735629383E+02  0.39539285495E+02  0.67291026571E+02  0.41800000000E+01 0. -1.
         -5    1    3    3    0  502 -0.65135339691E+02 -0.14378196978E+02  0.18350716129E+03  0.19529899044E+03  0.41800000000E+01 0. -1.
        -11    1    1    2    0    0  0.20048583449E+02  0.42267214702E+02  0.28023128693E+03  0.28410919963E+03  0.00000000000E+00 0.  1.
         11    1    1    2    0    0  0.70498560549E+01  0.10846611659E+02 -0.34771527343E+01  0.13395523357E+02  0.00000000000E+00 0. -1.
</event>
<event>
 7    1  0.1068210E-005  0.1153677E+03  0.7561462E-02  0.1250941E+00
          2   -1    0    0  501    0  0.00000000000E+00  0.00000000000E+00  0.96120042990E+02  0.96120042990E+02  0.00000000000E+00 0. -1.
         -2   -1    0    0    0  501 -0.00000000000E+00 -0.00000000000E+00 -0.23710594486E+03  0.23710594486E+03  0.00000000000E+00 0.  1.
         23    2    1    2    0    0 -0.38068669843E+02  0.97615896319E+02 -0.69412694699E+02  0.17732406524E+03  0.12509042765E+03 0.  0.
          5    1    3    3  502    0  0.18579700797E+02  0.10197379125E+02 -0.69804978700E+02  0.73071193189E+02  0.41800000000E+01 0. -1.
         -5    1    3    3    0  502 -0.56648370641E+02  0.87418517194E+02  0.39228400078E+00  0.10425287205E+03  0.41800000000E+01 0. -1.
        -11    1    1    2    0    0  0.21367751392E+02 -0.61051727712E+02 -0.90686977806E+02  0.11139130217E+03  0.00000000000E+00 0.  1.
         11    1    1    2    0    0  0.16700918452E+02 -0.36564168608E+02  0.19113770639E+02  0.44510620431E+02  0.00000000000E+00 0. -1.
</event>
<event>
 7    1  0.1068210E-005  0.1885262E+03  0.7561462E-02  0.1159797E+00
          1   -1    0    0  501    0  0.00000000000E+00  0.00000000000E+00  0.43575647331E+03  0.43575647331E+03  0.00000000000E+00 0. -1.
         -1   -1    0    0    0  501 -0.00000000000E+00 -0.00000000000E+00 -0.92632704668E+02  0.92632704668E+02  0.00000000000E+00 0.  1.
         23    2    1    2    0    0 -0.97354452441E+02 -0.11942293290E+03  0.88611691175E+02  0.21735231973E+03  0.12510105022E+03 0.  0.
          5    1    3    3  502    0 -0.19862335110E+01 -0.10108370344E+03  0.42225813890E+02  0.10964648641E+03  0.41800000000E+01 0. -1.
         -5    1    3    3    0  502 -0.95368218930E+02 -0.18339229463E+02  0.46385877285E+02  0.10770583332E+03  0.41800000000E+01 0. -1.
        -11    1    1    2    0    0  0.57265012710E+01  0.77814106846E+02  0.11722050811E+03  0.14081361995E+03  0.00000000000E+00 0. -1.
         11    1    1    2    0    0  0.91627951170E+02  0.41608826054E+02  0.13729156936E+03  0.17022323830E+03  0.00000000000E+00 0.  1.
</event>
<event>
 7    1  0.1068210E-005  0.2079181E+03  0.7561462E-02  0.1143225E+00
          2   -1    0    0  501    0  0.00000000000E+00  0.00000000000E+00  0.31248674505E+03  0.31248674505E+03  0.00000000000E+00 0.  1.
         -2   -1    0    0    0  501 -0.00000000000E+00 -0.00000000000E+00 -0.15578173378E+03  0.15578173378E+03  0.00000000000E+00 0. -1.
         23    2    1    2    0    0  0.17289643199E+03  0.77958121792E+02  0.50200823093E+02  0.23267655017E+03  0.12509040496E+03 0.  0.
          5    1    3    3  502    0  0.73920456003E+02 -0.27774181591E+02 -0.77692499275E+00  0.79080433681E+02  0.41800000000E+01 0.  1.
         -5    1    3    3    0  502  0.98975975984E+02  0.10573230338E+03  0.50977748086E+02  0.15359611649E+03  0.41800000000E+01 0.  1.
        -11    1    1    2    0    0 -0.84361217731E+02 -0.53950750941E+02  0.10320359750E+03  0.14380014298E+03  0.00000000000E+00 0.  1.
         11    1    1    2    0    0 -0.88535214256E+02 -0.24007370851E+02  0.33005906727E+01  0.91791785674E+02  0.00000000000E+00 0. -1.
</event>
<event>
 7    1  0.1068210E-005  0.1399879E+03  0.7561462E-02  0.1213345E+00
         -2   -1    0    0    0  501 -0.00000000000E+00  0.00000000000E+00  0.80263241320E+02  0.80263241320E+02  0.00000000000E+00 0.  1.
          2   -1    0    0  501    0  0.00000000000E+00 -0.00000000000E+00 -0.29196885303E+03  0.29196885303E+03  0.00000000000E+00 0. -1.
         23    2    1    2    0    0  0.10321192273E+03 -0.17945666380E+02 -0.14732203634E+03  0.21983261259E+03  0.12509135556E+03 0.  0.
          5    1    3    3  502    0  0.24859835155E+01 -0.40150801882E+02 -0.96787538997E+02  0.10489788897E+03  0.41800000000E+01 0. -1.
         -5    1    3    3    0  502  0.10072593921E+03  0.22205135502E+02 -0.50534497338E+02  0.11493472362E+03  0.41800000000E+01 0. -1.
        -11    1    1    2    0    0 -0.27209338444E+02 -0.34516474806E+02 -0.32638378529E+02  0.54744852585E+02  0.00000000000E+00 0. -1.
         11    1    1    2    0    0 -0.76002584283E+02  0.52462141186E+02 -0.31745196844E+02  0.97654629169E+02  0.00000000000E+00 0.  1.
</event>
<event>
 7    1  0.1068210E-005  0.1918939E+03  0.7561462E-02  0.1156764E+00
         -1   -1    0    0    0  501 -0.00000000000E+00  0.00000000000E+00  0.18138495670E+03  0.18138495670E+03  0.00000000000E+00 0. -1.
          1   -1    0    0  501    0  0.00000000000E+00 -0.00000000000E+00 -0.22260730837E+03  0.22260730837E+03  0.00000000000E+00 0.  1.
         23    2    1    2    0    0  0.37656621062E+02 -0.16040079511E+03  0.15887821502E+02  0.20747818715E+03  0.12509332152E+03 0.  0.
          5    1    3    3  502    0 -0.43306760823E+02 -0.39648070170E+02 -0.10121974813E+02  0.59727479231E+02  0.41800000000E+01 0. -1.
         -5    1    3    3    0  502  0.80963381885E+02 -0.12075272494E+03  0.26009796315E+02  0.14775070792E+03  0.41800000000E+01 0. -1.
        -11    1    1    2    0    0 -0.59047531252E+02  0.11388985906E+03 -0.13010820711E+02  0.12894492002E+03  0.00000000000E+00 0. -1.
         11    1    1    2    0    0  0.21390910190E+02  0.46510936048E+02 -0.44099352468E+02  0.67569157897E+02  0.00000000000E+00 0.  1.
</event>
<event>
 7    1  0.1068210E-005  0.1203389E+03  0.7561462E-02  0.1242539E+00
         -1   -1    0    0    0  501 -0.00000000000E+00  0.00000000000E+00  0.11135388842E+03  0.11135388842E+03  0.00000000000E+00 0.  1.
          1   -1    0    0  501    0  0.00000000000E+00 -0.00000000000E+00 -0.16217252130E+03  0.16217252130E+03  0.00000000000E+00 0. -1.
         23    2    1    2    0    0 -0.18877952295E+02  0.22591798722E+02  0.19240060475E+02  0.12993846836E+03  0.12508820560E+03 0.  0.
          5    1    3    3  502    0 -0.44766784189E+02  0.59663146315E+02  0.34151785586E+02  0.82143611155E+02  0.41800000000E+01 0.  1.
         -5    1    3    3    0  502  0.25888831894E+02 -0.37071347593E+02 -0.14911725111E+02  0.47794857202E+02  0.41800000000E+01 0.  1.
        -11    1    1    2    0    0  0.68644208308E+02 -0.12150195635E+02 -0.59505467030E+02  0.91654542684E+02  0.00000000000E+00 0. -1.
         11    1    1    2    0    0 -0.49766256013E+02 -0.10441603087E+02 -0.10553226321E+02  0.51933398679E+02  0.00000000000E+00 0.  1.
</event>
<event>
 7    1  0.1068210E-005  0.1087542E+03  0.7561462E-02  0.1262894E+00
          2   -1    0    0  501    0  0.00000000000E+00  0.00000000000E+00  0.44029546458E+02  0.44029546458E+02  0.00000000000E+00 0.  1.
         -2   -1    0    0    0  501 -0.00000000000E+00 -0.00000000000E+00 -0.33737303527E+03  0.33737303527E+03  0.00000000000E+00 0. -1.
         23    2    1    2    0    0 -0.44210077015E+01  0.52182430769E+02 -0.18684595620E+03  0.23086405253E+03  0.12507696836E+03 0.  0.
          5    1    3    3  502    0 -0.16089737240E+02  0.81880912319E+02 -0.17929796907E+03  0.19780949816E+03  0.41800000000E+01 0.  1.
         -5    1    3    3    0  502  0.11668729539E+02 -0.29698481550E+02 -0.75479871275E+01  0.33054554378E+02  0.41800000000E+01 0.  1.
        -11    1    1    2    0    0  0.29252078119E+02 -0.66826393268E+02 -0.94335883484E+02  0.11925061771E+03  0.00000000000E+00 0. -1.
         11    1    1    2    0    0 -0.24831070417E+02  0.14643962499E+02 -0.12161649130E+02  0.31287911488E+02  0.00000000000E+00 0.  1.
</event>
<event>
 7    1  0.1068210E-005  0.9844867E+02  0.7561462E-02  0.1283592E+00
          3   -1    0    0  501    0  0.00000000000E+00  0.00000000000E+00  0.35005850333E+02  0.35005850333E+02  0.00000000000E+00 0. -1.
         -3   -1    0    0    0  501 -0.00000000000E+00 -0.00000000000E+00 -0.43245507153E+03  0.43245507153E+03  0.00000000000E+00 0.  1.
         23    2    1    2    0    0  0.27782235465E+02  0.15912336978E+02 -0.36540097186E+03  0.38754798266E+03  0.12510201259E+03 0.  0.
          5    1    3    3  502    0  0.33347713470E+02 -0.51400306120E+02 -0.17921015710E+03  0.18944079357E+03  0.41800000000E+01 0.  1.
         -5    1    3    3    0  502 -0.55654780050E+01  0.67312643098E+02 -0.18619081476E+03  0.19810718908E+03  0.41800000000E+01 0.  1.
        -11    1    1    2    0    0 -0.42908349878E+02 -0.25490960524E+02 -0.36050114815E+02  0.61567250514E+02  0.00000000000E+00 0.  1.
         11    1    1    2    0    0  0.15126114413E+02  0.95786235455E+01  0.40018654744E+01  0.18345688691E+02  0.00000000000E+00 0. -1.
</event>
<event>
 7    1  0.1068210E-005  0.1002964E+03  0.7561462E-02  0.1279674E+00
         -2   -1    0    0    0  501 -0.00000000000E+00  0.00000000000E+00  0.92708314729E+02  0.92708314729E+02  0.00000000000E+00 0.  1.
          2   -1    0    0  501    0  0.00000000000E+00 -0.00000000000E+00 -0.16590235043E+03  0.16590235043E+03  0.00000000000E+00 0. -1.
         23    2    1    2    0    0  0.58147121055E+02  0.68979521079E+01 -0.24373622730E+02  0.14025301369E+03  0.12509262541E+03 0.  0.
          5    1    3    3  502    0 -0.20822464663E+02  0.54349772844E+01  0.35038085775E+02  0.41331027903E+02  0.41800000000E+01 0. -1.
         -5    1    3    3    0  502  0.78969585718E+02  0.14629748235E+01 -0.59411708505E+02  0.98921985783E+02  0.41800000000E+01 0. -1.
        -11    1    1    2    0    0 -0.73811040301E+02  0.12268577282E+02 -0.14780987510E+02  0.76269687626E+02  0.00000000000E+00 0.  1.
         11    1    1    2    0    0  0.15663919246E+02 -0.19166529389E+02 -0.34039425458E+02  0.42087963844E+02  0.00000000000E+00 0. -1.
</event>
<event>
 7    1  0.1068210E-005  0.9001024E+02  0.7561462E-02  0.1302827E+00
          2   -1    0    0  501    0  0.00000000000E+00  0.00000000000E+00  0.75671774642E+03  0.75671774642E+03  0.00000000000E+00 0. -1.
         -2   -1    0    0    0  501 -0.00000000000E+00 -0.00000000000E+00 -0.19647195636E+02  0.19647195636E+02  0.00000000000E+00 0.  1.
         23    2    1    2    0    0  0.55311277076E+02  0.90295304613E+01  0.41624968216E+03  0.43823743679E+03  0.12508950124E+03 0.  0.
          5    1    3    3  502    0 -0.55921748220E+01  0.19912819707E+02  0.33676723151E+03  0.33742767140E+03  0.41800000000E+01 0. -1.
         -5    1    3    3    0  502  0.60903451898E+02 -0.10883289246E+02  0.79482450651E+02  0.10080976540E+03  0.41800000000E+01 0. -1.
        -11    1    1    2    0    0 -0.52941259615E+02  0.27941913630E+02  0.26089429754E+03  0.26767398453E+03  0.00000000000E+00 0.  1.
         11    1    1    2    0    0 -0.23700174614E+01 -0.36971444091E+02  0.59926571094E+02  0.70453520736E+02  0.00000000000E+00 0. -1.
</event>
<event>
 7    1  0.1068210E-005  0.6940470E+02  0.7561462E-02  0.1362129E+00
         -1   -1    0    0    0  501 -0.00000000000E+00  0.00000000000E+00  0.84506982562E+02  0.84506982562E+02  0.00000000000E+00 0.  1.
          1   -1    0    0  501    0  0.00000000000E+00 -0.00000000000E+00 -0.17130159222E+03  0.17130159222E+03  0.00000000000E+00 0. -1.
         23    2    1    2    0    0  0.34669816437E+02  0.16912906995E+02 -0.10088311647E+02  0.13129638746E+03  0.12509566232E+03 0.  0.
          5    1    3    3  502    0  0.65762174242E+02  0.10184792187E+02  0.35507908296E+02  0.75542554262E+02  0.41800000000E+01 0. -1.
         -5    1    3    3    0  502 -0.31092357805E+02  0.67281148084E+01 -0.45596219943E+02  0.55753833194E+02  0.41800000000E+01 0. -1.
        -11    1    1    2    0    0 -0.12455526924E+02 -0.11999790904E+02  0.19259969670E+02  0.25885933717E+02  0.00000000000E+00 0.  1.
         11    1    1    2    0    0 -0.22214289513E+02 -0.49131160910E+01 -0.95966267684E+02  0.98626253612E+02  0.00000000000E+00 0. -1.
</event>
<event>
 7    1  0.1068210E-005  0.8580879E+02  0.7561462E-02  0.1313331E+00
          2   -1    0    0  501    0  0.00000000000E+00  0.00000000000E+00  0.86919873517E+02  0.86919873517E+02  0.00000000000E+00 0.  1.
         -2   -1    0    0    0  501 -0.00000000000E+00 -0.00000000000E+00 -0.13821942356E+03  0.13821942356E+03  0.00000000000E+00 0. -1.
         23    2    1    2    0    0  0.99742420691E+00 -0.28375929593E+01 -0.43401615603E+02  0.13238971084E+03  0.12503714852E+03 0.  0.
          5    1    3    3  502    0 -0.40621211563E+02  0.29542045718E+01  0.27883982250E+02  0.49535835712E+02  0.41800000000E+01 0.  1.
         -5    1    3    3    0  502  0.41618635770E+02 -0.57917975311E+01 -0.71285597853E+02  0.82853875126E+02  0.41800000000E+01 0.  1.
        -11    1    1    2    0    0 -0.29886375834E+02 -0.31602380250E+02 -0.17325453319E+02  0.46819624418E+02  0.00000000000E+00 0. -1.
         11    1    1    2    0    0  0.28888951627E+02  0.34439973209E+02  0.94275188774E+01  0.45929961822E+02  0.00000000000E+00 0.  1.
</event>
<event>
 7    1  0.1068210E-005  0.1263181E+03  0.7561462E-02  0.1233024E+00
          1   -1    0    0  501    0  0.00000000000E+00  0.00000000000E+00  0.83600967590E+02  0.83600967590E+02  0.00000000000E+00 0. -1.
         -1   -1    0    0    0  501 -0.00000000000E+00 -0.00000000000E+00 -0.26234610406E+03  0.26234610406E+03  0.00000000000E+00 0.  1.
         23    2    1    2    0    0 -0.20774568382E+02  0.31558379068E+02 -0.18153802143E+03  0.22367515871E+03  0.12508800669E+03 0.  0.
          5    1    3    3  502    0 -0.65162464405E+02 -0.13862830314E+02 -0.85717846400E+02  0.10864320698E+03  0.41800000000E+01 0. -1.
         -5    1    3    3    0  502  0.44387896023E+02  0.45421209382E+02 -0.95820175028E+02  0.11503195172E+03  0.41800000000E+01 0. -1.
        -11    1    1    2    0    0  0.27697450138E+00 -0.74581349518E+02  0.13802517585E+01  0.74594634564E+02  0.00000000000E+00 0.  1.
         11    1    1    2    0    0  0.20497593881E+02  0.43022970451E+02  0.14126331993E+01  0.47677278381E+02  0.00000000000E+00 0. -1.
</event>
<event>
 7    1  0.1269710E-005  0.1151024E+03  0.7561462E-02  0.1251403E+00
          1   -1    0    0  501    0  0.00000000000E+00  0.00000000000E+00  0.35229577299E+02  0.35229577299E+02  0.00000000000E+00 0. -1.
         -1   -1    0    0    0  501 -0.00000000000E+00 -0.00000000000E+00 -0.48887102422E+03  0.48887102422E+03  0.00000000000E+00 0.  1.
         23    2    1    2    0    0  0.38278322226E+02  0.58974254409E+02 -0.29536361131E+03  0.32837559350E+03  0.12509066666E+03 0.  0.
          5    1    3    3  502    0  0.28315288903E+02 -0.33942068109E+02 -0.56562219913E+02  0.71906722181E+02  0.41800000000E+01 0.  1.
         -5    1    3    3    0  502  0.99630333230E+01  0.92916322518E+02 -0.23880139140E+03  0.25646887132E+03  0.41800000000E+01 0.  1.
        -11    1    1    2    0    0 -0.38973765647E+02 -0.61757371791E+01 -0.13641415556E+02  0.41751435386E+02  0.00000000000E+00 0. -1.
         11    1    1    2    0    0  0.69544342051E+00 -0.52798517230E+02 -0.14463642005E+03  0.15397357263E+03  0.00000000000E+00 0.  1.
</event>
<event>
 7    1  0.1068210E-005  0.9364449E+02  0.7561462E-02  0.1294259E+00
          2   -1    0    0  501    0  0.00000000000E+00  0.00000000000E+00  0.77281723237E+02  0.77281723237E+02  0.00000000000E+00 0. -1.
         -2   -1    0    0    0  501 -0.00000000000E+00 -0.00000000000E+00 -0.15699512196E+03  0.15699512196E+03  0.00000000000E+00 0.  1.
         23    2    1    2    0    0 -0.15330934263E+02  0.31729521166E+01 -0.32190875377E+02  0.13005957859E+03  0.12503654008E+03 0.  0.
          5    1    3    3  502    0 -0.48078006643E+02  0.46525793829E+02 -0.52710416170E+00  0.67036515818E+02  0.41800000000E+01 0. -1.
         -5    1    3    3    0  502  0.32747072380E+02 -0.43352841713E+02 -0.31663771215E+02  0.63023062775E+02  0.41800000000E+01 0. -1.
        -11    1    1    2    0    0  0.32601411070E+02 -0.22676242896E+02 -0.62588085424E+02  0.74123764291E+02  0.00000000000E+00 0.  1.
         11    1    1    2    0    0 -0.17270476807E+02  0.19503290779E+02  0.15065562082E+02  0.30093502308E+02  0.00000000000E+00 0. -1.
</event>
<event>
 7    1  0.1068210E-005  0.1011766E+03  0.7561462E-02  0.1277841E+00
         -2   -1    0    0    0  501 -0.00000000000E+00  0.00000000000E+00  0.35829613100E+02  0.35829613100E+02  0.00000000000E+00 0.  1.
          2   -1    0    0  501    0  0.00000000000E+00 -0.00000000000E+00 -0.35761424447E+03  0.35761424447E+03  0.00000000000E+00 0. -1.
         23    2    1    2    0    0  0.32712792887E+02  0.87218912280E+01 -0.16260757721E+03  0.20792893338E+03  0.12508804485E+03 0.  0.
          5    1    3    3  502    0 -0.25368200809E+02  0.51309832908E+02 -0.75054965864E+02  0.94482616741E+02  0.41800000000E+01 0. -1.
         -5    1    3    3    0  502  0.58080993696E+02 -0.42587941680E+02 -0.87552611344E+02  0.11344631664E+03  0.41800000000E+01 0. -1.
        -11    1    1    2    0    0  0.11753357129E+02 -0.23240004509E+02 -0.12473951652E+03  0.12742914186E+03  0.00000000000E+00 0. -1.
         11    1    1    2    0    0 -0.44466150016E+02  0.14518113281E+02 -0.34437537642E+02  0.58085782334E+02  0.00000000000E+00 0.  1.
</event>
<event>
 7    1  0.1068210E-005  0.1050082E+03  0.7561462E-02  0.1270103E+00
         -2   -1    0    0    0  501 -0.00000000000E+00  0.00000000000E+00  0.23557172463E+03  0.23557172463E+03  0.00000000000E+00 0. -1.
          2   -1    0    0  501    0  0.00000000000E+00 -0.00000000000E+00 -0.64133295513E+02  0.64133295513E+02  0.00000000000E+00 0.  1.
         23    2    1    2    0    0 -0.37922385466E+02  0.97588450984E+01  0.14858419583E+03  0.19813722357E+03  0.12509098184E+03 0.  0.
          5    1    3    3  502    0  0.71494867964E+01  0.50303504285E+02  0.17929035610E+02  0.54041469472E+02  0.41800000000E+01 0.  1.
         -5    1    3    3    0  502 -0.45071872262E+02 -0.40544659187E+02  0.13065516022E+03  0.14409575410E+03  0.41800000000E+01 0.  1.
        -11    1    1    2    0    0  0.67579958974E+02 -0.11531272663E+02  0.21410639565E+02  0.71822256932E+02  0.00000000000E+00 0. -1.
         11    1    1    2    0    0 -0.29657573508E+02  0.17724275648E+01  0.14435937274E+01  0.29745539644E+02  0.00000000000E+00 0.  1.
</event>
<event>
 7    1  0.1068210E-005  0.1331981E+03  0.7561462E-02  0.1222786E+00
          2   -1    0    0  501    0  0.00000000000E+00  0.00000000000E+00  0.10861577101E+03  0.10861577101E+03  0.00000000000E+00 0. -1.
         -2   -1    0    0    0  501 -0.00000000000E+00 -0.00000000000E+00 -0.22684411821E+03  0.22684411821E+03  0.00000000000E+00 0.  1.
         23    2    1    2    0    0 -0.44350781068E+02 -0.77594387853E+02 -0.13772925093E+03  0.20634645030E+03  0.12498652000E+03 0.  0.
          5    1    3    3  502    0 -0.79432901975E+02 -0.24924307920E+02 -0.47139589133E+02  0.95762311507E+02  0.41800000000E+01 0. -1.
         -5    1    3    3    0  502  0.35082120908E+02 -0.52670079933E+02 -0.90589661796E+02  0.11058413879E+03  0.41800000000E+01 0. -1.
        -11    1    1    2    0    0  0.56917944734E+02  0.19478598685E+02 -0.12714947241E+02  0.61487707087E+02  0.00000000000E+00 0.  1.
         11    1    1    2    0    0 -0.12567163667E+02  0.58115789167E+02  0.32215850968E+02  0.67625731839E+02  0.00000000000E+00 0. -1.
</event>
<event>
 7    1  0.1068210E-005  0.8867804E+02  0.7561462E-02  0.1306085E+00
         -1   -1    0    0    0  501 -0.00000000000E+00  0.00000000000E+00  0.82774046008E+02  0.82774046008E+02  0.00000000000E+00 0.  1.
          1   -1    0    0  501    0  0.00000000000E+00 -0.00000000000E+00 -0.27431847037E+03  0.27431847037E+03  0.00000000000E+00 0. -1.
         23    2    1    2    0    0  0.79421035609E+02  0.13385367700E+02 -0.24139809462E+02  0.15072197430E+03  0.12509002427E+03 0.  0.
          5    1    3    3  502    0 -0.82847583069E+00 -0.51304521527E+00 -0.61054261766E+02  0.61204941527E+02  0.41800000000E+01 0. -1.
         -5    1    3    3    0  502  0.80249511440E+02  0.13898412915E+02  0.36914452303E+02  0.89517032774E+02  0.41800000000E+01 0. -1.
        -11    1    1    2    0    0 -0.45691513175E+02 -0.29235947649E+02 -0.15923031236E+03  0.16821637074E+03  0.00000000000E+00 0. -1.
         11    1    1    2    0    0 -0.33729522434E+02  0.15850579949E+02 -0.81743025434E+01  0.38154171338E+02  0.00000000000E+00 0.  1.
</event>
<event>
 7    1  0.1068210E-005  0.1124986E+03  0.7561462E-02  0.1256012E+00
         -1   -1    0    0    0  501 -0.00000000000E+00  0.00000000000E+00  0.58039539509E+02  0.58039539509E+02  0.00000000000E+00 0.  1.
          1   -1    0    0  501    0  0.00000000000E+00 -0.00000000000E+00 -0.41797150606E+03  0.41797150606E+03  0.00000000000E+00 0. -1.
         23    2    1    2    0    0 -0.84814267879E+02  0.48498860847E+02 -0.11894079897E+03  0.19835018492E+03  0.12510108975E+03 0.  0.
          5    1    3    3  502    0 -0.40731596549E+02  0.17290092305E+02  0.20358920478E+02  0.48887301954E+02  0.41800000000E+01 0.  1.
         -5    1    3    3    0  502 -0.44082671330E+02  0.31208768542E+02 -0.13929971945E+03  0.14946288296E+03  0.41800000000E+01 0.  1.
        -11    1    1    2    0    0  0.51802988170E+02 -0.69924369612E+02 -0.21081033821E+03  0.22806570488E+03  0.00000000000E+00 0. -1.
         11    1    1    2    0    0  0.33011279708E+02  0.21425508765E+02 -0.30180829372E+02  0.49595155766E+02  0.00000000000E+00 0.  1.
</event>
<event>
 7    1  0.1068210E-005  0.1698332E+03  0.7561462E-02  0.1178022E+00
          2   -1    0    0  501    0  0.00000000000E+00  0.00000000000E+00  0.69577710193E+03  0.69577710193E+03  0.00000000000E+00 0. -1.
         -2   -1    0    0    0  501 -0.00000000000E+00 -0.00000000000E+00 -0.67944922910E+02  0.67944922910E+02  0.00000000000E+00 0.  1.
         23    2    1    2    0    0  0.13538342909E+03  0.18437882798E+02  0.90247131310E+02  0.20125913405E+03  0.11701310155E+03 0.  0.
          5    1    3    3  502    0  0.90614719579E+02 -0.42624997879E+02  0.30641563148E+02  0.10480599048E+03  0.41800000000E+01 0. -1.
         -5    1    3    3    0  502  0.44768709511E+02  0.61062880677E+02  0.59605568162E+02  0.96453143566E+02  0.41800000000E+01 0.  1.
        -11    1    1    2    0    0  0.13555324370E+02 -0.19644447427E+00  0.25944279466E+02  0.29272701382E+02  0.00000000000E+00 0.  1.
         11    1    1    2    0    0 -0.14893875346E+03 -0.18241438324E+02  0.51164076825E+03  0.53319018941E+03  0.00000000000E+00 0. -1.
</event>
<event>
 7    1  0.1068210E-005  0.1244216E+03  0.7561462E-02  0.1235976E+00
          1   -1    0    0  501    0  0.00000000000E+00  0.00000000000E+00  0.73089318066E+02  0.73089318066E+02  0.00000000000E+00 0. -1.
         -1   -1    0    0    0  501 -0.00000000000E+00 -0.00000000000E+00 -0.42275641676E+03  0.42275641676E+03  0.00000000000E+00 0.  1.
         23    2    1    2    0    0 -0.36910413386E+01 -0.73773515377E+02 -0.34899136589E+03  0.37801935794E+03  0.12508999223E+03 0.  0.
          5    1    3    3  502    0  0.23672593645E+02  0.29630873355E+02 -0.86621889394E+02  0.94653074266E+02  0.41800000000E+01 0. -1.
         -5    1    3    3    0  502 -0.27363634984E+02 -0.10340438873E+03 -0.26236947649E+03  0.28336628367E+03  0.41800000000E+01 0. -1.
        -11    1    1    2    0    0 -0.26791872935E+02  0.34713980308E+01 -0.25629968721E+02  0.37239097147E+02  0.00000000000E+00 0. -1.
         11    1    1    2    0    0  0.30482914274E+02  0.70302117347E+02  0.24954235912E+02  0.80587279740E+02  0.00000000000E+00 0.  1.
</event>
<event>
 7    1  0.1068210E-005  0.1054492E+03  0.7561462E-02  0.1269237E+00
         -2   -1    0    0    0  501 -0.00000000000E+00  0.00000000000E+00  0.24756640102E+02  0.24756640102E+02  0.00000000000E+00 0.  1.
          2   -1    0    0  501    0  0.00000000000E+00 -0.00000000000E+00 -0.54244039906E+03  0.54244039906E+03  0.00000000000E+00 0. -1.
         23    2    1    2    0    0 -0.57578524619E+01 -0.39211753699E+02 -0.27335047363E+03  0.30321479078E+03  0.12509201982E+03 0.  0.
          5    1    3    3  502    0  0.27202239621E+02  0.35162766682E+02 -0.14004517319E+03  0.14699151314E+03  0.41800000000E+01 0. -1.
         -5    1    3    3    0  502 -0.32960092083E+02 -0.74374520382E+02 -0.13330530044E+03  0.15622327764E+03  0.41800000000E+01 0. -1.
        -11    1    1    2    0    0 -0.34494341416E+02  0.22623113577E+02 -0.18965049656E+03  0.19408497031E+03  0.00000000000E+00 0. -1.
         11    1    1    2    0    0  0.40252193878E+02  0.16588640122E+02 -0.54682788769E+02  0.69897278063E+02  0.00000000000E+00 0.  1.
</event>
<event>
 7    1  0.1068210E-005  0.9956461E+02  0.7561462E-02  0.1281214E+00
          1   -1    0    0  501    0  0.00000000000E+00  0.00000000000E+00  0.42581217139E+03  0.42581217139E+03  0.00000000000E+00 0. -1.
         -1   -1    0    0    0  501 -0.00000000000E+00 -0.00000000000E+00 -0.36970568928E+02  0.36970568928E+02  0.00000000000E+00 0.  1.
         23    2    1    2    0    0 -0.24351029455E+02 -0.54145534173E+02  0.17631891062E+03  0.22418665814E+03  0.12508632196E+03 0.  0.
          5    1    3    3  502    0 -0.46458870427E+02 -0.19451997546E+02  0.17570742386E+03  0.18283155649E+03  0.41800000000E+01 0.  1.
         -5    1    3    3    0  502  0.22107840973E+02 -0.34693536627E+02  0.61148675591E+00  0.41355101647E+02  0.41800000000E+01 0.  1.
        -11    1    1    2    0    0  0.27200133528E+02  0.78313902827E+02  0.14801522156E+03  0.16965087814E+03  0.00000000000E+00 0. -1.
         11    1    1    2    0    0 -0.28491040730E+01 -0.24168368653E+02  0.64507470283E+02  0.68945204037E+02  0.00000000000E+00 0.  1.
</event>
<event>
 7    1  0.1068210E-005  0.1488536E+03  0.7561462E-02  0.1201889E+00
         -2   -1    0    0    0  501 -0.00000000000E+00  0.00000000000E+00  0.18201948642E+02  0.18201948642E+02  0.00000000000E+00 0.  1.
          2   -1    0    0  501    0  0.00000000000E+00 -0.00000000000E+00 -0.13444488793E+04  0.13444488793E+04  0.00000000000E+00 0. -1.
         23    2    1    2    0    0  0.32404183947E+02 -0.10745037696E+03 -0.72495733039E+03  0.74417821347E+03  0.12506985201E+03 0.  0.
          5    1    3    3  502    0  0.27040465589E+02 -0.13574805027E+03 -0.61866044912E+03  0.63396919771E+03  0.41800000000E+01 0.  1.
         -5    1    3    3    0  502  0.53637183582E+01  0.28297673317E+02 -0.10629688127E+03  0.11020901577E+03  0.41800000000E+01 0.  1.
        -11    1    1    2    0    0  0.14419087660E+01  0.93510181451E+02 -0.53150893158E+03  0.53967395480E+03  0.00000000000E+00 0. -1.
         11    1    1    2    0    0 -0.33846092713E+02  0.13940195506E+02 -0.69780668658E+02  0.78798659640E+02  0.00000000000E+00 0.  1.
</event>
<event>
 6    1  0.1068210E-005  0.8945464E+02  0.7561462E-02  0.1304178E+00
          2   -1    0    0  501    0  0.00000000000E+00  0.00000000000E+00  0.61780377307E+03  0.61780377307E+03  0.00000000000E+00 0. -1.
         -2   -1    0    0    0  501 -0.00000000000E+00 -0.00000000000E+00 -0.23067082044E+02  0.23067082044E+02  0.00000000000E+00 0.  1.
          5    1    1    2  502    0  0.10052689980E+02  0.51648675041E+02  0.31369894829E+03  0.31810869961E+03  0.41800000000E+01 0. -1.
         -5    1    1    2    0  502 -0.65285636939E+01 -0.37772360098E+02  0.13875256934E+02  0.40980098661E+02  0.41800000000E+01 0.  1.
        -11    1    1    2    0    0 -0.37393480587E+02  0.17600259777E+02  0.15611935559E+03  0.16149704247E+03  0.00000000000E+00 0. -1.
         11    1    1    2    0    0  0.33869354301E+02 -0.31476574720E+02  0.11104313022E+03  0.12028501438E+03  0.00000000000E+00 0.  1.
</event>
<event>
 7    1  0.1068210E-005  0.7982272E+02  0.7561462E-02  0.1329555E+00
         -2   -1    0    0    0  501 -0.00000000000E+00  0.00000000000E+00  0.35794483578E+03  0.35794483578E+03  0.00000000000E+00 0.  1.
          2   -1    0    0  501    0  0.00000000000E+00 -0.00000000000E+00 -0.55790325932E+02  0.55790325932E+02  0.00000000000E+00 0. -1.
         23    2    1    2    0    0 -0.10646989776E+02 -0.68239928392E+02  0.25239034524E+03  0.29003936545E+03  0.12510755743E+03 0.  0.
          5    1    3    3  502    0 -0.56737999275E+01 -0.14309458639E+02 -0.12104848675E+02  0.20023795184E+02  0.41800000000E+01 0.  1.
         -5    1    3    3    0  502 -0.49731898484E+01 -0.53930469753E+02  0.26449519391E+03  0.27001557027E+03  0.41800000000E+01 0.  1.
        -11    1    1    2    0    0  0.28856095507E+02  0.64673863876E+02  0.67639607656E+02  0.97931095371E+02  0.00000000000E+00 0.  1.
         11    1    1    2    0    0 -0.18209105731E+02  0.35660645154E+01 -0.17875443046E+02  0.25764700886E+02  0.00000000000E+00 0. -1.
</event>
<event>
 6    1  0.1068210E-005  0.1162407E+03  0.7561462E-02  0.1249431E+00
          1   -1    0    0  501    0  0.00000000000E+00  0.00000000000E+00  0.94597557976E+03  0.94597557976E+03  0.00000000000E+00 0. -1.
         -1   -1    0    0    0  501 -0.00000000000E+00 -0.00000000000E+00 -0.18721731118E+02  0.18721731118E+02  0.00000000000E+00 0.  1.
          5    1    1    2  502    0  0.33027757498E+02 -0.54354604110E+02  0.89906671391E+02  0.11020860998E+03  0.41800000000E+01 0. -1.
         -5    1    1    2    0  502 -0.16102006787E+02  0.71543148504E+02  0.31764130479E+03  0.32602326241E+03  0.41800000000E+01 0.  1.
        -11    1    1    2    0    0 -0.28484563116E+02 -0.51626957601E+02  0.34787449729E+03  0.35283619280E+03  0.00000000000E+00 0. -1.
         11    1    1    2    0    0  0.11558812405E+02  0.34438413207E+02  0.17183137517E+03  0.17562924569E+03  0.00000000000E+00 0.  1.
</event>
<event>
 7    1  0.1068210E-005  0.7752732E+02  0.7561462E-02  0.1336219E+00
         -2   -1    0    0    0  501 -0.00000000000E+00  0.00000000000E+00  0.10208619883E+03  0.10208619883E+03  0.00000000000E+00 0.  1.
          2   -1    0    0  501    0  0.00000000000E+00 -0.00000000000E+00 -0.18640841034E+03  0.18640841034E+03  0.00000000000E+00 0. -1.
         23    2    1    2    0    0  0.87886103770E+01  0.23052073322E+02  0.38722452925E+02  0.13325592949E+03  0.12509626943E+03 0.  0.
          5    1    3    3  502    0 -0.22198839925E+02  0.54824919597E+02  0.59563441205E+02  0.84046631289E+02  0.41800000000E+01 0. -1.
         -5    1    3    3    0  502  0.30987450302E+02 -0.31772846275E+02 -0.20840988280E+02  0.49209298198E+02  0.41800000000E+01 0. -1.
        -11    1    1    2    0    0 -0.27158736543E+02 -0.11595348562E+02  0.77487633421E+00  0.29540641702E+02  0.00000000000E+00 0.  1.
         11    1    1    2    0    0  0.18370126166E+02 -0.11456724760E+02 -0.12381954077E+03  0.12569803799E+03  0.00000000000E+00 0. -1.
</event>
<event>
 7    1  0.1068210E-005  0.1035286E+03  0.7561462E-02  0.1273046E+00
         -2   -1    0    0    0  501 -0.00000000000E+00  0.00000000000E+00  0.16401470320E+02  0.16401470320E+02  0.00000000000E+00 0.  1.
          2   -1    0    0  501    0  0.00000000000E+00 -0.00000000000E+00 -0.69997895457E+03  0.69997895457E+03  0.00000000000E+00 0. -1.
         23    2    1    2    0    0  0.23915098433E+02 -0.22377758849E-01 -0.41903321384E+03  0.43796200575E+03  0.12509976718E+03 0.  0.
          5    1    3    3  502    0 -0.51125501998E+02 -0.73646941283E+01 -0.17509051278E+03  0.18259850969E+03  0.41800000000E+01 0.  1.
         -5    1    3    3    0  502  0.75040600431E+02  0.73423163694E+01 -0.24394270105E+03  0.25536349606E+03  0.41800000000E+01 0.  1.
        -11    1    1    2    0    0  0.25670420564E+02 -0.12538213727E+02 -0.15380959547E+03  0.15644030476E+03  0.00000000000E+00 0. -1.
         11    1    1    2    0    0 -0.49585518997E+02  0.12560591486E+02 -0.11073467494E+03  0.12197811438E+03  0.00000000000E+00 0.  1.
</event>
<event>
 7    1  0.1068210E-005  0.1116238E+03  0.7561462E-02  0.1257592E+00
         -3   -1    0    0    0  501 -0.00000000000E+00  0.00000000000E+00  0.34601586862E+03  0.34601586862E+03  0.00000000000E+00 0.  1.
          3   -1    0    0  501    0  0.00000000000E+00 -0.00000000000E+00 -0.42209284093E+02  0.42209284093E+02  0.00000000000E+00 0. -1.
         23    2    1    2    0    0 -0.54194662741E+02  0.23968726788E+01  0.18487757855E+03  0.22971061393E+03  0.12507773837E+03 0.  0.
          5    1    3    3  502    0  0.21661181924E+02 -0.30301285292E+02  0.11655047891E+03  0.12242900484E+03  0.41800000000E+01 0. -1.
         -5    1    3    3    0  502 -0.75855844664E+02  0.32698157971E+02  0.68327099640E+02  0.10728160909E+03  0.41800000000E+01 0. -1.
        -11    1    1    2    0    0  0.41771013486E+02  0.40630567892E+02  0.81258156560E+02  0.99992742849E+02  0.00000000000E+00 0.  1.
         11    1    1    2    0    0  0.12423649254E+02 -0.43027440571E+02  0.37670849421E+02  0.58521795931E+02  0.00000000000E+00 0. -1.
</event>
<event>
 7    1  0.1068210E-005  0.1259246E+03  0.7561462E-02  0.1233631E+00
          1   -1    0    0  501    0  0.00000000000E+00  0.00000000000E+00  0.15929570040E+03  0.15929570040E+03  0.00000000000E+00 0. -1.
         -1   -1    0    0    0  501 -0.00000000000E+00 -0.00000000000E+00 -0.15408981148E+03  0.15408981148E+03  0.00000000000E+00 0.  1.
         23    2    1    2    0    0 -0.37466315591E+02 -0.83426686792E+02 -0.62444355561E+02  0.16706440338E+03  0.12508988953E+03 0.  0.
          5    1    3    3  502    0  0.40708577595E+02 -0.51738278044E+00 -0.16572412956E+02  0.44153972029E+02  0.41800000000E+01 0.  1.
         -5    1    3    3    0  502 -0.78174893187E+02 -0.82909304012E+02 -0.45871942605E+02  0.12291043135E+03  0.41800000000E+01 0.  1.
        -11    1    1    2    0    0  0.35674128431E+02  0.40667423472E+02  0.84494739947E+02  0.10032867910E+03  0.00000000000E+00 0. -1.
         11    1    1    2    0    0  0.17921871599E+01  0.42759263321E+02 -0.16844495470E+02  0.45992429401E+02  0.00000000000E+00 0.  1.
</event>
<event>
 6    1  0.1068210E-005  0.2597494E+03  0.7561462E-02  0.1107294E+00
         -2   -1    0    0    0  501 -0.00000000000E+00  0.00000000000E+00  0.62731562094E+03  0.62731562094E+03  0.00000000000E+00 0.  1.
          2   -1    0    0  501    0  0.00000000000E+00 -0.00000000000E+00 -0.13013148942E+03  0.13013148942E+03  0.00000000000E+00 0. -1.
          5    1    1    2  502    0  0.16524409853E+03 -0.13073364717E+03  0.15877008970E+03  0.26386040322E+03  0.41800000000E+01 0. -1.
         -5    1    1    2    0  502 -0.16626827627E+03  0.15042243068E+03  0.33259180052E+03  0.40113193031E+03  0.41800000000E+01 0.  1.
        -11    1    1    2    0    0 -0.12767957799E+02 -0.49782948511E+02  0.21641846768E+02  0.55764973239E+02  0.00000000000E+00 0.  1.
         11    1    1    2    0    0  0.13792135542E+02  0.30094165002E+02 -0.15819605466E+02  0.36689803584E+02  0.00000000000E+00 0. -1.
</event>
<event>
 7    1  0.1068210E-005  0.1049623E+03  0.7561462E-02  0.1270194E+00
          2   -1    0    0  501    0  0.00000000000E+00  0.00000000000E+00  0.21153057741E+03  0.21153057741E+03  0.00000000000E+00 0. -1.
         -2   -1    0    0    0  501 -0.00000000000E+00 -0.00000000000E+00 -0.65031390088E+02  0.65031390088E+02  0.00000000000E+00 0.  1.
         23    2    1    2    0    0 -0.51768298147E+01 -0.39230571608E+02  0.55899204471E+02  0.14260526312E+03  0.12508278336E+03 0.  0.
          5    1    3    3  502    0  0.52688004409E+02 -0.31445011026E+01  0.51936931415E+02  0.74167586860E+02  0.41800000000E+01 0.  1.
         -5    1    3    3    0  502 -0.57864834223E+02 -0.36086070506E+02  0.39622730563E+01  0.68437676261E+02  0.41800000000E+01 0.  1.
        -11    1    1    2    0    0  0.14365839298E+02  0.62240944844E+02  0.88425322489E+02  0.10908414280E+03  0.00000000000E+00 0. -1.
         11    1    1    2    0    0 -0.91890094832E+01 -0.23010373236E+02  0.21746603657E+01  0.24872561578E+02  0.00000000000E+00 0.  1.
</event>
<event>
 7    1  0.1068210E-005  0.1162540E+03  0.7561462E-02  0.1249408E+00
          1   -1    0    0  501    0  0.00000000000E+00  0.00000000000E+00  0.10771626422E+03  0.10771626422E+03  0.00000000000E+00 0. -1.
         -1   -1    0    0    0  501 -0.00000000000E+00 -0.00000000000E+00 -0.14359447411E+03  0.14359447411E+03  0.00000000000E+00 0.  1.
         23    2    1    2    0    0  0.50067269537E+02  0.24924012225E+02 -0.46237933796E+02  0.14461463539E+03  0.12509000113E+03 0.  0.
          5    1    3    3  502    0  0.85878490529E+02 -0.62122053769E+01 -0.14610752982E+02  0.87433707081E+02  0.41800000000E+01 0. -1.
         -5    1    3    3    0  502 -0.35811220992E+02  0.31136217602E+02 -0.31627180814E+02  0.57180928304E+02  0.41800000000E+01 0. -1.
        -11    1    1    2    0    0 -0.70412339323E+02 -0.56468325509E+01  0.25179431163E+02  0.74991919568E+02  0.00000000000E+00 0. -1.
         11    1    1    2    0    0  0.20345069786E+02 -0.19277179674E+02 -0.14819707254E+02  0.31704183381E+02  0.00000000000E+00 0.  1.
</event>
<event>
 7    1  0.1068210E-005  0.7941259E+02  0.7561462E-02  0.1330727E+00
          2   -1    0    0  501    0  0.00000000000E+00  0.00000000000E+00  0.25803314278E+03  0.25803314278E+03  0.00000000000E+00 0. -1.
         -2   -1    0    0    0  501 -0.00000000000E+00 -0.00000000000E+00 -0.47739482448E+02  0.47739482448E+02  0.00000000000E+00 0.  1.
         23    2    1    2    0    0  0.20600679263E+02  0.13414489799E+02  0.11832181476E+03  0.17393459435E+03  0.12509538256E+03 0.  0.
          5    1    3    3  502    0 -0.16676937251E+02 -0.10356875358E+02  0.12709251427E+03  0.12866765206E+03  0.41800000000E+01 0.  1.
         -5    1    3    3    0  502  0.37277616515E+02  0.23771365157E+02 -0.87706995035E+01  0.45266942289E+02  0.41800000000E+01 0.  1.
        -11    1    1    2    0    0 -0.10350584247E+02 -0.52719096220E+02  0.49153192914E+02  0.72818088921E+02  0.00000000000E+00 0. -1.
         11    1    1    2    0    0 -0.10250095017E+02  0.39304606420E+02  0.42818652655E+02  0.59019941960E+02  0.00000000000E+00 0.  1.
</event>
<event>
 7    1  0.1068210E-005  0.9039396E+02  0.7561462E-02  0.1301900E+00
          1   -1    0    0  501    0  0.00000000000E+00  0.00000000000E+00  0.12505753969E+03  0.12505753969E+03  0.00000000000E+00 0. -1.
         -1   -1    0    0    0  501 -0.00000000000E+00 -0.00000000000E+00 -0.15272769160E+03  0.15272769160E+03  0.00000000000E+00 0.  1.
         23    2    1    2    0    0 -0.26271098431E+02  0.30511367357E+02 -0.90376303250E+02  0.15948897364E+03  0.12509093641E+03 0.  0.
          5    1    3    3  502    0  0.11385392904E+02  0.39693186376E+02 -0.10874304455E+03  0.11639458043E+03  0.41800000000E+01 0.  1.
         -5    1    3    3    0  502 -0.37656491335E+02 -0.91818190190E+01  0.18366741295E+02  0.43094393208E+02  0.41800000000E+01 0.  1.
        -11    1    1    2    0    0 -0.28988728792E+02 -0.34299869210E+02  0.28932556696E+02  0.53422095258E+02  0.00000000000E+00 0. -1.
         11    1    1    2    0    0  0.55259827223E+02  0.37885018525E+01  0.33773594641E+02  0.64874162391E+02  0.00000000000E+00 0.  1.
</event>
<event>
 7    1  0.1068210E-005  0.1071957E+03  0.7561462E-02  0.1265853E+00
         -2   -1    0    0    0  501 -0.00000000000E+00  0.00000000000E+00  0.87949488392E+02  0.87949488392E+02  0.00000000000E+00 0.  1.
          2   -1    0    0  501    0  0.00000000000E+00 -0.00000000000E+00 -0.14717396400E+03  0.14717396400E+03  0.00000000000E+00 0. -1.
         23    2    1    2    0    0  0.48768588964E+01  0.29493781038E+02 -0.17779628563E+02  0.12984616907E+03  0.12510094148E+03 0.  0.
          5    1    3    3  502    0  0.34001699954E+02  0.69900548921E+02 -0.17838977541E+02  0.79861779713E+02  0.41800000000E+01 0.  1.
         -5    1    3    3    0  502 -0.29124841058E+02 -0.40406767883E+02  0.59348977748E-01  0.49984389360E+02  0.41800000000E+01 0.  1.
        -11    1    1    2    0    0  0.98250122029E+01  0.26714506041E+02  0.73594012116E+01  0.29399940204E+02  0.00000000000E+00 0.  1.
         11    1    1    2    0    0 -0.14701871099E+02 -0.56208287079E+02 -0.48804248254E+02  0.75877343112E+02  0.00000000000E+00 0. -1.
</event>
<event>
 7    1  0.1068210E-005  0.1095112E+03  0.7561462E-02  0.1261478E+00
          1   -1    0    0  501    0  0.00000000000E+00  0.00000000000E+00  0.53223105005E+03  0.53223105005E+03  0.00000000000E+00 0. -1.
         -1   -1    0    0    0  501 -0.00000000000E+00 -0.00000000000E+00 -0.32143379024E+02  0.32143379024E+02  0.00000000000E+00 0.  1.
         23    2    1    2    0    0 -0.65385423841E+02 -0.35113863680E+02  0.27664508969E+03  0.31255186029E+03  0.12509165700E+03 0.  0.
          5    1    3    3  502    0  0.29212823992E+02 -0.39475479133E+02  0.11581088694E+03  0.12586237115E+03  0.41800000000E+01 0.  1.
         -5    1    3    3    0  502 -0.94598247834E+02  0.43616154525E+01  0.16083420275E+03  0.18668948914E+03  0.41800000000E+01 0.  1.
        -11    1    1    2    0    0  0.54752002269E+02  0.33505479608E+02  0.23029301457E+03  0.23907168689E+03  0.00000000000E+00 0. -1.
         11    1    1    2    0    0  0.10633421573E+02  0.16083840721E+01 -0.68504332217E+01  0.12750881891E+02  0.00000000000E+00 0.  1.
</event>
<event>
 7    1  0.1068210E-005  0.1105108E+03  0.7561462E-02  0.1259627E+00
          2   -1    0    0  501    0  0.00000000000E+00  0.00000000000E+00  0.46916806361E+03  0.46916806361E+03  0.00000000000E+00 0. -1.
         -2   -1    0    0    0  501 -0.00000000000E+00 -0.00000000000E+00 -0.34652540985E+02  0.34652540985E+02  0.00000000000E+00 0.  1.
         23    2    1    2    0    0 -0.41269989921E+02  0.49319652067E+02  0.20608675309E+03  0.24950885840E+03  0.12508909014E+03 0.  0.
          5    1    3    3  502    0 -0.98376778070E+00 -0.27520598121E+02  0.22593067998E+01  0.27945088785E+02  0.41800000000E+01 0.  1.
         -5    1    3    3    0  502 -0.40286222140E+02  0.76840250188E+02  0.20382744629E+03  0.22156376962E+03  0.41800000000E+01 0.  1.
        -11    1    1    2    0    0  0.63118970360E+02 -0.13807668759E+02  0.17495041677E+03  0.18650014602E+03  0.00000000000E+00 0. -1.
         11    1    1    2    0    0 -0.21848980439E+02 -0.35511983308E+02  0.53478352753E+02  0.67811600171E+02  0.00000000000E+00 0.  1.
</event>
<event>
 7    1  0.1068210E-005  0.7657015E+02  0.7561462E-02  0.1339077E+00
          1   -1    0    0  501    0  0.00000000000E+00  0.00000000000E+00  0.13464729616E+03  0.13464729616E+03  0.00000000000E+00 0. -1.
         -1   -1    0    0    0  501 -0.00000000000E+00 -0.00000000000E+00 -0.12725591410E+03  0.12725591410E+03  0.00000000000E+00 0.  1.
         23    2    1    2    0    0  0.30539420144E+01  0.84221205703E+00 -0.69558194246E+02  0.14316213233E+03  0.12508804045E+03 0.  0.
          5    1    3    3  502    0 -0.41593021772E+01 -0.38847563160E+02 -0.89664314399E+02  0.97895835635E+02  0.41800000000E+01 0.  1.
         -5    1    3    3    0  502  0.72132441916E+01  0.39689775217E+02  0.20106120153E+02  0.45266296691E+02  0.41800000000E+01 0.  1.
        -11    1    1    2    0    0  0.34335529737E+02 -0.79229964745E+01  0.27409330428E+01  0.35344238419E+02  0.00000000000E+00 0. -1.
         11    1    1    2    0    0 -0.37389471751E+02  0.70807844174E+01  0.74208643266E+02  0.83396839516E+02  0.00000000000E+00 0.  1.
</event>
<event>
 7    1  0.1068210E-005  0.7280019E+02  0.7561462E-02  0.1350822E+00
         -2   -1    0    0    0  501 -0.00000000000E+00  0.00000000000E+00  0.43238242021E+02  0.43238242021E+02  0.00000000000E+00 0.  1.
          2   -1    0    0  501    0  0.00000000000E+00 -0.00000000000E+00 -0.37610954382E+03  0.37610954382E+03  0.00000000000E+00 0. -1.
         23    2    1    2    0    0  0.65594008998E+02  0.12795386392E+02 -0.19035223692E+03  0.23737798537E+03  0.12509211769E+03 0.  0.
          5    1    3    3  502    0  0.22005219177E+02 -0.10293425525E+02  0.13151727913E+02  0.27939660470E+02  0.41800000000E+01 0.  1.
         -5    1    3    3    0  502  0.43588789822E+02  0.23088811918E+02 -0.20350396483E+03  0.20943832490E+03  0.41800000000E+01 0.  1.
        -11    1    1    2    0    0 -0.28771273969E+02  0.70418414212E+01 -0.13654296831E+03  0.13971884601E+03  0.00000000000E+00 0. -1.
         11    1    1    2    0    0 -0.36822735029E+02 -0.19837227813E+02 -0.59760965677E+01  0.42250954457E+02  0.00000000000E+00 0.  1.
</event>
<event>
 7    1  0.1068210E-005  0.1162413E+03  0.7561462E-02  0.1249430E+00
         -1   -1    0    0    0  501 -0.00000000000E+00  0.00000000000E+00  0.10402921383E+03  0.10402921383E+03  0.00000000000E+00 0.  1.
          1   -1    0    0  501    0  0.00000000000E+00 -0.00000000000E+00 -0.17338006392E+03  0.17338006392E+03  0.00000000000E+00 0. -1.
         23    2    1    2    0    0 -0.35099588336E+01  0.71267618542E+02 -0.41366956430E+01  0.14406869575E+03  0.12508910257E+03 0.  0.
          5    1    3    3  502    0  0.24628681561E+02 -0.14541532831E+02  0.35142214398E+02  0.45502480869E+02  0.41800000000E+01 0.  1.
         -5    1    3    3    0  502 -0.28138640395E+02  0.85809151373E+02 -0.39278910041E+02  0.98566214884E+02  0.41800000000E+01 0.  1.
        -11    1    1    2    0    0 -0.10493425875E+02  0.19066206894E+02 -0.13037835428E+01  0.21802111904E+02  0.00000000000E+00 0.  1.
         11    1    1    2    0    0  0.14003384709E+02 -0.90333825436E+02 -0.63910370905E+02  0.11153847009E+03  0.00000000000E+00 0. -1.
</event>
<event>
 7    1  0.1068210E-005  0.1631963E+03  0.7561462E-02  0.1185135E+00
         -2   -1    0    0    0  501 -0.00000000000E+00  0.00000000000E+00  0.12869468885E+03  0.12869468885E+03  0.00000000000E+00 0.  1.
          2   -1    0    0  501    0  0.00000000000E+00 -0.00000000000E+00 -0.23625611294E+03  0.23625611294E+03  0.00000000000E+00 0. -1.
         23    2    1    2    0    0 -0.11581547234E+03  0.71520572194E+02 -0.53517505871E+02  0.19245714734E+03  0.12508882543E+03 0.  0.
          5    1    3    3  502    0 -0.49184436851E+02  0.89843631795E+02 -0.66263611592E+02  0.12206279377E+03  0.41800000000E+01 0. -1.
         -5    1    3    3    0  502 -0.66631035488E+02 -0.18323059601E+02  0.12746105721E+02  0.70394353569E+02  0.41800000000E+01 0. -1.
        -11    1    1    2    0    0  0.45603645290E+02  0.10384335502E+02 -0.43885577340E+02  0.64136345282E+02  0.00000000000E+00 0.  1.
         11    1    1    2    0    0  0.70211827048E+02 -0.81904907696E+02 -0.10158340878E+02  0.10835730917E+03  0.00000000000E+00 0. -1.
</event>
<event>
 7    1  0.1068210E-005  0.1037853E+03  0.7561462E-02  0.1272532E+00
         -2   -1    0    0    0  501 -0.00000000000E+00  0.00000000000E+00  0.21523996895E+02  0.21523996895E+02  0.00000000000E+00 0.  1.
          2   -1    0    0  501    0  0.00000000000E+00 -0.00000000000E+00 -0.61179625639E+03  0.61179625639E+03  0.00000000000E+00 0. -1.
         23    2    1    2    0    0 -0.28705985282E+02  0.19006027672E+02 -0.28560517601E+03  0.31369234661E+03  0.12508920450E+03 0.  0.
          5    1    3    3  502    0 -0.61302032124E+02  0.51536952057E+02 -0.14528529220E+03  0.16594964628E+03  0.41800000000E+01 0.  1.
         -5    1    3    3    0  502  0.32596046842E+02 -0.32530924385E+02 -0.14031988381E+03  0.14774270034E+03  0.41800000000E+01 0.  1.
        -11    1    1    2    0    0  0.22753338704E+02  0.26677765202E+02 -0.51499049343E+02  0.62302244434E+02  0.00000000000E+00 0.  1.
         11    1    1    2    0    0  0.59526465781E+01 -0.45683792874E+02 -0.25316803414E+03  0.25732566223E+03  0.00000000000E+00 0. -1.
</event>
<event>
 7    1  0.1068210E-005  0.1021689E+03  0.7561462E-02  0.1275800E+00
          1   -1    0    0  501    0  0.00000000000E+00  0.00000000000E+00  0.35401580677E+03  0.35401580677E+03  0.00000000000E+00 0. -1.
         -1   -1    0    0    0  501 -0.00000000000E+00 -0.00000000000E+00 -0.40809007053E+02  0.40809007053E+02  0.00000000000E+00 0.  1.
         23    2    1    2    0    0 -0.25019432659E+02  0.22404775699E+02  0.11255546060E+03  0.17159342308E+03  0.12509046786E+03 0.  0.
          5    1    3    3  502    0  0.13188659123E+02  0.66286686627E+02  0.79920781872E+02  0.10475050992E+03  0.41800000000E+01 0. -1.
         -5    1    3    3    0  502 -0.38208091783E+02 -0.43881910928E+02  0.32634678724E+02  0.66842913161E+02  0.41800000000E+01 0. -1.
        -11    1    1    2    0    0  0.14659418123E+02  0.25425307815E+02  0.14983046499E+03  0.15267780800E+03  0.00000000000E+00 0. -1.
         11    1    1    2    0    0  0.10360014537E+02 -0.47830083514E+02  0.50820874130E+02  0.70553582740E+02  0.00000000000E+00 0.  1.
</event>
<event>
 7    1  0.1068210E-005  0.1170907E+03  0.7561462E-02  0.1247975E+00
          1   -1    0    0  501    0  0.00000000000E+00  0.00000000000E+00  0.20771682623E+03  0.20771682623E+03  0.00000000000E+00 0. -1.
         -1   -1    0    0    0  501 -0.00000000000E+00 -0.00000000000E+00 -0.78007263403E+02  0.78007263403E+02  0.00000000000E+00 0.  1.
         23    2    1    2    0    0  0.89841056619E+01  0.58427212063E+02  0.39236008654E+02  0.14381275475E+03  0.12509272876E+03 0.  0.
          5    1    3    3  502    0  0.27038218797E+02 -0.31627993757E+02  0.29876828393E+02  0.51395452518E+02  0.41800000000E+01 0. -1.
         -5    1    3    3    0  502 -0.18054113135E+02  0.90055205820E+02  0.93591802619E+01  0.92417302231E+02  0.41800000000E+01 0. -1.
        -11    1    1    2    0    0 -0.21640217901E+02  0.14728796974E+02  0.17681465229E+01  0.26236669629E+02  0.00000000000E+00 0.  1.
         11    1    1    2    0    0  0.12656112239E+02 -0.73156009037E+02  0.88705407647E+02  0.11567466525E+03  0.00000000000E+00 0. -1.
</event>
<event>
 7    1  0.1068210E-005  0.1044319E+03  0.7561462E-02  0.1271243E+00
          2   -1    0    0  501    0  0.00000000000E+00  0.00000000000E+00  0.65826163482E+03  0.65826163482E+03  0.00000000000E+00 0.  1.
         -2   -1    0    0    0  501 -0.00000000000E+00 -0.00000000000E+00 -0.19102592176E+02  0.19102592176E+02  0.00000000000E+00 0. -1.
         23    2    1    2    0    0 -0.23219369751E+02  0.65699865441E+01  0.39717905559E+03  0.41711081779E+03  0.12509167944E+03 0.  0.
          5    1    3    3  502    0 -0.15207518525E+01  0.57489058047E+02  0.29733817613E+03  0.30287747996E+03  0.41800000000E+01 0. -1.
         -5    1    3    3    0  502 -0.21698617899E+02 -0.50919071503E+02  0.99840879459E+02  0.11423333783E+03  0.41800000000E+01 0. -1.
        -11    1    1    2    0    0  0.15349482117E+02 -0.49616074252E+02  0.12527503093E+03  0.13561413938E+03  0.00000000000E+00 0. -1.
         11    1    1    2    0    0  0.78698876345E+01  0.43046087708E+02  0.11670495612E+03  0.12463926982E+03  0.00000000000E+00 0.  1.
</event>
<event>
 6    1  0.1068210E-005  0.1119264E+03  0.7561462E-02  0.1257044E+00
          2   -1    0    0  501    0  0.00000000000E+00  0.00000000000E+00  0.12138921859E+02  0.12138921859E+02  0.00000000000E+00 0. -1.
         -2   -1    0    0    0  501 -0.00000000000E+00 -0.00000000000E+00 -0.15563126207E+04  0.15563126207E+04  0.00000000000E+00 0.  1.
          5    1    1    2  502    0  0.16323865867E+02  0.52056115343E+02 -0.35919176413E+03  0.36333524954E+03  0.41800000000E+01 0. -1.
         -5    1    1    2    0  502  0.30194134396E+02 -0.74368508342E+02 -0.95543424478E+03  0.95880885962E+03  0.41800000000E+01 0.  1.
        -11    1    1    2    0    0 -0.62067244607E+02  0.61474948452E+00 -0.14755063959E+03  0.16007470760E+03  0.00000000000E+00 0. -1.
         11    1    1    2    0    0  0.15549244344E+02  0.21697643514E+02 -0.81997050336E+02  0.86232725792E+02  0.00000000000E+00 0.  1.
</event>
<event>
 7    1  0.1068210E-005  0.9415432E+02  0.7561462E-02  0.1293092E+00
          2   -1    0    0  501    0  0.00000000000E+00  0.00000000000E+00  0.30787601801E+03  0.30787601801E+03  0.00000000000E+00 0.  1.
         -2   -1    0    0    0  501 -0.00000000000E+00 -0.00000000000E+00 -0.43558046079E+02  0.43558046079E+02  0.00000000000E+00 0. -1.
         23    2    1    2    0    0 -0.94078343992E+01  0.15260373093E+02  0.92797569495E+02  0.15677887082E+03  0.12508732589E+03 0.  0.
          5    1    3    3  502    0 -0.38313416786E+02 -0.43975707672E+02  0.56986610420E+02  0.81650027179E+02  0.41800000000E+01 0. -1.
         -5    1    3    3    0  502  0.28905582387E+02  0.59236080765E+02  0.35810959075E+02  0.75128843645E+02  0.41800000000E+01 0. -1.
        -11    1    1    2    0    0 -0.13811036756E+02 -0.32207399144E+02  0.15982423936E+03  0.16362105238E+03  0.00000000000E+00 0.  1.
         11    1    1    2    0    0  0.23218871155E+02  0.16947026051E+02  0.11696163079E+02  0.31034140885E+02  0.00000000000E+00 0. -1.
</event>
<event>
 7    1  0.1068210E-005  0.1171992E+03  0.7561462E-02  0.1247790E+00
         -2   -1    0    0    0  501 -0.00000000000E+00  0.00000000000E+00  0.26960118585E+03  0.26960118585E+03  0.00000000000E+00 0.  1.
          2   -1    0    0  501    0  0.00000000000E+00 -0.00000000000E+00 -0.69903291662E+02  0.69903291662E+02  0.00000000000E+00 0. -1.
         23    2    1    2    0    0  0.39911938306E+02  0.56976870188E+02  0.19468773065E+03  0.23577048700E+03  0.11333615275E+03 0.  0.
          5    1    3    3  502    0 -0.28768867671E+02  0.56405878924E+02  0.10565152465E+03  0.12324361235E+03  0.41800000000E+01 0. -1.
         -5    1    3    3    0  502  0.68680805976E+02  0.57099126353E+00  0.89036205997E+02  0.11252687465E+03  0.41800000000E+01 0.  1.
        -11    1    1    2    0    0 -0.14762540320E+02  0.17866065292E+02  0.85407962136E+01  0.24699677845E+02  0.00000000000E+00 0. -1.
         11    1    1    2    0    0 -0.25149397986E+02 -0.74842935479E+02 -0.35306326791E+01  0.79034312658E+02  0.00000000000E+00 0.  1.
</event>
<event>
 6    1  0.1068210E-005  0.1055394E+03  0.7561462E-02  0.1269060E+00
          1   -1    0    0  501    0  0.00000000000E+00  0.00000000000E+00  0.29500218430E+02  0.29500218430E+02  0.00000000000E+00 0. -1.
         -1   -1    0    0    0  501 -0.00000000000E+00 -0.00000000000E+00 -0.14631021586E+04  0.14631021586E+04  0.00000000000E+00 0.  1.
          5    1    1    2  502    0 -0.74336994087E+01  0.46380178032E+02 -0.79763965288E+02  0.92661444839E+02  0.41800000000E+01 0. -1.
         -5    1    1    2    0  502  0.49370796306E+02  0.20366070312E+02 -0.12277939058E+04  0.12289620009E+04  0.41800000000E+01 0.  1.
        -11    1    1    2    0    0  0.12567039003E+02 -0.52545780863E+02 -0.87124343262E+02  0.10251653888E+03  0.00000000000E+00 0.  1.
         11    1    1    2    0    0 -0.54504135900E+02 -0.14200467481E+02 -0.38919725861E+02  0.68462392363E+02  0.00000000000E+00 0. -1.
</event>
<event>
 7    1  0.1068210E-005  0.8133666E+02  0.7561462E-02  0.1325300E+00
          1   -1    0    0  501    0  0.00000000000E+00  0.00000000000E+00  0.22276187225E+03  0.22276187225E+03  0.00000000000E+00 0. -1.
         -1   -1    0    0    0  501 -0.00000000000E+00 -0.00000000000E+00 -0.88229696587E+02  0.88229696587E+02  0.00000000000E+00 0.  1.
         23    2    1    2    0    0 -0.49847901269E+02 -0.24016040784E+01  0.22797754336E+02  0.13659344323E+03  0.12508976843E+03 0.  0.
          5    1    3    3  502    0 -0.37034397854E+02 -0.10612153630E+02  0.73718562156E+02  0.83283030897E+02  0.41800000000E+01 0. -1.
         -5    1    3    3    0  502 -0.12813503415E+02  0.82105495513E+01 -0.50920807819E+02  0.53310412329E+02  0.41800000000E+01 0. -1.
        -11    1    1    2    0    0 -0.29074489161E+02 -0.15820170979E+01  0.86770812411E+02  0.91525966723E+02  0.00000000000E+00 0. -1.
         11    1    1    2    0    0  0.78922390430E+02  0.39836211763E+01  0.24963608917E+02  0.82872158890E+02  0.00000000000E+00 0.  1.
</event>
<event>
 7    1  0.1068210E-005  0.8509589E+02  0.7561462E-02  0.1315182E+00
          3   -1    0    0  501    0  0.00000000000E+00  0.00000000000E+00  0.31820104630E+02  0.31820104630E+02  0.00000000000E+00 0. -1.
         -3   -1    0    0    0  501 -0.00000000000E+00 -0.00000000000E+00 -0.55151818270E+03  0.55151818270E+03  0.00000000000E+00 0.  1.
         23    2    1    2    0    0  0.65728410559E+02  0.10482595727E+02 -0.36495581905E+03  0.39149891759E+03  0.12509413994E+03 0.  0.
          5    1    3    3  502    0  0.44125057387E+02  0.45099505612E+01 -0.36597423179E+03  0.36867597030E+03  0.41800000000E+01 0. -1.
         -5    1    3    3    0  502  0.21603353172E+02  0.59726451662E+01  0.10184127365E+01  0.22822947291E+02  0.41800000000E+01 0. -1.
        -11    1    1    2    0    0 -0.43404862168E+02 -0.44492928530E+02 -0.50990630095E+02  0.80396810301E+02  0.00000000000E+00 0. -1.
         11    1    1    2    0    0 -0.22323548390E+02  0.34010332803E+02 -0.10375162892E+03  0.11144255944E+03  0.00000000000E+00 0.  1.
</event>
<event>
 7    1  0.1068210E-005  0.7887640E+02  0.7561462E-02  0.1332271E+00
          2   -1    0    0  501    0  0.00000000000E+00  0.00000000000E+00  0.31009964697E+02  0.31009964697E+02  0.00000000000E+00 0. -1.
         -2   -1    0    0    0  501 -0.00000000000E+00 -0.00000000000E+00 -0.58057876291E+03  0.58057876291E+03  0.00000000000E+00 0.  1.
         23    2    1    2    0    0 -0.28452577709E+01 -0.76219439088E+02 -0.34707008075E+03  0.37671988407E+03  0.12507090675E+03 0.  0.
          5    1    3    3  502    0  0.93346968312E+01 -0.32692018509E+02 -0.32399205243E+03  0.32579783160E+03  0.41800000000E+01 0.  1.
         -5    1    3    3    0  502 -0.12179954602E+02 -0.43527420578E+02 -0.23078028321E+02  0.50922052468E+02  0.41800000000E+01 0.  1.
        -11    1    1    2    0    0 -0.69723724966E+01  0.25001520555E+02 -0.19996336471E+00  0.25956309323E+02  0.00000000000E+00 0. -1.
         11    1    1    2    0    0  0.98176302675E+01  0.51217918532E+02 -0.20229875409E+03  0.20891253421E+03  0.00000000000E+00 0.  1.
</event>
<event>
 7    1  0.1068210E-005  0.1969299E+03  0.7561462E-02  0.1152355E+00
         -1   -1    0    0    0  501 -0.00000000000E+00  0.00000000000E+00  0.11247385015E+03  0.11247385015E+03  0.00000000000E+00 0.  1.
          1   -1    0    0  501    0  0.00000000000E+00 -0.00000000000E+00 -0.44262489593E+03  0.44262489593E+03  0.00000000000E+00 0. -1.
         23    2    1    2    0    0  0.13151225522E+03 -0.11403257061E+03 -0.63851326329E+02  0.22365749114E+03  0.12508709381E+03 0.  0.
          5    1    3    3  502    0  0.12216720867E+03 -0.34756961381E+02 -0.66995297551E+02  0.14366180958E+03  0.41800000000E+01 0.  1.
         -5    1    3    3    0  502  0.93450465528E+01 -0.79275609225E+02  0.31439712223E+01  0.79995681559E+02  0.41800000000E+01 0.  1.
        -11    1    1    2    0    0 -0.69060382006E+02  0.10209578477E+03 -0.22208287350E+03  0.25399544944E+03  0.00000000000E+00 0. -1.
         11    1    1    2    0    0 -0.62451873215E+02  0.11936785831E+02 -0.44216845944E+02  0.77445805498E+02  0.00000000000E+00 0.  1.
</event>
<event>
 7    1  0.1068210E-005  0.8589773E+02  0.7561462E-02  0.1313101E+00
          1   -1    0    0  501    0  0.00000000000E+00  0.00000000000E+00  0.83446013748E+03  0.83446013748E+03  0.00000000000E+00 0. -1.
         -1   -1    0    0    0  501 -0.00000000000E+00 -0.00000000000E+00 -0.14689755371E+02  0.14689755371E+02  0.00000000000E+00 0.  1.
         23    2    1    2    0    0  0.18104061147E+02 -0.11657726753E+01  0.42321553914E+03  0.44168893418E+03  0.12509438817E+03 0.  0.
          5    1    3    3  502    0  0.38236910237E+02 -0.27851622451E+02  0.39471524906E+03  0.39756178692E+03  0.41800000000E+01 0. -1.
         -5    1    3    3    0  502 -0.20132849091E+02  0.26685849776E+02  0.28500290080E+02  0.44127147261E+02  0.41800000000E+01 0. -1.
        -11    1    1    2    0    0 -0.53887607964E+02  0.70713280669E+01  0.18493750569E+03  0.19275829161E+03  0.00000000000E+00 0.  1.
         11    1    1    2    0    0  0.35783546817E+02 -0.59055553916E+01  0.21161733727E+03  0.21470266706E+03  0.00000000000E+00 0. -1.
</event>
<event>
 7    1  0.1068210E-005  0.1987989E+03  0.7561462E-02  0.1150756E+00
         -2   -1    0    0    0  501 -0.00000000000E+00  0.00000000000E+00  0.78788042633E+02  0.78788042633E+02  0.00000000000E+00 0.  1.
          2   -1    0    0  501    0  0.00000000000E+00 -0.00000000000E+00 -0.62673490896E+03  0.62673490896E+03  0.00000000000E+00 0. -1.
         23    2    1    2    0    0  0.20165619706E+02 -0.19197805192E+03 -0.29782237432E+03  0.37630393094E+03  0.12507700490E+03 0.  0.
          5    1    3    3  502    0  0.39998288568E+02 -0.14041828961E+03 -0.11688210413E+03  0.18707233310E+03  0.41800000000E+01 0.  1.
         -5    1    3    3    0  502 -0.19832668862E+02 -0.51559762315E+02 -0.18094027019E+03  0.18923159784E+03  0.41800000000E+01 0.  1.
        -11    1    1    2    0    0  0.69238023991E+01  0.10025436311E+03 -0.61730394110E+02  0.11793861929E+03  0.00000000000E+00 0.  1.
         11    1    1    2    0    0 -0.27089422105E+02  0.91723688813E+02 -0.18839409789E+03  0.21128040136E+03  0.00000000000E+00 0. -1.
</event>
<event>
 7    1  0.1068210E-005  0.1100294E+03  0.7561462E-02  0.1260515E+00
         -2   -1    0    0    0  501 -0.00000000000E+00  0.00000000000E+00  0.34531245765E+03  0.34531245765E+03  0.00000000000E+00 0.  1.
          2   -1    0    0  501    0  0.00000000000E+00 -0.00000000000E+00 -0.69967298861E+02  0.69967298861E+02  0.00000000000E+00 0. -1.
         23    2    1    2    0    0  0.52421389398E+02  0.80279957161E+02  0.22011867365E+03  0.27072705337E+03  0.12509209946E+03 0.  0.
          5    1    3    3  502    0  0.71392576574E+02  0.58284760196E+02  0.22291142917E+03  0.24124881537E+03  0.41800000000E+01 0. -1.
         -5    1    3    3    0  502 -0.18971187175E+02  0.21995196964E+02 -0.27927555193E+01  0.29478238002E+02  0.41800000000E+01 0. -1.
        -11    1    1    2    0    0 -0.35957667515E+02 -0.34607744237E+02 -0.21027499835E+02  0.54155383515E+02  0.00000000000E+00 0. -1.
         11    1    1    2    0    0 -0.16463721884E+02 -0.45672212923E+02  0.76253984969E+02  0.90397319624E+02  0.00000000000E+00 0.  1.
</event>
<event>
 7    1  0.1068210E-005  0.9562461E+02  0.7561462E-02  0.1289775E+00
          1   -1    0    0  501    0  0.00000000000E+00  0.00000000000E+00  0.40256195473E+03  0.40256195473E+03  0.00000000000E+00 0. -1.
         -1   -1    0    0    0  501 -0.00000000000E+00 -0.00000000000E+00 -0.41613613070E+02  0.41613613070E+02  0.00000000000E+00 0.  1.
         23    2    1    2    0    0 -0.50761784004E+02  0.25299359510E+02  0.27177253224E+03  0.30450936629E+03  0.12509527798E+03 0.  0.
          5    1    3    3  502    0  0.33827446064E+02  0.20372772389E+02  0.15604011151E+03  0.16101346143E+03  0.41800000000E+01 0. -1.
         -5    1    3    3    0  502 -0.84589230069E+02  0.49265871215E+01  0.11573242073E+03  0.14349590486E+03  0.41800000000E+01 0. -1.
        -11    1    1    2    0    0  0.23127854719E+02  0.70314368429E+01 -0.14093509967E+02  0.27981525891E+02  0.00000000000E+00 0.  1.
         11    1    1    2    0    0  0.27633929285E+02 -0.32330796353E+02  0.10326931939E+03  0.11168467562E+03  0.00000000000E+00 0. -1.
</event>
<event>
 7    1  0.1068210E-005  0.8467067E+02  0.7561462E-02  0.1316296E+00
          1   -1    0    0  501    0  0.00000000000E+00  0.00000000000E+00  0.40377619621E+03  0.40377619621E+03  0.00000000000E+00 0. -1.
         -1   -1    0    0    0  501 -0.00000000000E+00 -0.00000000000E+00 -0.35904176730E+02  0.35904176730E+02  0.00000000000E+00 0.  1.
         23    2    1    2    0    0 -0.20974833230E+02  0.26255839705E+02  0.92088807279E+02  0.14769542472E+03  0.11047297094E+03 0.  0.
          5    1    3    3  502    0  0.13525761209E+02 -0.14272509765E+02  0.92139601427E+02  0.94307101018E+02  0.41800000000E+01 0. -1.
         -5    1    3    3    0  502 -0.34500594439E+02  0.40528349470E+02 -0.50794147806E-01  0.53388323699E+02  0.41800000000E+01 0.  1.
        -11    1    1    2    0    0  0.31382729400E+02 -0.56079076609E+02  0.18970741507E+03  0.20029638506E+03  0.00000000000E+00 0. -1.
         11    1    1    2    0    0 -0.10407896170E+02  0.29823236904E+02  0.86075797132E+02  0.91688563158E+02  0.00000000000E+00 0.  1.
</event>
<event>
 7    1  0.1068210E-005  0.1115287E+03  0.7561462E-02  0.1257765E+00
          2   -1    0    0  501    0  0.00000000000E+00  0.00000000000E+00  0.41846825786E+03  0.41846825786E+03  0.00000000000E+00 0. -1.
         -2   -1    0    0    0  501 -0.00000000000E+00 -0.00000000000E+00 -0.40650875120E+02  0.40650875120E+02  0.00000000000E+00 0.  1.
         23    2    1    2    0    0  0.97105655917E+01 -0.35441334140E+02  0.98663150782E+02  0.16350189118E+03  0.12509223736E+03 0.  0.
          5    1    3    3  502    0  0.35397972682E+02 -0.74626299218E+02  0.70517954038E+02  0.10868465967E+03  0.41800000000E+01 0.  1.
         -5    1    3    3    0  502 -0.25687407090E+02  0.39184965078E+02  0.28145196744E+02  0.54817231514E+02  0.41800000000E+01 0.  1.
        -11    1    1    2    0    0 -0.45442202932E+02  0.35367953444E+02  0.21033164509E+03  0.21807174706E+03  0.00000000000E+00 0. -1.
         11    1    1    2    0    0  0.35731637340E+02  0.73380695776E-01  0.68822586865E+02  0.77545494740E+02  0.00000000000E+00 0.  1.
</event>
<event>
 7    1  0.1068210E-005  0.1376215E+03  0.7561462E-02  0.1216566E+00
          1   -1    0    0  501    0  0.00000000000E+00  0.00000000000E+00  0.82661922283E+03  0.82661922283E+03  0.00000000000E+00 0. -1.
         -1   -1    0    0    0  501 -0.00000000000E+00 -0.00000000000E+00 -0.37478945485E+02  0.37478945485E+02  0.00000000000E+00 0.  1.
         23    2    1    2    0    0 -0.41102427034E+02  0.83351037824E+02  0.16934575877E+03  0.23013586919E+03  0.12509087601E+03 0.  0.
          5    1    3    3  502    0  0.37085071501E+02 -0.47130176780E+01  0.48071553010E+02  0.61039836768E+02  0.41800000000E+01 0.  1.
         -5    1    3    3    0  502 -0.78187498535E+02  0.88064055502E+02  0.12127420576E+03  0.16909603242E+03  0.41800000000E+01 0.  1.
        -11    1    1    2    0    0  0.47330599712E+02 -0.95247667671E+02  0.60371837706E+03  0.61301564634E+03  0.00000000000E+00 0. -1.
         11    1    1    2    0    0 -0.62281726775E+01  0.11896629847E+02  0.16076141524E+02  0.20946652786E+02  0.00000000000E+00 0.  1.
</event>
<event>
 7    1  0.1068210E-005  0.1320260E+03  0.7561462E-02  0.1224480E+00
         -1   -1    0    0    0  501 -0.00000000000E+00  0.00000000000E+00  0.22573108766E+02  0.22573108766E+02  0.00000000000E+00 0.  1.
          1   -1    0    0  501    0  0.00000000000E+00 -0.00000000000E+00 -0.85526645186E+03  0.85526645186E+03  0.00000000000E+00 0. -1.
         23    2    1    2    0    0 -0.63282055461E+02 -0.31975564558E+01 -0.32988686193E+03  0.35845162168E+03  0.12508948997E+03 0.  0.
          5    1    3    3  502    0 -0.96389892320E+01  0.56965117496E+02 -0.11194288632E+03  0.12604212360E+03  0.41800000000E+01 0.  1.
         -5    1    3    3    0  502 -0.53643066229E+02 -0.60162673952E+02 -0.21794397562E+03  0.23240949808E+03  0.41800000000E+01 0.  1.
        -11    1    1    2    0    0 -0.22957459989E+02 -0.25700191536E+02 -0.83519878095E+02  0.90349957671E+02  0.00000000000E+00 0. -1.
         11    1    1    2    0    0  0.86239515450E+02  0.28897747991E+02 -0.41928660307E+03  0.42903798127E+03  0.00000000000E+00 0.  1.
</event>
<event>
 7    1  0.1068210E-005  0.1521792E+03  0.7561462E-02  0.1197821E+00
         -4   -1    0    0    0  501 -0.00000000000E+00  0.00000000000E+00  0.48879666696E+03  0.48879666696E+03  0.00000000000E+00 0.  1.
          4   -1    0    0  501    0  0.00000000000E+00 -0.00000000000E+00 -0.70206788549E+02  0.70206788549E+02  0.00000000000E+00 0. -1.
         23    2    1    2    0    0  0.52885210247E+02  0.11749319258E+03  0.33445913170E+03  0.37962207787E+03  0.12509402648E+03 0.  0.
          5    1    3    3  502    0 -0.14942403423E+02  0.10515200356E+03  0.24111565398E+03  0.26350417505E+03  0.41800000000E+01 0.  1.
         -5    1    3    3    0  502  0.67827613671E+02  0.12341189021E+02  0.93343477712E+02  0.11611790281E+03  0.41800000000E+01 0.  1.
        -11    1    1    2    0    0 -0.49695327696E+02 -0.10597795209E+03  0.10374794773E+03  0.15641159990E+03  0.00000000000E+00 0.  1.
         11    1    1    2    0    0 -0.31898825516E+01 -0.11515240495E+02 -0.19617201012E+02  0.22969777750E+02  0.00000000000E+00 0. -1.
</event>
<event>
 7    1  0.1068210E-005  0.1130415E+03  0.7561462E-02  0.1255039E+00
         -2   -1    0    0    0  501 -0.00000000000E+00  0.00000000000E+00  0.22952181473E+02  0.22952181473E+02  0.00000000000E+00 0.  1.
          2   -1    0    0  501    0  0.00000000000E+00 -0.00000000000E+00 -0.69723129950E+03  0.69723129950E+03  0.00000000000E+00 0. -1.
         23    2    1    2    0    0  0.15364217527E+02  0.38690010699E+02 -0.22901898783E+03  0.26425877332E+03  0.12510006548E+03 0.  0.
          5    1    3    3  502    0 -0.26552272814E+02 -0.35477557053E+02 -0.57621634700E+02  0.72810750797E+02  0.41800000000E+01 0.  1.
         -5    1    3    3    0  502  0.41916490341E+02  0.74167567752E+02 -0.17139735313E+03  0.19144802253E+03  0.41800000000E+01 0.  1.
        -11    1    1    2    0    0 -0.45966401503E+02 -0.45769407581E+02 -0.25686152213E+03  0.26492563161E+03  0.00000000000E+00 0.  1.
         11    1    1    2    0    0  0.30602183976E+02  0.70793968825E+01 -0.18839860807E+03  0.19099907603E+03  0.00000000000E+00 0. -1.
</event>
<event>
 7    1  0.1068210E-005  0.1673843E+03  0.7561462E-02  0.1180603E+00
         -2   -1    0    0    0  501 -0.00000000000E+00  0.00000000000E+00  0.70490771219E+03  0.70490771219E+03  0.00000000000E+00 0.  1.
          2   -1    0    0  501    0  0.00000000000E+00 -0.00000000000E+00 -0.42574467192E+02  0.42574467192E+02  0.00000000000E+00 0. -1.
         23    2    1    2    0    0 -0.13371061688E+03 -0.32022762180E+01  0.38695365199E+03  0.42811082766E+03  0.12512780797E+03 0.  0.
          5    1    3    3  502    0 -0.49350099070E+02  0.59106373577E+02  0.14127261986E+03  0.16094850480E+03  0.41800000000E+01 0.  1.
         -5    1    3    3    0  502 -0.84360517813E+02 -0.62308649795E+02  0.24568103213E+03  0.26716232286E+03  0.41800000000E+01 0.  1.
        -11    1    1    2    0    0  0.19788070852E+02  0.29741150107E+02  0.26842384013E+02  0.44683524226E+02  0.00000000000E+00 0.  1.
         11    1    1    2    0    0  0.11392254603E+03 -0.26538873889E+02  0.24853720899E+03  0.27468782749E+03  0.00000000000E+00 0. -1.
</event>
<event>
 7    1  0.1068210E-005  0.1820218E+03  0.7561462E-02  0.1165861E+00
          2   -1    0    0  501    0  0.00000000000E+00  0.00000000000E+00  0.16584111174E+03  0.16584111174E+03  0.00000000000E+00 0. -1.
         -2   -1    0    0    0  501 -0.00000000000E+00 -0.00000000000E+00 -0.24994283861E+03  0.24994283861E+03  0.00000000000E+00 0.  1.
         23    2    1    2    0    0 -0.94672796876E+02 -0.13247138399E+03 -0.10026368847E+03  0.22849902163E+03  0.12508952641E+03 0.  0.
          5    1    3    3  502    0 -0.45899669446E+02 -0.14354921690E+03 -0.94606129707E+02  0.17799143099E+03  0.41800000000E+01 0. -1.
         -5    1    3    3    0  502 -0.48773127430E+02  0.11077832911E+02 -0.56575587619E+01  0.50507590642E+02  0.41800000000E+01 0. -1.
        -11    1    1    2    0    0  0.47276268284E+02  0.74090531570E+02 -0.36827016605E+02  0.95292610223E+02  0.00000000000E+00 0.  1.
         11    1    1    2    0    0  0.47396528592E+02  0.58380852420E+02  0.52988978202E+02  0.91992318499E+02  0.00000000000E+00 0. -1.
</event>
<event>
 7    1  0.1068210E-005  0.1368825E+03  0.7561462E-02  0.1217586E+00
         -2   -1    0    0    0  501 -0.00000000000E+00  0.00000000000E+00  0.12042554642E+03  0.12042554642E+03  0.00000000000E+00 0.  1.
          2   -1    0    0  501    0  0.00000000000E+00 -0.00000000000E+00 -0.20085941856E+03  0.20085941856E+03  0.00000000000E+00 0. -1.
         23    2    1    2    0    0 -0.45106158210E+02 -0.75050723209E+02  0.25740520399E+02  0.15580612293E+03  0.12627666843E+03 0.  0.
          5    1    3    3  502    0 -0.88964230721E+02 -0.50496285277E+02  0.95129016175E+01  0.10282255040E+03  0.41800000000E+01 0. -1.
         -5    1    3    3    0  502  0.43858072512E+02 -0.24554437932E+02  0.16227618782E+02  0.52983572529E+02  0.41800000000E+01 0.  1.
        -11    1    1    2    0    0  0.65393876553E+02  0.76458770858E+02 -0.65639322141E+02  0.12012836194E+03  0.00000000000E+00 0.  1.
         11    1    1    2    0    0 -0.20287718343E+02 -0.14080476490E+01 -0.40535070401E+02  0.45350480110E+02  0.00000000000E+00 0. -1.
</event>
<event>
 7    1  0.1068210E-005  0.1346053E+03  0.7561462E-02  0.1220778E+00
         -1   -1    0    0    0  501 -0.00000000000E+00  0.00000000000E+00  0.75167720560E+02  0.75167720560E+02  0.00000000000E+00 0.  1.
          1   -1    0    0  501    0  0.00000000000E+00 -0.00000000000E+00 -0.32099706955E+03  0.32099706955E+03  0.00000000000E+00 0. -1.
         23    2    1    2    0    0 -0.90599965835E+02  0.55916697682E+02 -0.94588025722E+02  0.18955404407E+03  0.12509520424E+03 0.  0.
          5    1    3    3  502    0 -0.77308308571E+02 -0.23840590262E+02 -0.63089047174E+02  0.10267740059E+03  0.41800000000E+01 0. -1.
         -5    1    3    3    0  502 -0.13291657264E+02  0.79757287944E+02 -0.31498978547E+02  0.86876643481E+02  0.41800000000E+01 0. -1.
        -11    1    1    2    0    0  0.34426255075E+02 -0.28682933601E+02 -0.13480316903E+03  0.14205552471E+03  0.00000000000E+00 0. -1.
         11    1    1    2    0    0  0.56173710760E+02 -0.27233764081E+02 -0.16438154234E+02  0.64555221332E+02  0.00000000000E+00 0.  1.
</event>
<event>
 7    1  0.1068210E-005  0.1031364E+03  0.7561462E-02  0.1273835E+00
         -1   -1    0    0    0  501 -0.00000000000E+00  0.00000000000E+00  0.10179215390E+03  0.10179215390E+03  0.00000000000E+00 0.  1.
          1   -1    0    0  501    0  0.00000000000E+00 -0.00000000000E+00 -0.43028106972E+03  0.43028106972E+03  0.00000000000E+00 0. -1.
         23    2    1    2    0    0  0.83131897122E+02  0.23708137648E+02  0.27422978724E+02  0.15450754001E+03  0.12509025561E+03 0.  0.
          5    1    3    3  502    0  0.29399191311E+02  0.89212884443E+01  0.74971732248E+02  0.81130357287E+02  0.41800000000E+01 0. -1.
         -5    1    3    3    0  502  0.53732705811E+02  0.14786849203E+02 -0.47548753524E+02  0.73377182726E+02  0.41800000000E+01 0. -1.
        -11    1    1    2    0    0 -0.14658093654E+02  0.29315960421E+02 -0.51256651023E+02  0.60840196574E+02  0.00000000000E+00 0.  1.
         11    1    1    2    0    0 -0.68473803468E+02 -0.53024098069E+02 -0.30465524351E+03  0.31672548704E+03  0.00000000000E+00 0. -1.
</event>
<event>
 7    1  0.1068210E-005  0.1131527E+03  0.7561462E-02  0.1254840E+00
          2   -1    0    0  501    0  0.00000000000E+00  0.00000000000E+00  0.42707633984E+03  0.42707633984E+03  0.00000000000E+00 0. -1.
         -2   -1    0    0    0  501 -0.00000000000E+00 -0.00000000000E+00 -0.31855130096E+02  0.31855130096E+02  0.00000000000E+00 0.  1.
         23    2    1    2    0    0  0.43413821296E+02 -0.30170016104E+01  0.26557153172E+03  0.29452157274E+03  0.11966977967E+03 0.  0.
          5    1    3    3  502    0  0.79016025225E+02  0.21915462259E+02  0.19433356965E+03  0.21096641539E+03  0.41800000000E+01 0. -1.
         -5    1    3    3    0  502 -0.35602203930E+02 -0.24932463869E+02  0.71237962068E+02  0.83555157345E+02  0.41800000000E+01 0.  1.
        -11    1    1    2    0    0 -0.41738012531E+02  0.43344393462E+02  0.68934128594E+02  0.91502525756E+02  0.00000000000E+00 0.  1.
         11    1    1    2    0    0 -0.16758087644E+01 -0.40327391852E+02  0.60715549429E+02  0.72907371445E+02  0.00000000000E+00 0. -1.
</event>
<event>
 7    1  0.1068210E-005  0.5997199E+02  0.7561462E-02  0.1397949E+00
         -1   -1    0    0    0  501 -0.00000000000E+00  0.00000000000E+00  0.80118187997E+02  0.80118187997E+02  0.00000000000E+00 0.  1.
          1   -1    0    0  501    0  0.00000000000E+00 -0.00000000000E+00 -0.16747894360E+03  0.16747894360E+03  0.00000000000E+00 0. -1.
         23    2    1    2    0    0 -0.11684512665E+01  0.31578504894E+02 -0.25556958870E+02  0.13152367706E+03  0.12508697866E+03 0.  0.
          5    1    3    3  502    0  0.30825331756E+01  0.12073609266E+02 -0.75992273946E+02  0.77120504089E+02  0.41800000000E+01 0.  1.
         -5    1    3    3    0  502 -0.42509844421E+01  0.19504895628E+02  0.50435315076E+02  0.54403172968E+02  0.41800000000E+01 0.  1.
        -11    1    1    2    0    0  0.40796331353E+02 -0.15615126054E+02 -0.58793587834E+02  0.73245196320E+02  0.00000000000E+00 0. -1.
         11    1    1    2    0    0 -0.39627880087E+02 -0.15963378840E+02 -0.30102088932E+01  0.42828258215E+02  0.00000000000E+00 0.  1.
</event>
<event>
 7    1  0.1068210E-005  0.1106828E+03  0.7561462E-02  0.1259311E+00
         -1   -1    0    0    0  501 -0.00000000000E+00  0.00000000000E+00  0.83833152025E+02  0.83833152025E+02  0.00000000000E+00 0.  1.
          1   -1    0    0  501    0  0.00000000000E+00 -0.00000000000E+00 -0.17159876844E+03  0.17159876844E+03  0.00000000000E+00 0. -1.
         23    2    1    2    0    0  0.34802978643E+01  0.45921105329E+02 -0.28144218951E+02  0.13623738517E+03  0.12509063782E+03 0.  0.
          5    1    3    3  502    0  0.56324918811E+01  0.83402836950E+02  0.78430689818E+01  0.84063929881E+02  0.41800000000E+01 0. -1.
         -5    1    3    3    0  502 -0.21521940167E+01 -0.37481731621E+02 -0.35987287933E+02  0.52173455293E+02  0.41800000000E+01 0. -1.
        -11    1    1    2    0    0  0.15499512139E+02 -0.68594608166E+02 -0.27430338132E+02  0.75484293704E+02  0.00000000000E+00 0.  1.
         11    1    1    2    0    0 -0.18979810003E+02  0.22673502837E+02 -0.32191059334E+02  0.43710241589E+02  0.00000000000E+00 0. -1.
</event>
<event>
 7    1  0.1068210E-005  0.1571721E+03  0.7561462E-02  0.1191927E+00
         -2   -1    0    0    0  501 -0.00000000000E+00  0.00000000000E+00  0.60882466763E+02  0.60882466763E+02  0.00000000000E+00 0.  1.
          2   -1    0    0  501    0  0.00000000000E+00 -0.00000000000E+00 -0.55495073096E+03  0.55495073096E+03  0.00000000000E+00 0. -1.
         23    2    1    2    0    0  0.48216873913E+02 -0.21402614491E+02 -0.80052204814E+02  0.15760255824E+03  0.12508905640E+03 0.  0.
          5    1    3    3  502    0  0.30727720030E+02 -0.67888738564E+02 -0.15809911701E+02  0.76292196915E+02  0.41800000000E+01 0.  1.
         -5    1    3    3    0  502  0.17489153883E+02  0.46486124074E+02 -0.64242293113E+02  0.81310361328E+02  0.41800000000E+01 0.  1.
        -11    1    1    2    0    0 -0.84325741854E+02 -0.58197038758E+02 -0.16398523360E+03  0.19336205134E+03  0.00000000000E+00 0.  1.
         11    1    1    2    0    0  0.36108867940E+02  0.79599653248E+02 -0.25003082578E+03  0.26486858814E+03  0.00000000000E+00 0. -1.
</event>
<event>
 7    1  0.1068210E-005  0.1623268E+03  0.7561462E-02  0.1186095E+00
          1   -1    0    0  501    0  0.00000000000E+00  0.00000000000E+00  0.40144546144E+03  0.40144546144E+03  0.00000000000E+00 0. -1.
         -1   -1    0    0    0  501 -0.00000000000E+00 -0.00000000000E+00 -0.83394037967E+02  0.83394037967E+02  0.00000000000E+00 0.  1.
         23    2    1    2    0    0 -0.13689003019E+03  0.50720987566E+02  0.18853249303E+03  0.26926433903E+03  0.12508910583E+03 0.  0.
          5    1    3    3  502    0 -0.18897140065E+02 -0.20360359142E+02 -0.80182575968E+01  0.29213198762E+02  0.41800000000E+01 0.  1.
         -5    1    3    3    0  502 -0.11799289012E+03  0.71081346708E+02  0.19655075063E+03  0.24005114026E+03  0.41800000000E+01 0.  1.
        -11    1    1    2    0    0  0.22124662856E+02 -0.37076388792E+02  0.16380178270E+01  0.43206971830E+02  0.00000000000E+00 0.  1.
         11    1    1    2    0    0  0.11476536733E+03 -0.13644598774E+02  0.12788091262E+03  0.17236818856E+03  0.00000000000E+00 0. -1.
</event>
<event>
 7    1  0.1068210E-005  0.1704570E+03  0.7561462E-02  0.1177372E+00
         -2   -1    0    0    0  501 -0.00000000000E+00  0.00000000000E+00  0.28294440172E+02  0.28294440172E+02  0.00000000000E+00 0.  1.
          2   -1    0    0  501    0  0.00000000000E+00 -0.00000000000E+00 -0.11669956100E+04  0.11669956100E+04  0.00000000000E+00 0. -1.
         23    2    1    2    0    0  0.60044351638E+02 -0.13191631533E+03 -0.63761393211E+03  0.66573668030E+03  0.12508622094E+03 0.  0.
          5    1    3    3  502    0 -0.27219230204E+02 -0.71294634982E+02 -0.17334828866E+03  0.18944897216E+03  0.41800000000E+01 0.  1.
         -5    1    3    3    0  502  0.87263581842E+02 -0.60621680344E+02 -0.46426564345E+03  0.47628770814E+03  0.41800000000E+01 0.  1.
        -11    1    1    2    0    0  0.11518601702E+02  0.40198601255E+02 -0.24146258784E+03  0.24505670171E+03  0.00000000000E+00 0.  1.
         11    1    1    2    0    0 -0.71562953340E+02  0.91717714071E+02 -0.25962464984E+03  0.28449666812E+03  0.00000000000E+00 0. -1.
</event>
<event>
 6    1  0.1068210E-005  0.1801243E+03  0.7561462E-02  0.1167683E+00
          2   -1    0    0  501    0  0.00000000000E+00  0.00000000000E+00  0.58271987825E+02  0.58271987825E+02  0.00000000000E+00 0. -1.
         -2   -1    0    0    0  501 -0.00000000000E+00 -0.00000000000E+00 -0.83922679878E+03  0.83922679878E+03  0.00000000000E+00 0.  1.
          5    1    1    2  502    0  0.12216683217E+02  0.15440574041E+03 -0.32312103343E+03  0.35835046346E+03  0.41800000000E+01 0. -1.
         -5    1    1    2    0  502 -0.36304175451E+02 -0.22673255872E+02 -0.32918922794E+03  0.33198658087E+03  0.41800000000E+01 0.  1.
        -11    1    1    2    0    0  0.49006008150E+02 -0.29781691915E+02 -0.42361449140E+02  0.71295374193E+02  0.00000000000E+00 0. -1.
         11    1    1    2    0    0 -0.24918515916E+02 -0.10195079262E+03 -0.86283100445E+02  0.13586636808E+03  0.00000000000E+00 0.  1.
</event>
<event>
 7    1  0.1068210E-005  0.9098726E+02  0.7561462E-02  0.1300478E+00
          2   -1    0    0  501    0  0.00000000000E+00  0.00000000000E+00  0.64767600450E+03  0.64767600450E+03  0.00000000000E+00 0.  1.
         -2   -1    0    0    0  501 -0.00000000000E+00 -0.00000000000E+00 -0.20730796187E+02  0.20730796187E+02  0.00000000000E+00 0. -1.
         23    2    1    2    0    0 -0.33444300394E+02  0.86387550785E+01  0.40946502213E+03  0.42953976073E+03  0.12509857067E+03 0.  0.
          5    1    3    3  502    0  0.20785298968E+02 -0.22703366520E+02  0.31242492597E+03  0.31396540935E+03  0.41800000000E+01 0. -1.
         -5    1    3    3    0  502 -0.54229599362E+02  0.31342121599E+02  0.97040096165E+02  0.11557435138E+03  0.41800000000E+01 0. -1.
        -11    1    1    2    0    0  0.58011723162E+02 -0.19601711394E+02  0.91860826034E+02  0.11039926845E+03  0.00000000000E+00 0. -1.
         11    1    1    2    0    0 -0.24567422768E+02  0.10962956315E+02  0.12561936015E+03  0.12846777151E+03  0.00000000000E+00 0.  1.
</event>
<event>
 7    1  0.1068210E-005  0.1511736E+03  0.7561462E-02  0.1199038E+00
         -1   -1    0    0    0  501 -0.00000000000E+00  0.00000000000E+00  0.77932630670E+02  0.77932630670E+02  0.00000000000E+00 0.  1.
          1   -1    0    0  501    0  0.00000000000E+00 -0.00000000000E+00 -0.29644942214E+03  0.29644942214E+03  0.00000000000E+00 0. -1.
         23    2    1    2    0    0 -0.58109938202E+02 -0.85889869909E+02 -0.99912894117E+02  0.19074625837E+03  0.12509082301E+03 0.  0.
          5    1    3    3  502    0 -0.75501968628E+02 -0.10932889952E+03 -0.83894726815E+02  0.15719145372E+03  0.41800000000E+01 0. -1.
         -5    1    3    3    0  502  0.17392030426E+02  0.23439029607E+02 -0.16018167302E+02  0.33554804648E+02  0.41800000000E+01 0. -1.
        -11    1    1    2    0    0  0.35876183040E+02 -0.13313307113E+02 -0.37579815857E+02  0.53633825294E+02  0.00000000000E+00 0.  1.
         11    1    1    2    0    0  0.22233755161E+02  0.99203177022E+02 -0.81024081499E+02  0.13000196915E+03  0.00000000000E+00 0. -1.
</event>
<event>
 7    1  0.1068210E-005  0.1668304E+03  0.7561462E-02  0.1181194E+00
          2   -1    0    0  501    0  0.00000000000E+00  0.00000000000E+00  0.16521905144E+03  0.16521905144E+03  0.00000000000E+00 0. -1.
         -2   -1    0    0    0  501 -0.00000000000E+00 -0.00000000000E+00 -0.22706466283E+03  0.22706466283E+03  0.00000000000E+00 0.  1.
         23    2    1    2    0    0 -0.79166020998E+02  0.11606791815E+03 -0.11008968904E+03  0.21795975311E+03  0.12509074242E+03 0.  0.
          5    1    3    3  502    0 -0.21262653255E+02  0.12176470227E+03 -0.47726291569E+02  0.13256701871E+03  0.41800000000E+01 0. -1.
         -5    1    3    3    0  502 -0.57903367743E+02 -0.56967841164E+01 -0.62363397475E+02  0.85392734409E+02  0.41800000000E+01 0. -1.
        -11    1    1    2    0    0  0.81749925414E+02 -0.76383551800E+02  0.10350979187E+00  0.11188166966E+03  0.00000000000E+00 0.  1.
         11    1    1    2    0    0 -0.25839044164E+01 -0.39684366350E+02  0.48140567858E+02  0.62442291505E+02  0.00000000000E+00 0. -1.
</event>
<event>
 6    1  0.1068210E-005  0.1136774E+03  0.7561462E-02  0.1253908E+00
          2   -1    0    0  501    0  0.00000000000E+00  0.00000000000E+00  0.20313089082E+03  0.20313089082E+03  0.00000000000E+00 0. -1.
         -2   -1    0    0    0  501 -0.00000000000E+00 -0.00000000000E+00 -0.91021655109E+02  0.91021655109E+02  0.00000000000E+00 0.  1.
          5    1    1    2  502    0  0.45293161572E+02  0.49413497623E+02  0.51174976808E+02  0.84436454709E+02  0.41800000000E+01 0. -1.
         -5    1    1    2    0  502 -0.48325949910E+02  0.12266324838E+02 -0.36894539987E+02  0.62165421583E+02  0.41800000000E+01 0.  1.
        -11    1    1    2    0    0 -0.32150039310E+01 -0.85486720385E+02  0.80332708709E+02  0.11735271493E+03  0.00000000000E+00 0. -1.
         11    1    1    2    0    0  0.62477922690E+01  0.23806897924E+02  0.17496090179E+02  0.30197954708E+02  0.00000000000E+00 0.  1.
</event>
<event>
 7    1  0.1068210E-005  0.9943136E+02  0.7561462E-02  0.1281496E+00
          4   -1    0    0  501    0  0.00000000000E+00  0.00000000000E+00  0.64334574718E+03  0.64334574718E+03  0.00000000000E+00 0.  1.
         -4   -1    0    0    0  501 -0.00000000000E+00 -0.00000000000E+00 -0.18799232256E+02  0.18799232256E+02  0.00000000000E+00 0. -1.
         23    2    1    2    0    0  0.77738807004E+01  0.14459307358E+02  0.36406337020E+03  0.38530524667E+03  0.12509392788E+03 0.  0.
          5    1    3    3  502    0  0.52115435677E+02  0.27010945327E+02  0.91144995259E+02  0.10849189999E+03  0.41800000000E+01 0.  1.
         -5    1    3    3    0  502 -0.44341554977E+02 -0.12551637969E+02  0.27291837495E+03  0.27681334667E+03  0.41800000000E+01 0.  1.
        -11    1    1    2    0    0 -0.23342121916E+02 -0.49868606421E+02  0.15137165216E+03  0.16107485725E+03  0.00000000000E+00 0.  1.
         11    1    1    2    0    0  0.15568241215E+02  0.35409299062E+02  0.10911149256E+03  0.11576487552E+03  0.00000000000E+00 0. -1.
</event>
<event>
 7    1  0.1068210E-005  0.1039221E+03  0.7561462E-02  0.1272258E+00
          2   -1    0    0  501    0  0.00000000000E+00  0.00000000000E+00  0.48574124558E+03  0.48574124558E+03  0.00000000000E+00 0. -1.
         -2   -1    0    0    0  501 -0.00000000000E+00 -0.00000000000E+00 -0.29557898283E+02  0.29557898283E+02  0.00000000000E+00 0.  1.
         23    2    1    2    0    0  0.21254765224E+02 -0.14538244521E+02  0.15216252295E+03  0.19865696072E+03  0.12509208230E+03 0.  0.
          5    1    3    3  502    0  0.49938361658E+02 -0.57238379865E+02  0.88543778924E+02  0.11673707758E+03  0.41800000000E+01 0.  1.
         -5    1    3    3    0  502 -0.28683596435E+02  0.42700135343E+02  0.63618744028E+02  0.81919883145E+02  0.41800000000E+01 0.  1.
        -11    1    1    2    0    0  0.27798659206E+02  0.13948655598E+02  0.58352602617E+02  0.66123798128E+02  0.00000000000E+00 0.  1.
         11    1    1    2    0    0 -0.49053424430E+02  0.58958892366E+00  0.24566822173E+03  0.25051838502E+03  0.00000000000E+00 0. -1.
</event>
<event>
 7    1  0.1068210E-005  0.1497639E+03  0.7561462E-02  0.1200763E+00
         -1   -1    0    0    0  501 -0.00000000000E+00  0.00000000000E+00  0.18532836937E+03  0.18532836937E+03  0.00000000000E+00 0.  1.
          1   -1    0    0  501    0  0.00000000000E+00 -0.00000000000E+00 -0.19690380875E+03  0.19690380875E+03  0.00000000000E+00 0. -1.
         23    2    1    2    0    0 -0.22899230601E+02 -0.14655434716E+03  0.46686264988E+02  0.19957963858E+03  0.12509945390E+03 0.  0.
          5    1    3    3  502    0  0.28718366698E+01 -0.11524157475E+02  0.60091979522E+02  0.61396840751E+02  0.41800000000E+01 0.  1.
         -5    1    3    3    0  502 -0.25771067271E+02 -0.13503018969E+03 -0.13405714533E+02  0.13818279783E+03  0.41800000000E+01 0.  1.
        -11    1    1    2    0    0  0.10142457341E+02  0.11386448302E+03 -0.81651290289E+02  0.14048104193E+03  0.00000000000E+00 0. -1.
         11    1    1    2    0    0  0.12756773260E+02  0.32689864139E+02  0.23389585924E+02  0.42171497615E+02  0.00000000000E+00 0.  1.
</event>
<event>
 7    1  0.1068210E-005  0.1355205E+03  0.7561462E-02  0.1219487E+00
         -1   -1    0    0    0  501 -0.00000000000E+00  0.00000000000E+00  0.73625232549E+02  0.73625232549E+02  0.00000000000E+00 0.  1.
          1   -1    0    0  501    0  0.00000000000E+00 -0.00000000000E+00 -0.46808623625E+03  0.46808623625E+03  0.00000000000E+00 0. -1.
         23    2    1    2    0    0 -0.24359654953E+00  0.10504454409E+03 -0.51352614692E+02  0.17123597773E+03  0.12510097303E+03 0.  0.
          5    1    3    3  502    0 -0.37821580411E+02  0.34985494414E+02  0.28037807772E+02  0.58805168385E+02  0.41800000000E+01 0. -1.
         -5    1    3    3    0  502  0.37577983862E+02  0.70059049672E+02 -0.79390422463E+02  0.11243080935E+03  0.41800000000E+01 0. -1.
        -11    1    1    2    0    0  0.44418243152E+02 -0.33414147958E+02 -0.13809960293E+03  0.14886566406E+03  0.00000000000E+00 0.  1.
         11    1    1    2    0    0 -0.44174646603E+02 -0.71630396127E+02 -0.20500878609E+03  0.22160982700E+03  0.00000000000E+00 0. -1.
</event>
<event>
 7    1  0.1068210E-005  0.7564377E+02  0.7561462E-02  0.1341889E+00
         -1   -1    0    0    0  501 -0.00000000000E+00  0.00000000000E+00  0.40080746485E+02  0.40080746485E+02  0.00000000000E+00 0.  1.
          1   -1    0    0  501    0  0.00000000000E+00 -0.00000000000E+00 -0.37949632842E+03  0.37949632842E+03  0.00000000000E+00 0. -1.
         23    2    1    2    0    0 -0.34024432568E+02  0.43439592102E+02 -0.15768265475E+03  0.20869878922E+03  0.12508678922E+03 0.  0.
          5    1    3    3  502    0  0.79813960915E+00  0.19553635752E+02 -0.16450710754E+03  0.16571977109E+03  0.41800000000E+01 0.  1.
         -5    1    3    3    0  502 -0.34822572178E+02  0.23885956349E+02  0.68244527871E+01  0.42979018132E+02  0.41800000000E+01 0.  1.
        -11    1    1    2    0    0  0.55680172312E+02 -0.28653433045E+02 -0.17176795888E+03  0.18282650933E+03  0.00000000000E+00 0. -1.
         11    1    1    2    0    0 -0.21655739743E+02 -0.14786159056E+02 -0.99649682935E+01  0.28051776353E+02  0.00000000000E+00 0.  1.
</event>
<event>
 7    1  0.1068210E-005  0.1517777E+03  0.7561462E-02  0.1198306E+00
         -1   -1    0    0    0  501 -0.00000000000E+00  0.00000000000E+00  0.17699205165E+03  0.17699205165E+03  0.00000000000E+00 0.  1.
          1   -1    0    0  501    0  0.00000000000E+00 -0.00000000000E+00 -0.14545880861E+03  0.14545880861E+03  0.00000000000E+00 0. -1.
         23    2    1    2    0    0  0.31871530164E+02 -0.11024258113E+03  0.55683039154E+02  0.17370674400E+03  0.11791611821E+03 0.  0.
          5    1    3    3  502    0 -0.99607186370E+01 -0.11670455505E+03  0.58669486696E+02  0.13106773117E+03  0.41800000000E+01 0. -1.
         -5    1    3    3    0  502  0.41832248801E+02  0.64619739133E+01 -0.29864475423E+01  0.42639012835E+02  0.41800000000E+01 0.  1.
        -11    1    1    2    0    0 -0.61438586874E+02  0.62355226257E+02 -0.91694794409E-01  0.87537892404E+02  0.00000000000E+00 0.  1.
         11    1    1    2    0    0  0.29567056709E+02  0.47887354876E+02 -0.24058101317E+02  0.61206223854E+02  0.00000000000E+00 0. -1.
</event>
<event>
 7    1  0.1068210E-005  0.1087046E+03  0.7561462E-02  0.1262988E+00
          1   -1    0    0  501    0  0.00000000000E+00  0.00000000000E+00  0.57918781864E+03  0.57918781864E+03  0.00000000000E+00 0. -1.
         -1   -1    0    0    0  501 -0.00000000000E+00 -0.00000000000E+00 -0.26983417584E+02  0.26983417584E+02  0.00000000000E+00 0.  1.
         23    2    1    2    0    0 -0.14838739094E+02 -0.16486684615E+01  0.20826833570E+03  0.24340422417E+03  0.12508801063E+03 0.  0.
          5    1    3    3  502    0  0.32396247609E+02  0.43392621397E+02  0.57679446571E+02  0.79226431244E+02  0.41800000000E+01 0.  1.
         -5    1    3    3    0  502 -0.47234986704E+02 -0.45041289859E+02  0.15058888913E+03  0.16417779292E+03  0.41800000000E+01 0.  1.
        -11    1    1    2    0    0  0.87379854032E+01 -0.47435178136E+02  0.26687161962E+03  0.27119533528E+03  0.00000000000E+00 0. -1.
         11    1    1    2    0    0  0.61007536911E+01  0.49083846598E+02  0.77064445736E+02  0.91571676784E+02  0.00000000000E+00 0.  1.
</event>
<event>
 7    1  0.1068210E-005  0.3722672E+03  0.7561462E-02  0.1053829E+00
         -2   -1    0    0    0  501 -0.00000000000E+00  0.00000000000E+00  0.20266175646E+04  0.20266175646E+04  0.00000000000E+00 0.  1.
          2   -1    0    0  501    0  0.00000000000E+00 -0.00000000000E+00 -0.13513420579E+03  0.13513420579E+03  0.00000000000E+00 0. -1.
         23    2    1    2    0    0 -0.42871822335E+02 -0.35952173659E+03  0.16973860327E+04  0.17400749183E+04  0.12508998847E+03 0.  0.
          5    1    3    3  502    0  0.59957151058E+01 -0.25521898556E+03  0.94382733233E+03  0.97775261946E+03  0.41800000000E+01 0.  1.
         -5    1    3    3    0  502 -0.48867537441E+02 -0.10430275103E+03  0.75355870035E+03  0.76232229887E+03  0.41800000000E+01 0.  1.
        -11    1    1    2    0    0  0.69734499114E+02  0.30858154801E+03  0.17108317028E+03  0.35965945462E+03  0.00000000000E+00 0. -1.
         11    1    1    2    0    0 -0.26862676779E+02  0.50940188581E+02  0.23014155838E+02  0.62017397441E+02  0.00000000000E+00 0.  1.
</event>
<event>
 7    1  0.1575019E-005  0.1225738E+03  0.7561462E-02  0.1238911E+00
          1   -1    0    0  501    0  0.00000000000E+00  0.00000000000E+00  0.21031917101E+03  0.21031917101E+03  0.00000000000E+00 0. -1.
         -1   -1    0    0    0  501 -0.00000000000E+00 -0.00000000000E+00 -0.10694385198E+03  0.10694385198E+03  0.00000000000E+00 0.  1.
         23    2    1    2    0    0 -0.29368335927E+02  0.92603778825E+02  0.22031248728E+02  0.15990898901E+03  0.12509016683E+03 0.  0.
          5    1    3    3  502    0 -0.45049308997E+02  0.95153763364E+02 -0.26524607060E+02  0.10864946435E+03  0.41800000000E+01 0. -1.
         -5    1    3    3    0  502  0.15680973070E+02 -0.25499845387E+01  0.48555855788E+02  0.51259524665E+02  0.41800000000E+01 0. -1.
        -11    1    1    2    0    0  0.50614585381E+02 -0.33875780525E+02  0.86491052375E+01  0.61515947370E+02  0.00000000000E+00 0.  1.
         11    1    1    2    0    0 -0.21246249454E+02 -0.58727998300E+02  0.72694965062E+02  0.95838086613E+02  0.00000000000E+00 0. -1.
</event>
<event>
 7    1  0.1068210E-005  0.1254502E+03  0.7561462E-02  0.1234367E+00
         -2   -1    0    0    0  501 -0.00000000000E+00  0.00000000000E+00  0.16394580818E+03  0.16394580818E+03  0.00000000000E+00 0.  1.
          2   -1    0    0  501    0  0.00000000000E+00 -0.00000000000E+00 -0.11950709267E+03  0.11950709267E+03  0.00000000000E+00 0. -1.
         23    2    1    2    0    0 -0.37889891937E+01 -0.79258937040E+02  0.59912941562E+02  0.15978655927E+03  0.12508336587E+03 0.  0.
          5    1    3    3  502    0 -0.51528722514E+02  0.14449124889E+01  0.35733919548E+02  0.62862408658E+02  0.41800000000E+01 0.  1.
         -5    1    3    3    0  502  0.47739733320E+02 -0.80703849529E+02  0.24179022014E+02  0.96924150612E+02  0.41800000000E+01 0.  1.
        -11    1    1    2    0    0 -0.32314242724E+02  0.28854375641E+02  0.24622234562E+02  0.49830108481E+02  0.00000000000E+00 0.  1.
         11    1    1    2    0    0  0.36103231917E+02  0.50404561400E+02 -0.40096460609E+02  0.73836233098E+02  0.00000000000E+00 0. -1.
</event>
<event>
 6    1  0.1068210E-005  0.1306015E+03  0.7561462E-02  0.1226566E+00
          2   -1    0    0  501    0  0.00000000000E+00  0.00000000000E+00  0.22566548804E+03  0.22566548804E+03  0.00000000000E+00 0. -1.
         -2   -1    0    0    0  501 -0.00000000000E+00 -0.00000000000E+00 -0.90161885191E+02  0.90161885191E+02  0.00000000000E+00 0.  1.
          5    1    1    2  502    0 -0.25051625046E+02 -0.62777914400E+02  0.25973161495E+01  0.67770708312E+02  0.41800000000E+01 0. -1.
         -5    1    1    2    0  502 -0.55779001081E+02  0.62515113076E+02  0.32852811581E+02  0.90090043586E+02  0.41800000000E+01 0.  1.
        -11    1    1    2    0    0  0.53890625087E+01 -0.28389432086E+02  0.62706655040E+02  0.69044380185E+02  0.00000000000E+00 0. -1.
         11    1    1    2    0    0  0.75441563619E+02  0.28652233411E+02  0.37346820078E+02  0.88922241147E+02  0.00000000000E+00 0.  1.
</event>
<event>
 7    1  0.1068210E-005  0.1841020E+03  0.7561462E-02  0.1163891E+00
         -2   -1    0    0    0  501 -0.00000000000E+00  0.00000000000E+00  0.14324696382E+03  0.14324696382E+03  0.00000000000E+00 0. -1.
          2   -1    0    0  501    0  0.00000000000E+00 -0.00000000000E+00 -0.25440041286E+03  0.25440041286E+03  0.00000000000E+00 0.  1.
         23    2    1    2    0    0 -0.13968503301E+03 -0.69812309242E+02 -0.51940197911E+02  0.20671233313E+03  0.12508612049E+03 0.  0.
          5    1    3    3  502    0 -0.14866262643E+03 -0.86871408143E+02 -0.63829024220E+02  0.18368134032E+03  0.41800000000E+01 0.  1.
         -5    1    3    3    0  502  0.89775934146E+01  0.17059098901E+02  0.11888826309E+02  0.23030992810E+02  0.41800000000E+01 0.  1.
        -11    1    1    2    0    0  0.14665574006E+03  0.49523961418E+02 -0.66228165870E+02  0.16836477898E+03  0.00000000000E+00 0.  1.
         11    1    1    2    0    0 -0.69707070458E+01  0.20288347824E+02  0.70149147403E+01  0.22570264574E+02  0.00000000000E+00 0. -1.
</event>
<event>
 7    1  0.1068210E-005  0.1195204E+03  0.7561462E-02  0.1243890E+00
          1   -1    0    0  501    0  0.00000000000E+00  0.00000000000E+00  0.18575657628E+03  0.18575657628E+03  0.00000000000E+00 0. -1.
         -1   -1    0    0    0  501 -0.00000000000E+00 -0.00000000000E+00 -0.11037279018E+03  0.11037279018E+03  0.00000000000E+00 0.  1.
         23    2    1    2    0    0  0.23390394121E+02  0.56409424987E+02 -0.38600727464E+02  0.13904486614E+03  0.11880372416E+03 0.  0.
          5    1    3    3  502    0 -0.36261001524E+02 -0.13541275163E+02  0.79597180368E+00  0.38940112168E+02  0.41800000000E+01 0. -1.
         -5    1    3    3    0  502  0.59651395645E+02  0.69950700150E+02 -0.39396699268E+02  0.10010475397E+03  0.41800000000E+01 0.  1.
        -11    1    1    2    0    0 -0.57787547590E+02 -0.34607091434E+02  0.70241796287E+02  0.97318864459E+02  0.00000000000E+00 0. -1.
         11    1    1    2    0    0  0.34397153469E+02 -0.21802333553E+02  0.43742717281E+02  0.59765635864E+02  0.00000000000E+00 0.  1.
</event>
<event>
 7    1  0.1068210E-005  0.6952980E+02  0.7561462E-02  0.1361699E+00
          2   -1    0    0  501    0  0.00000000000E+00  0.00000000000E+00  0.20229410315E+03  0.20229410315E+03  0.00000000000E+00 0. -1.
         -2   -1    0    0    0  501 -0.00000000000E+00 -0.00000000000E+00 -0.76835133326E+02  0.76835133326E+02  0.00000000000E+00 0.  1.
         23    2    1    2    0    0  0.29786256363E+02  0.37278018133E+02  0.76073373057E+02  0.15398845533E+03  0.12509362327E+03 0.  0.
          5    1    3    3  502    0 -0.11489158284E+02  0.43087486651E+01 -0.31504525624E+02  0.34067192546E+02  0.41800000000E+01 0. -1.
         -5    1    3    3    0  502  0.41275414647E+02  0.32969269467E+02  0.10757789868E+03  0.11992126279E+03  0.41800000000E+01 0. -1.
        -11    1    1    2    0    0 -0.36555500354E+02 -0.48054872159E+02 -0.12754347357E+02  0.61711009722E+02  0.00000000000E+00 0.  1.
         11    1    1    2    0    0  0.67692439909E+01  0.10776854027E+02  0.62139944120E+02  0.63429771419E+02  0.00000000000E+00 0. -1.
</event>
<event>
 7    1  0.1068210E-005  0.1578113E+03  0.7561462E-02  0.1191190E+00
          1   -1    0    0  501    0  0.00000000000E+00  0.00000000000E+00  0.20889402009E+03  0.20889402009E+03  0.00000000000E+00 0. -1.
         -1   -1    0    0    0  501 -0.00000000000E+00 -0.00000000000E+00 -0.14327651459E+03  0.14327651459E+03  0.00000000000E+00 0.  1.
         23    2    1    2    0    0 -0.12520384322E+03 -0.28275751834E+02 -0.57159353861E+01  0.17932041230E+03  0.12509043868E+03 0.  0.
          5    1    3    3  502    0  0.20419355978E+02  0.16685080712E+02  0.89820848936E+00  0.26713689289E+02  0.41800000000E+01 0. -1.
         -5    1    3    3    0  502 -0.14562319920E+03 -0.44960832546E+02 -0.66141438755E+01  0.15260672301E+03  0.41800000000E+01 0. -1.
        -11    1    1    2    0    0  0.11114965488E+03  0.40030781982E+02  0.21927547842E+02  0.12015625926E+03  0.00000000000E+00 0.  1.
         11    1    1    2    0    0  0.14054188344E+02 -0.11755030148E+02  0.49405893043E+02  0.52693863126E+02  0.00000000000E+00 0. -1.
</event>
<event>
 7    1  0.1068210E-005  0.1706797E+03  0.7561462E-02  0.1177141E+00
          2   -1    0    0  501    0  0.00000000000E+00  0.00000000000E+00  0.10282191157E+04  0.10282191157E+04  0.00000000000E+00 0. -1.
         -2   -1    0    0    0  501 -0.00000000000E+00 -0.00000000000E+00 -0.39110855207E+02  0.39110855207E+02  0.00000000000E+00 0.  1.
         23    2    1    2    0    0  0.67342880648E+02  0.11621754859E+03  0.24689759792E+03  0.30764835692E+03  0.12508998954E+03 0.  0.
          5    1    3    3  502    0  0.80178622774E+02  0.18155417415E+02  0.88490206643E+02  0.12085619472E+03  0.41800000000E+01 0. -1.
         -5    1    3    3    0  502 -0.12835742126E+02  0.98062131179E+02  0.15840739128E+03  0.18679216220E+03  0.41800000000E+01 0. -1.
        -11    1    1    2    0    0 -0.16087549917E+02  0.13232091190E+02  0.63209557856E+02  0.66553329774E+02  0.00000000000E+00 0.  1.
         11    1    1    2    0    0 -0.51255330732E+02 -0.12944963978E+03  0.67900110472E+03  0.69312828421E+03  0.00000000000E+00 0. -1.
</event>
<event>
 6    1  0.1068210E-005  0.1375475E+03  0.7561462E-02  0.1216668E+00
         -1   -1    0    0    0  501 -0.00000000000E+00  0.00000000000E+00  0.23010950532E+03  0.23010950532E+03  0.00000000000E+00 0.  1.
          1   -1    0    0  501    0  0.00000000000E+00 -0.00000000000E+00 -0.22121774963E+03  0.22121774963E+03  0.00000000000E+00 0. -1.
          5    1    1    2  502    0 -0.27052390956E+01  0.36669945677E+02 -0.26471785703E+02  0.45499792008E+02  0.41800000000E+01 0. -1.
         -5    1    1    2    0  502 -0.42161827928E+01 -0.67553788470E+02  0.15212688123E+03  0.16655735027E+03  0.41800000000E+01 0.  1.
        -11    1    1    2    0    0  0.22340311926E+02 -0.67287706096E+02  0.16732736628E+02  0.72847164692E+02  0.00000000000E+00 0.  1.
         11    1    1    2    0    0 -0.15418890037E+02  0.98171548889E+02 -0.13349607647E+03  0.16642294798E+03  0.00000000000E+00 0. -1.
</event>
<event>
 6    1  0.1068210E-005  0.9966711E+02  0.7561462E-02  0.1280998E+00
          1   -1    0    0  501    0  0.00000000000E+00  0.00000000000E+00  0.64661366482E+03  0.64661366482E+03  0.00000000000E+00 0. -1.
         -1   -1    0    0    0  501 -0.00000000000E+00 -0.00000000000E+00 -0.47598580434E+02  0.47598580434E+02  0.00000000000E+00 0.  1.
          5    1    1    2  502    0  0.17157650355E+02  0.51280136148E+02  0.15799189958E+03  0.16704176143E+03  0.41800000000E+01 0. -1.
         -5    1    1    2    0  502 -0.19977202614E+02  0.27649851428E+02 -0.28134757373E+02  0.44414410732E+02  0.41800000000E+01 0.  1.
        -11    1    1    2    0    0  0.26542715580E+02  0.17850398696E+01  0.71313578236E+02  0.76113918297E+02  0.00000000000E+00 0.  1.
         11    1    1    2    0    0 -0.23723163321E+02 -0.80715027447E+02  0.39784436394E+03  0.40664215479E+03  0.00000000000E+00 0. -1.
</event>
<event>
 7    1  0.1068210E-005  0.2603408E+03  0.7561462E-02  0.1106939E+00
          2   -1    0    0  501    0  0.00000000000E+00  0.00000000000E+00  0.80055074701E+02  0.80055074701E+02  0.00000000000E+00 0. -1.
         -2   -1    0    0    0  501 -0.00000000000E+00 -0.00000000000E+00 -0.97942326658E+03  0.97942326658E+03  0.00000000000E+00 0.  1.
         23    2    1    2    0    0 -0.25621154399E+03 -0.31552226977E+02 -0.46495583859E+03  0.54631759455E+03  0.12505632320E+03 0.  0.
          5    1    3    3  502    0 -0.19602746357E+03 -0.37523736085E+02 -0.43516357151E+03  0.47876884152E+03  0.41800000000E+01 0. -1.
         -5    1    3    3    0  502 -0.60184080427E+02  0.59715091077E+01 -0.29792267081E+02  0.67548753029E+02  0.41800000000E+01 0. -1.
        -11    1    1    2    0    0  0.90295027699E+02 -0.53614866743E+01 -0.23101271617E+03  0.24809033153E+03  0.00000000000E+00 0.  1.
         11    1    1    2    0    0  0.16591651630E+03  0.36913713652E+02 -0.20339963713E+03  0.26507041521E+03  0.00000000000E+00 0. -1.
</event>
<event>
 7    1  0.1068210E-005  0.1189728E+03  0.7561462E-02  0.1244801E+00
          1   -1    0    0  501    0  0.00000000000E+00  0.00000000000E+00  0.38142317187E+03  0.38142317187E+03  0.00000000000E+00 0. -1.
         -1   -1    0    0    0  501 -0.00000000000E+00 -0.00000000000E+00 -0.66908185028E+02  0.66908185028E+02  0.00000000000E+00 0.  1.
         23    2    1    2    0    0  0.20523794406E+02 -0.68549995170E+02  0.38815802608E+02  0.14924364110E+03  0.12508664958E+03 0.  0.
          5    1    3    3  502    0  0.34740733327E+02 -0.90715641216E+02  0.60809617897E+02  0.11468011223E+03  0.41800000000E+01 0.  1.
         -5    1    3    3    0  502 -0.14216938922E+02  0.22165646046E+02 -0.21993815289E+02  0.34563528869E+02  0.41800000000E+01 0.  1.
        -11    1    1    2    0    0  0.27351814153E+02  0.59282625004E+02  0.13053499180E+03  0.14595182578E+03  0.00000000000E+00 0. -1.
         11    1    1    2    0    0 -0.47875608559E+02  0.92673701653E+01  0.14516419243E+03  0.15313589001E+03  0.00000000000E+00 0.  1.
</event>
<event>
 7    1  0.1068210E-005  0.8271287E+02  0.7561462E-02  0.1321524E+00
         -1   -1    0    0    0  501 -0.00000000000E+00  0.00000000000E+00  0.36343138240E+03  0.36343138240E+03  0.00000000000E+00 0.  1.
          1   -1    0    0  501    0  0.00000000000E+00 -0.00000000000E+00 -0.32595148391E+02  0.32595148391E+02  0.00000000000E+00 0. -1.
         23    2    1    2    0    0  0.27419392186E+01  0.58450085335E+01  0.18789368779E+03  0.22581859558E+03  0.12509323659E+03 0.  0.
          5    1    3    3  502    0  0.38726952640E+02  0.22408220567E+01  0.18525309091E+03  0.18931713666E+03  0.41800000000E+01 0.  1.
         -5    1    3    3    0  502 -0.35985013422E+02  0.36041864768E+01  0.26405968882E+01  0.36501458917E+02  0.41800000000E+01 0.  1.
        -11    1    1    2    0    0 -0.40471973563E+02 -0.25121287484E+02  0.94671941545E+02  0.10598035783E+03  0.00000000000E+00 0.  1.
         11    1    1    2    0    0  0.37730034344E+02  0.19276278951E+02  0.48270604671E+02  0.64227577388E+02  0.00000000000E+00 0. -1.
</event>
<event>
 7    1  0.1068210E-005  0.1209740E+03  0.7561462E-02  0.1241499E+00
         -1   -1    0    0    0  501 -0.00000000000E+00  0.00000000000E+00  0.48716886577E+02  0.48716886577E+02  0.00000000000E+00 0.  1.
          1   -1    0    0  501    0  0.00000000000E+00 -0.00000000000E+00 -0.40207315049E+03  0.40207315049E+03  0.00000000000E+00 0. -1.
         23    2    1    2    0    0  0.53823785253E+02  0.68941057500E+02 -0.16932635070E+03  0.22796707726E+03  0.12509079105E+03 0.  0.
          5    1    3    3  502    0 -0.30076900248E+02 -0.14112202797E+02 -0.27076082690E+02  0.43062290350E+02  0.41800000000E+01 0.  1.
         -5    1    3    3    0  502  0.83900685501E+02  0.83053260297E+02 -0.14225026801E+03  0.18490478691E+03  0.41800000000E+01 0.  1.
        -11    1    1    2    0    0 -0.49550623199E+01 -0.22073122783E+02  0.39996809843E+01  0.22973307118E+02  0.00000000000E+00 0.  1.
         11    1    1    2    0    0 -0.48868722933E+02 -0.46867934717E+02 -0.18802959420E+03  0.19984965269E+03  0.00000000000E+00 0. -1.
</event>
<event>
 7    1  0.1068210E-005  0.1166571E+03  0.7561462E-02  0.1248716E+00
          2   -1    0    0  501    0  0.00000000000E+00  0.00000000000E+00  0.56713418552E+03  0.56713418552E+03  0.00000000000E+00 0.  1.
         -2   -1    0    0    0  501 -0.00000000000E+00 -0.00000000000E+00 -0.25423980825E+02  0.25423980825E+02  0.00000000000E+00 0. -1.
         23    2    1    2    0    0 -0.48147883428E+02 -0.37300821620E+01  0.35242179006E+03  0.37706818231E+03  0.12508862381E+03 0.  0.
          5    1    3    3  502    0 -0.85074680352E+02  0.20331867093E+02  0.26466848275E+03  0.27877941857E+03  0.41800000000E+01 0.  1.
         -5    1    3    3    0  502  0.36926796924E+02 -0.24061949255E+02  0.87753307313E+02  0.98288763739E+02  0.41800000000E+01 0.  1.
        -11    1    1    2    0    0  0.55376988523E+02  0.37537101274E+02  0.14138966812E+03  0.15641829523E+03  0.00000000000E+00 0.  1.
         11    1    1    2    0    0 -0.72291050949E+01 -0.33807019112E+02  0.47898746504E+02  0.59071688806E+02  0.00000000000E+00 0. -1.
</event>
<event>
 7    1  0.1068210E-005  0.1256988E+03  0.7561462E-02  0.1233981E+00
         -2   -1    0    0    0  501 -0.00000000000E+00  0.00000000000E+00  0.12943799297E+04  0.12943799297E+04  0.00000000000E+00 0.  1.
          2   -1    0    0  501    0  0.00000000000E+00 -0.00000000000E+00 -0.20431865695E+02  0.20431865695E+02  0.00000000000E+00 0. -1.
         23    2    1    2    0    0  0.29774434536E+02  0.72576065467E+02  0.10607302452E+04  0.10709555567E+04  0.12507337443E+03 0.  0.
          5    1    3    3  502    0  0.64677789645E+02  0.80780935116E+02  0.91405552826E+03  0.91990421083E+03  0.41800000000E+01 0.  1.
         -5    1    3    3    0  502 -0.34903355109E+02 -0.82048696494E+01  0.14667471697E+03  0.15105134585E+03  0.41800000000E+01 0.  1.
        -11    1    1    2    0    0  0.34329733707E+01 -0.78008161112E+02  0.18163380988E+03  0.19770659928E+03  0.00000000000E+00 0.  1.
         11    1    1    2    0    0 -0.33207407906E+02  0.54320956451E+01  0.31584008892E+02  0.46149639442E+02  0.00000000000E+00 0. -1.
</event>
<event>
 7    1  0.1068210E-005  0.1214282E+03  0.7561462E-02  0.1240759E+00
          1   -1    0    0  501    0  0.00000000000E+00  0.00000000000E+00  0.18376062049E+02  0.18376062049E+02  0.00000000000E+00 0. -1.
         -1   -1    0    0    0  501 -0.00000000000E+00 -0.00000000000E+00 -0.11192412931E+04  0.11192412931E+04  0.00000000000E+00 0.  1.
         23    2    1    2    0    0 -0.31460717080E+02  0.55888598824E+02 -0.87241435830E+03  0.88366693824E+03  0.12508850058E+03 0.  0.
          5    1    3    3  502    0 -0.72341761530E+02  0.16015267790E+01 -0.44615725542E+03  0.45200626579E+03  0.41800000000E+01 0.  1.
         -5    1    3    3    0  502  0.40881044450E+02  0.54287072045E+02 -0.42625710288E+03  0.43166067245E+03  0.41800000000E+01 0.  1.
        -11    1    1    2    0    0  0.20265521679E+02  0.18273196041E+02 -0.11321022149E+03  0.11645237358E+03  0.00000000000E+00 0.  1.
         11    1    1    2    0    0  0.11195195401E+02 -0.74161794865E+02 -0.11524065131E+03  0.13749804337E+03  0.00000000000E+00 0. -1.
</event>
<event>
 7    1  0.1068210E-005  0.2440695E+03  0.7561462E-02  0.1117111E+00
          1   -1    0    0  501    0  0.00000000000E+00  0.00000000000E+00  0.15377722078E+03  0.15377722078E+03  0.00000000000E+00 0. -1.
         -1   -1    0    0    0  501 -0.00000000000E+00 -0.00000000000E+00 -0.45660735474E+03  0.45660735474E+03  0.00000000000E+00 0.  1.
         23    2    1    2    0    0 -0.18571362726E+03 -0.13595006497E+03 -0.21798097408E+03  0.34078568759E+03  0.12508880161E+03 0.  0.
          5    1    3    3  502    0 -0.12382166624E+03 -0.19848825320E+02 -0.73858953872E+02  0.14559669764E+03  0.41800000000E+01 0. -1.
         -5    1    3    3    0  502 -0.61891961025E+02 -0.11610123965E+03 -0.14412202021E+03  0.19518898995E+03  0.41800000000E+01 0. -1.
        -11    1    1    2    0    0  0.12686113374E+03  0.81001864353E+02  0.28514412988E+01  0.15054295068E+03  0.00000000000E+00 0. -1.
         11    1    1    2    0    0  0.58852493524E+02  0.54948200622E+02 -0.87700601187E+02  0.11905593725E+03  0.00000000000E+00 0.  1.
</event>
<event>
 7    1  0.1068210E-005  0.1029706E+03  0.7561462E-02  0.1274170E+00
          2   -1    0    0  501    0  0.00000000000E+00  0.00000000000E+00  0.10813812875E+03  0.10813812875E+03  0.00000000000E+00 0. -1.
         -2   -1    0    0    0  501 -0.00000000000E+00 -0.00000000000E+00 -0.11445787633E+03  0.11445787633E+03  0.00000000000E+00 0.  1.
         23    2    1    2    0    0 -0.11289416747E+02 -0.21490198217E+02  0.57122941446E+01  0.12755310695E+03  0.12509150745E+03 0.  0.
          5    1    3    3  502    0  0.44515283218E+02  0.27506874734E+02 -0.34661197605E+01  0.52609172050E+02  0.41800000000E+01 0. -1.
         -5    1    3    3    0  502 -0.55804699965E+02 -0.48997072950E+02  0.91784139051E+01  0.74943934896E+02  0.41800000000E+01 0. -1.
        -11    1    1    2    0    0  0.41717820400E+02 -0.16657396444E+00 -0.32105491008E+02  0.52641873435E+02  0.00000000000E+00 0.  1.
         11    1    1    2    0    0 -0.30428403653E+02  0.21656772181E+02  0.20073449282E+02  0.42401024708E+02  0.00000000000E+00 0. -1.
</event>
<event>
 6    1  0.1068210E-005  0.1127641E+03  0.7561462E-02  0.1255535E+00
          1   -1    0    0  501    0  0.00000000000E+00  0.00000000000E+00  0.49229330088E+03  0.49229330088E+03  0.00000000000E+00 0. -1.
         -1   -1    0    0    0  501 -0.00000000000E+00 -0.00000000000E+00 -0.29984514859E+02  0.29984514859E+02  0.00000000000E+00 0.  1.
          5    1    1    2  502    0 -0.37248210789E+02 -0.76102454330E+02  0.12411946003E+03  0.15034003299E+03  0.41800000000E+01 0. -1.
         -5    1    1    2    0  502  0.33196270378E+02  0.50357540205E+02  0.14833038215E+03  0.16017880288E+03  0.41800000000E+01 0.  1.
        -11    1    1    2    0    0  0.65215156153E-01  0.52844947191E+02  0.16973083433E+03  0.17776711962E+03  0.00000000000E+00 0.  1.
         11    1    1    2    0    0  0.39867252550E+01 -0.27100033066E+02  0.20128109512E+02  0.33991860246E+02  0.00000000000E+00 0. -1.
</event>
<event>
 7    1  0.1068210E-005  0.1050702E+03  0.7561462E-02  0.1269981E+00
          1   -1    0    0  501    0  0.00000000000E+00  0.00000000000E+00  0.13105731487E+03  0.13105731487E+03  0.00000000000E+00 0. -1.
         -1   -1    0    0    0  501 -0.00000000000E+00 -0.00000000000E+00 -0.18216843893E+03  0.18216843893E+03  0.00000000000E+00 0.  1.
         23    2    1    2    0    0 -0.82389341872E+02  0.26761891901E+02 -0.94909562801E+02  0.17932448309E+03  0.12508094425E+03 0.  0.
          5    1    3    3  502    0 -0.43544622774E+02 -0.15021954293E+02 -0.11070616552E+03  0.11997966814E+03  0.41800000000E+01 0.  1.
         -5    1    3    3    0  502 -0.38844719098E+02  0.41783846194E+02  0.15796602716E+02  0.59344814954E+02  0.41800000000E+01 0.  1.
        -11    1    1    2    0    0  0.68730705017E+02  0.81342432248E+01  0.61380666494E+02  0.92507631816E+02  0.00000000000E+00 0. -1.
         11    1    1    2    0    0  0.13658636855E+02 -0.34896135125E+02 -0.17582227754E+02  0.41393638886E+02  0.00000000000E+00 0.  1.
</event>
<event>
 7    1  0.1068210E-005  0.1487074E+03  0.7561462E-02  0.1202070E+00
          2   -1    0    0  501    0  0.00000000000E+00  0.00000000000E+00  0.73580687374E+03  0.73580687374E+03  0.00000000000E+00 0. -1.
         -2   -1    0    0    0  501 -0.00000000000E+00 -0.00000000000E+00 -0.33952918014E+02  0.33952918014E+02  0.00000000000E+00 0.  1.
         23    2    1    2    0    0 -0.90375050593E+02 -0.46711263595E+02  0.24797314231E+03  0.29578348261E+03  0.12509035678E+03 0.  0.
          5    1    3    3  502    0  0.10805277107E+02 -0.58171991445E+02  0.89735333308E+02  0.10756689568E+03  0.41800000000E+01 0. -1.
         -5    1    3    3    0  502 -0.10118032770E+03  0.11460727850E+02  0.15823780901E+03  0.18821658693E+03  0.41800000000E+01 0. -1.
        -11    1    1    2    0    0  0.74347090258E+02  0.73771449623E+02  0.36297201492E+03  0.37778088918E+03  0.00000000000E+00 0. -1.
         11    1    1    2    0    0  0.16027960335E+02 -0.27060186028E+02  0.90908798487E+02  0.96195419967E+02  0.00000000000E+00 0.  1.
</event>
<event>
 7    1  0.1068210E-005  0.8862357E+02  0.7561462E-02  0.1306220E+00
         -1   -1    0    0    0  501 -0.00000000000E+00  0.00000000000E+00  0.30105680929E+03  0.30105680929E+03  0.00000000000E+00 0.  1.
          1   -1    0    0  501    0  0.00000000000E+00 -0.00000000000E+00 -0.50485617503E+02  0.50485617503E+02  0.00000000000E+00 0. -1.
         23    2    1    2    0    0 -0.14131730224E+02  0.34648992153E+02  0.20326094708E+03  0.24158317894E+03  0.12508861372E+03 0.  0.
          5    1    3    3  502    0  0.47100901550E+02  0.33224137914E+02  0.49763654696E+02  0.76264224874E+02  0.41800000000E+01 0.  1.
         -5    1    3    3    0  502 -0.61232631774E+02  0.14248542387E+01  0.15349729238E+03  0.16531895406E+03  0.41800000000E+01 0.  1.
        -11    1    1    2    0    0  0.81085035852E+01  0.10077237663E+02 -0.23013958893E+02  0.26399637369E+02  0.00000000000E+00 0. -1.
         11    1    1    2    0    0  0.60232266384E+01 -0.44726229815E+02  0.70324203603E+02  0.83559610489E+02  0.00000000000E+00 0.  1.
</event>
<event>
 7    1  0.1068210E-005  0.1188594E+03  0.7561462E-02  0.1244991E+00
         -1   -1    0    0    0  501 -0.00000000000E+00  0.00000000000E+00  0.29775765333E+02  0.29775765333E+02  0.00000000000E+00 0.  1.
          1   -1    0    0  501    0  0.00000000000E+00 -0.00000000000E+00 -0.58973078008E+03  0.58973078008E+03  0.00000000000E+00 0. -1.
         23    2    1    2    0    0  0.56074665418E+02 -0.34177819758E+02 -0.21924889722E+03  0.26082727067E+03  0.12509314421E+03 0.  0.
          5    1    3    3  502    0  0.87078597823E+02  0.90051225448E+00 -0.17836419858E+03  0.19853149085E+03  0.41800000000E+01 0. -1.
         -5    1    3    3    0  502 -0.31003932405E+02 -0.35078332012E+02 -0.40884698632E+02  0.62295779821E+02  0.41800000000E+01 0. -1.
        -11    1    1    2    0    0  0.18306846508E+02  0.21230102777E+02 -0.41404413202E+02  0.50001833222E+02  0.00000000000E+00 0.  1.
         11    1    1    2    0    0 -0.74381511926E+02  0.12947716981E+02 -0.29930170433E+03  0.30867744152E+03  0.00000000000E+00 0. -1.
</event>
<event>
 7    1  0.1068210E-005  0.1358469E+03  0.7561462E-02  0.1219029E+00
          4   -1    0    0  501    0  0.00000000000E+00  0.00000000000E+00  0.97062056971E+03  0.97062056971E+03  0.00000000000E+00 0. -1.
         -4   -1    0    0    0  501 -0.00000000000E+00 -0.00000000000E+00 -0.24871296941E+02  0.24871296941E+02  0.00000000000E+00 0.  1.
         23    2    1    2    0    0  0.98220525607E+02  0.50009114516E+02  0.51389151881E+03  0.54025864996E+03  0.12508690003E+03 0.  0.
          5    1    3    3  502    0 -0.49483059738E+01 -0.85643298014E+01  0.25744600445E+03  0.25766984900E+03  0.41800000000E+01 0.  1.
         -5    1    3    3    0  502  0.10316883158E+03  0.58573444318E+02  0.25644551437E+03  0.28258880096E+03  0.41800000000E+01 0.  1.
        -11    1    1    2    0    0 -0.85250456695E+02  0.53201342488E+01  0.22354846567E+03  0.23931122143E+03  0.00000000000E+00 0. -1.
         11    1    1    2    0    0 -0.12970068912E+02 -0.55329248765E+02  0.20830928828E+03  0.21592199527E+03  0.00000000000E+00 0.  1.
</event>
<event>
 7    1  0.1068210E-005  0.1086373E+03  0.7561462E-02  0.1263114E+00
          2   -1    0    0  501    0  0.00000000000E+00  0.00000000000E+00  0.67434509608E+03  0.67434509608E+03  0.00000000000E+00 0. -1.
         -2   -1    0    0    0  501 -0.00000000000E+00 -0.00000000000E+00 -0.19397769101E+02  0.19397769101E+02  0.00000000000E+00 0.  1.
         23    2    1    2    0    0 -0.15000722835E+02 -0.34697062069E+02  0.36536635847E+03  0.38803291168E+03  0.12509219340E+03 0.  0.
          5    1    3    3  502    0 -0.59867644532E+02 -0.48899867322E+02  0.27954512491E+03  0.29006599447E+03  0.41800000000E+01 0. -1.
         -5    1    3    3    0  502  0.44866921698E+02  0.14202805253E+02  0.85821233559E+02  0.97966917218E+02  0.41800000000E+01 0. -1.
        -11    1    1    2    0    0  0.45996311761E+01 -0.28347406170E+02  0.49069793671E+02  0.56855753398E+02  0.00000000000E+00 0. -1.
         11    1    1    2    0    0  0.10401091659E+02  0.63044468239E+02  0.24051117484E+03  0.24885420010E+03  0.00000000000E+00 0.  1.
</event>
<event>
 7    1  0.1068210E-005  0.9869343E+02  0.7561462E-02  0.1283068E+00
         -1   -1    0    0    0  501 -0.00000000000E+00  0.00000000000E+00  0.32550237927E+03  0.32550237927E+03  0.00000000000E+00 0.  1.
          1   -1    0    0  501    0  0.00000000000E+00 -0.00000000000E+00 -0.40132192311E+02  0.40132192311E+02  0.00000000000E+00 0. -1.
         23    2    1    2    0    0 -0.35937573701E+02 -0.19062846234E+01  0.15351508117E+03  0.20127292858E+03  0.12509503791E+03 0.  0.
          5    1    3    3  502    0 -0.41579755982E+02  0.57093168666E+02  0.83458007404E+02  0.10941305871E+03  0.41800000000E+01 0. -1.
         -5    1    3    3    0  502  0.56421822808E+01 -0.58999453289E+02  0.70057073761E+02  0.91859869874E+02  0.41800000000E+01 0. -1.
        -11    1    1    2    0    0  0.33120792635E+02  0.26528527011E+02  0.13294655906E+03  0.13955478213E+03  0.00000000000E+00 0.  1.
         11    1    1    2    0    0  0.28167810656E+01 -0.24622242387E+02 -0.10914532691E+01  0.24806860865E+02  0.00000000000E+00 0. -1.
</event>
<event>
 7    1  0.1068210E-005  0.1246156E+03  0.7561462E-02  0.1235671E+00
         -2   -1    0    0    0  501 -0.00000000000E+00  0.00000000000E+00  0.23981600645E+03  0.23981600645E+03  0.00000000000E+00 0.  1.
          2   -1    0    0  501    0  0.00000000000E+00 -0.00000000000E+00 -0.12411030518E+03  0.12411030518E+03  0.00000000000E+00 0. -1.
         23    2    1    2    0    0  0.92211050359E+02 -0.25005500709E+02  0.15972169387E+03  0.22424439993E+03  0.12508548490E+03 0.  0.
          5    1    3    3  502    0  0.57401389465E+02  0.46527421780E+02  0.52815675525E+02  0.90921331222E+02  0.41800000000E+01 0. -1.
         -5    1    3    3    0  502  0.34809660894E+02 -0.71532922490E+02  0.10690601834E+03  0.13332306871E+03  0.41800000000E+01 0. -1.
        -11    1    1    2    0    0 -0.63115115944E+02  0.16194600723E+02  0.20544571491E+02  0.68321756205E+02  0.00000000000E+00 0.  1.
         11    1    1    2    0    0 -0.29095934415E+02  0.88108999866E+01 -0.64560564088E+02  0.71360155503E+02  0.00000000000E+00 0. -1.
</event>
<event>
 7    1  0.1068210E-005  0.1102094E+03  0.7561462E-02  0.1260183E+00
          1   -1    0    0  501    0  0.00000000000E+00  0.00000000000E+00  0.23772189642E+03  0.23772189642E+03  0.00000000000E+00 0. -1.
         -1   -1    0    0    0  501 -0.00000000000E+00 -0.00000000000E+00 -0.11468272214E+03  0.11468272214E+03  0.00000000000E+00 0.  1.
         23    2    1    2    0    0 -0.38097630940E+02  0.62111827846E+02 -0.41455900879E+02  0.15074280590E+03  0.12528165536E+03 0.  0.
          5    1    3    3  502    0  0.17064231297E+02  0.67982103592E+02 -0.59733746217E+02  0.92186480764E+02  0.41800000000E+01 0.  1.
         -5    1    3    3    0  502 -0.55161862238E+02 -0.58702757452E+01  0.18277845338E+02  0.58556325133E+02  0.41800000000E+01 0.  1.
        -11    1    1    2    0    0  0.44947723908E+02 -0.15628503858E+02  0.14162488587E+03  0.14940601164E+03  0.00000000000E+00 0. -1.
         11    1    1    2    0    0 -0.68500929676E+01 -0.46483323988E+02  0.22870189283E+02  0.52255801022E+02  0.00000000000E+00 0.  1.
</event>
<event>
 7    1  0.1068210E-005  0.1117318E+03  0.7561462E-02  0.1257396E+00
         -1   -1    0    0    0  501 -0.00000000000E+00  0.00000000000E+00  0.82447999229E+02  0.82447999229E+02  0.00000000000E+00 0.  1.
          1   -1    0    0  501    0  0.00000000000E+00 -0.00000000000E+00 -0.18232083389E+03  0.18232083389E+03  0.00000000000E+00 0. -1.
         23    2    1    2    0    0 -0.44740731490E+02 -0.37210455085E+02 -0.57005903828E+02  0.14927833847E+03  0.12509195915E+03 0.  0.
          5    1    3    3  502    0 -0.36768596388E+02  0.30477900343E+02  0.14814895747E+02  0.50177541048E+02  0.41800000000E+01 0. -1.
         -5    1    3    3    0  502 -0.79721351017E+01 -0.67688355428E+02 -0.71820799574E+02  0.99100797424E+02  0.41800000000E+01 0. -1.
        -11    1    1    2    0    0 -0.26442506786E+02 -0.97408808925E+00 -0.10856285762E+02  0.28600943223E+02  0.00000000000E+00 0.  1.
         11    1    1    2    0    0  0.71183238276E+02  0.38184543174E+02 -0.32010645074E+02  0.86889551425E+02  0.00000000000E+00 0. -1.
</event>
<event>
 7    1  0.1068210E-005  0.1307672E+03  0.7561462E-02  0.1226322E+00
         -4   -1    0    0    0  501 -0.00000000000E+00  0.00000000000E+00  0.21853081792E+03  0.21853081792E+03  0.00000000000E+00 0.  1.
          4   -1    0    0  501    0  0.00000000000E+00 -0.00000000000E+00 -0.91282081394E+02  0.91282081394E+02  0.00000000000E+00 0. -1.
         23    2    1    2    0    0 -0.68496645569E+02  0.51666562202E+02  0.99096552536E+02  0.18118716284E+03  0.12508971640E+03 0.  0.
          5    1    3    3  502    0  0.30342727141E+02  0.40029905544E+02  0.20962064751E+02  0.54588963966E+02  0.41800000000E+01 0. -1.
         -5    1    3    3    0  502 -0.98839372710E+02  0.11636656658E+02  0.78134487785E+02  0.12659819887E+03  0.41800000000E+01 0. -1.
        -11    1    1    2    0    0  0.64964617119E+02 -0.54754689096E+01 -0.13212070675E+02  0.66520230372E+02  0.00000000000E+00 0. -1.
         11    1    1    2    0    0  0.35320284500E+01 -0.46191093293E+02  0.41364254660E+02  0.62105506102E+02  0.00000000000E+00 0.  1.
</event>
<event>
 7    1  0.1068210E-005  0.1154771E+03  0.7561462E-02  0.1250751E+00
          1   -1    0    0  501    0  0.00000000000E+00  0.00000000000E+00  0.14633278402E+03  0.14633278402E+03  0.00000000000E+00 0. -1.
         -1   -1    0    0    0  501 -0.00000000000E+00 -0.00000000000E+00 -0.14618090269E+03  0.14618090269E+03  0.00000000000E+00 0.  1.
         23    2    1    2    0    0 -0.74324532457E+02 -0.24014018068E+02 -0.57219844282E+02  0.16011102013E+03  0.12751713218E+03 0.  0.
          5    1    3    3  502    0 -0.21691919430E+02 -0.73376137041E+02 -0.36769149558E+02  0.84994350488E+02  0.41800000000E+01 0. -1.
         -5    1    3    3    0  502 -0.52632613027E+02  0.49362118973E+02 -0.20450694724E+02  0.75116669643E+02  0.41800000000E+01 0. -1.
        -11    1    1    2    0    0  0.52795887429E+02  0.28584285195E+02  0.80535181943E+02  0.10045089656E+03  0.00000000000E+00 0. -1.
         11    1    1    2    0    0  0.21528645028E+02 -0.45702671276E+01 -0.23163456333E+02  0.31951770024E+02  0.00000000000E+00 0.  1.
</event>
<event>
 7    1  0.1068210E-005  0.1389081E+03  0.7561462E-02  0.1214806E+00
         -3   -1    0    0    0  501 -0.00000000000E+00  0.00000000000E+00  0.36705110211E+03  0.36705110211E+03  0.00000000000E+00 0.  1.
          3   -1    0    0  501    0  0.00000000000E+00 -0.00000000000E+00 -0.11483743087E+03  0.11483743087E+03  0.00000000000E+00 0. -1.
         23    2    1    2    0    0 -0.24990227446E+02 -0.11355034518E+03  0.27977421643E+03  0.32863801652E+03  0.12732298051E+03 0.  0.
          5    1    3    3  502    0 -0.35208329130E+02  0.95850056859E+01  0.12647117295E+03  0.13169635060E+03  0.41800000000E+01 0. -1.
         -5    1    3    3    0  502  0.10218101684E+02 -0.12313535087E+03  0.15330304348E+03  0.19694166592E+03  0.41800000000E+01 0.  1.
        -11    1    1    2    0    0  0.27383549767E+02  0.99203053570E+02  0.18840142251E+02  0.10462339889E+03  0.00000000000E+00 0.  1.
         11    1    1    2    0    0 -0.23933223220E+01  0.14347291615E+02 -0.46400687436E+02  0.48627117568E+02  0.00000000000E+00 0. -1.
</event>
<event>
 7    1  0.1068210E-005  0.1022842E+03  0.7561462E-02  0.1275565E+00
         -2   -1    0    0    0  501 -0.00000000000E+00  0.00000000000E+00  0.24879344711E+03  0.24879344711E+03  0.00000000000E+00 0.  1.
          2   -1    0    0  501    0  0.00000000000E+00 -0.00000000000E+00 -0.70318407600E+02  0.70318407600E+02  0.00000000000E+00 0. -1.
         23    2    1    2    0    0 -0.74599578229E+02  0.34070201082E+02  0.14242545701E+03  0.20653975354E+03  0.12509110007E+03 0.  0.
          5    1    3    3  502    0 -0.32341928175E+02 -0.15813343230E+02  0.13596444553E+03  0.14071199306E+03  0.41800000000E+01 0. -1.
         -5    1    3    3    0  502 -0.42257650054E+02  0.49883544312E+02  0.64610114798E+01  0.65827760486E+02  0.41800000000E+01 0. -1.
        -11    1    1    2    0    0  0.19156203196E+02 -0.42610533145E+02  0.16091338135E+01  0.46746197357E+02  0.00000000000E+00 0.  1.
         11    1    1    2    0    0  0.55443375033E+02  0.85403320628E+01  0.34440448693E+02  0.65825903815E+02  0.00000000000E+00 0. -1.
</event>
<event>
 6    1  0.1068210E-005  0.1431277E+03  0.7561462E-02  0.1209181E+00
         -4   -1    0    0    0  501 -0.00000000000E+00  0.00000000000E+00  0.29065991688E+03  0.29065991688E+03  0.00000000000E+00 0.  1.
          4   -1    0    0  501    0  0.00000000000E+00 -0.00000000000E+00 -0.13952009614E+03  0.13952009614E+03  0.00000000000E+00 0. -1.
          5    1    1    2  502    0 -0.28179446000E+02 -0.49196364260E+02  0.12189879486E+03  0.13450335320E+03  0.41800000000E+01 0. -1.
         -5    1    1    2    0  502  0.10939038266E+03  0.41238742022E+02  0.10052667659E+03  0.15423999082E+03  0.41800000000E+01 0.  1.
        -11    1    1    2    0    0 -0.59135710368E+02 -0.31656789720E+02 -0.68697122441E+02  0.96012911672E+02  0.00000000000E+00 0. -1.
         11    1    1    2    0    0 -0.22075226296E+02  0.39614411958E+02 -0.25885282643E+01  0.45423757324E+02  0.00000000000E+00 0.  1.
</event>
<event>
 7    1  0.1068210E-005  0.9875628E+02  0.7561462E-02  0.1282933E+00
         -1   -1    0    0    0  501 -0.00000000000E+00  0.00000000000E+00  0.33541031870E+03  0.33541031870E+03  0.00000000000E+00 0.  1.
          1   -1    0    0  501    0  0.00000000000E+00 -0.00000000000E+00 -0.38205686158E+02  0.38205686158E+02  0.00000000000E+00 0. -1.
         23    2    1    2    0    0 -0.95569256722E+01 -0.94421936923E+01  0.21283290970E+03  0.24723644599E+03  0.12509005925E+03 0.  0.
          5    1    3    3  502    0 -0.61435563725E+02 -0.13717471157E+02  0.16409582023E+03  0.17580502872E+03  0.41800000000E+01 0.  1.
         -5    1    3    3    0  502  0.51878638053E+02  0.42752774651E+01  0.48737089470E+02  0.71431417273E+02  0.41800000000E+01 0.  1.
        -11    1    1    2    0    0 -0.48330292922E+01 -0.35081140812E+02  0.68247947114E+02  0.76888405485E+02  0.00000000000E+00 0.  1.
         11    1    1    2    0    0  0.14389954964E+02  0.44523334504E+02  0.16123775727E+02  0.49491153381E+02  0.00000000000E+00 0. -1.
</event>
<event>
 7    1  0.1068210E-005  0.1210789E+03  0.7561462E-02  0.1241328E+00
          2   -1    0    0  501    0  0.00000000000E+00  0.00000000000E+00  0.41172125342E+02  0.41172125342E+02  0.00000000000E+00 0. -1.
         -2   -1    0    0    0  501 -0.00000000000E+00 -0.00000000000E+00 -0.54468066922E+03  0.54468066922E+03  0.00000000000E+00 0.  1.
         23    2    1    2    0    0  0.78711015673E+02  0.24728563903E+02 -0.36540996291E+03  0.39493868238E+03  0.12508075784E+03 0.  0.
          5    1    3    3  502    0 -0.10353279576E+02  0.26815286040E+02 -0.13734537132E+02  0.32130357508E+02  0.41800000000E+01 0. -1.
         -5    1    3    3    0  502  0.89064295248E+02 -0.20867221362E+01 -0.35167542578E+03  0.36280832487E+03  0.41800000000E+01 0. -1.
        -11    1    1    2    0    0 -0.13373683916E+02 -0.51579138557E+02 -0.28242404451E+02  0.60306685906E+02  0.00000000000E+00 0.  1.
         11    1    1    2    0    0 -0.65337331756E+02  0.26850574654E+02 -0.10985617651E+03  0.13060742627E+03  0.00000000000E+00 0. -1.
</event>
<event>
 7    1  0.1068210E-005  0.6654528E+02  0.7561462E-02  0.1372251E+00
         -2   -1    0    0    0  501 -0.00000000000E+00  0.00000000000E+00  0.53561729026E+03  0.53561729026E+03  0.00000000000E+00 0.  1.
          2   -1    0    0  501    0  0.00000000000E+00 -0.00000000000E+00 -0.25271104387E+02  0.25271104387E+02  0.00000000000E+00 0. -1.
         23    2    1    2    0    0 -0.68910048863E+01 -0.21810496582E+02  0.37469841323E+03  0.39568989442E+03  0.12509359682E+03 0.  0.
          5    1    3    3  502    0  0.31943035244E+01  0.28441406507E+02  0.31733705177E+03  0.31865246587E+03  0.41800000000E+01 0.  1.
         -5    1    3    3    0  502 -0.10085308411E+02 -0.50251903089E+02  0.57361361456E+02  0.77037428552E+02  0.41800000000E+01 0.  1.
        -11    1    1    2    0    0  0.23328742749E+02 -0.24293463472E+01 -0.28595483789E+01  0.23628562776E+02  0.00000000000E+00 0. -1.
         11    1    1    2    0    0 -0.16437737863E+02  0.24239842929E+02  0.13850732103E+03  0.14156993745E+03  0.00000000000E+00 0.  1.
</event>
<event>
 7    1  0.1068210E-005  0.7684219E+02  0.7561462E-02  0.1338259E+00
         -2   -1    0    0    0  501 -0.00000000000E+00  0.00000000000E+00  0.85447906577E+02  0.85447906577E+02  0.00000000000E+00 0. -1.
          2   -1    0    0  501    0  0.00000000000E+00 -0.00000000000E+00 -0.18726579013E+03  0.18726579013E+03  0.00000000000E+00 0.  1.
         23    2    1    2    0    0  0.43192603122E+02  0.48947796960E+01 -0.11932627959E+02  0.13297462252E+03  0.12510117023E+03 0.  0.
          5    1    3    3  502    0  0.20018157107E+02 -0.65255273828E+01 -0.67888190067E+02  0.71201038421E+02  0.41800000000E+01 0.  1.
         -5    1    3    3    0  502  0.23174446015E+02  0.11420307079E+02  0.55955562108E+02  0.61773584101E+02  0.41800000000E+01 0.  1.
        -11    1    1    2    0    0 -0.74485791634E+02 -0.60618260589E+01 -0.71494705330E+02  0.10342326518E+03  0.00000000000E+00 0.  1.
         11    1    1    2    0    0  0.31293188512E+02  0.11670463629E+01 -0.18390550261E+02  0.36315809000E+02  0.00000000000E+00 0. -1.
</event>
<event>
 7    1  0.1068210E-005  0.8188416E+02  0.7561462E-02  0.1323788E+00
          1   -1    0    0  501    0  0.00000000000E+00  0.00000000000E+00  0.29886620069E+02  0.29886620069E+02  0.00000000000E+00 0. -1.
         -1   -1    0    0    0  501 -0.00000000000E+00 -0.00000000000E+00 -0.41697479224E+03  0.41697479224E+03  0.00000000000E+00 0.  1.
         23    2    1    2    0    0  0.20193534118E+01  0.24114672436E+02 -0.22894526418E+03  0.26200877550E+03  0.12508824578E+03 0.  0.
          5    1    3    3  502    0  0.21086336588E+02 -0.14378051098E+02  0.30427730114E+01  0.26040215277E+02  0.41800000000E+01 0.  1.
         -5    1    3    3    0  502 -0.19066983176E+02  0.38492723535E+02 -0.23198803719E+03  0.23596856022E+03  0.41800000000E+01 0.  1.
        -11    1    1    2    0    0  0.42414101862E+02 -0.26902551036E+02 -0.70652884308E+02  0.86686408104E+02  0.00000000000E+00 0.  1.
         11    1    1    2    0    0 -0.44433455274E+02  0.27878786000E+01 -0.87490023682E+02  0.98166228707E+02  0.00000000000E+00 0. -1.
</event>
<event>
 7    1  0.1068210E-005  0.1239594E+03  0.7561462E-02  0.1236705E+00
          1   -1    0    0  501    0  0.00000000000E+00  0.00000000000E+00  0.28785028971E+03  0.28785028971E+03  0.00000000000E+00 0. -1.
         -1   -1    0    0    0  501 -0.00000000000E+00 -0.00000000000E+00 -0.58796033621E+02  0.58796033621E+02  0.00000000000E+00 0.  1.
         23    2    1    2    0    0  0.64329628478E+02 -0.74976591160E+01  0.88853181873E+02  0.16654639404E+03  0.12509315507E+03 0.  0.
          5    1    3    3  502    0  0.93633058508E+02  0.22898168228E+02  0.48473332546E+02  0.10797505324E+03  0.41800000000E+01 0. -1.
         -5    1    3    3    0  502 -0.29303430029E+02 -0.30395827344E+02  0.40379849328E+02  0.58571340800E+02  0.41800000000E+01 0. -1.
        -11    1    1    2    0    0  0.51195630176E+01 -0.29759718787E+02  0.19495762325E+02  0.35943504788E+02  0.00000000000E+00 0. -1.
         11    1    1    2    0    0 -0.69449191496E+02  0.37257377903E+02  0.12070531189E+03  0.14415642451E+03  0.00000000000E+00 0.  1.
</event>
<event>
 6    1  0.1068210E-005  0.1079541E+03  0.7561462E-02  0.1264406E+00
          1   -1    0    0  501    0  0.00000000000E+00  0.00000000000E+00  0.17531911234E+03  0.17531911234E+03  0.00000000000E+00 0. -1.
         -1   -1    0    0    0  501 -0.00000000000E+00 -0.00000000000E+00 -0.97990471362E+02  0.97990471362E+02  0.00000000000E+00 0.  1.
          5    1    1    2  502    0 -0.10870843192E+02 -0.65337900948E+02  0.41067065298E+02  0.78046093971E+02  0.41800000000E+01 0. -1.
         -5    1    1    2    0  502 -0.42705415717E+02  0.54986527510E+02 -0.22060688196E+02  0.73153380666E+02  0.41800000000E+01 0.  1.
        -11    1    1    2    0    0 -0.11093510474E+02  0.10277958861E+02 -0.17054111226E+02  0.22793532475E+02  0.00000000000E+00 0.  1.
         11    1    1    2    0    0  0.64669769384E+02  0.73414577090E-01  0.75376375100E+02  0.99316576588E+02  0.00000000000E+00 0. -1.
</event>
<event>
 7    1  0.1068210E-005  0.1242779E+03  0.7561462E-02  0.1236202E+00
         -1   -1    0    0    0  501 -0.00000000000E+00  0.00000000000E+00  0.43003343095E+03  0.43003343095E+03  0.00000000000E+00 0.  1.
          1   -1    0    0  501    0  0.00000000000E+00 -0.00000000000E+00 -0.40752268946E+02  0.40752268946E+02  0.00000000000E+00 0. -1.
         23    2    1    2    0    0  0.54762457870E+02 -0.47653075142E+02  0.25156407062E+03  0.29017515631E+03  0.12508955730E+03 0.  0.
          5    1    3    3  502    0  0.35098267760E+02 -0.87843349854E+02  0.13203535210E+03  0.16247814967E+03  0.41800000000E+01 0.  1.
         -5    1    3    3    0  502  0.19664190110E+02  0.40190274711E+02  0.11952871852E+03  0.12769700664E+03  0.41800000000E+01 0.  1.
        -11    1    1    2    0    0  0.67027431578E+01  0.46985364437E+02  0.28716431935E+02  0.55472377813E+02  0.00000000000E+00 0. -1.
         11    1    1    2    0    0 -0.61465201028E+02  0.66771070541E+00  0.10900065945E+03  0.12513816578E+03  0.00000000000E+00 0.  1.
</event>
<event>
 7    1  0.1068210E-005  0.9596398E+02  0.7561462E-02  0.1289020E+00
         -1   -1    0    0    0  501 -0.00000000000E+00  0.00000000000E+00  0.87659689253E+02  0.87659689253E+02  0.00000000000E+00 0.  1.
          1   -1    0    0  501    0  0.00000000000E+00 -0.00000000000E+00 -0.14964366027E+03  0.14964366027E+03  0.00000000000E+00 0. -1.
         23    2    1    2    0    0  0.28426857914E+02  0.14830105748E+02 -0.13204859090E+02  0.12980533483E+03  0.12508812238E+03 0.  0.
          5    1    3    3  502    0 -0.20618763544E+02 -0.30197721798E+02  0.32368984024E+02  0.49012848709E+02  0.41800000000E+01 0.  1.
         -5    1    3    3    0  502  0.49045621458E+02  0.45027827546E+02 -0.45573843114E+02  0.80792486122E+02  0.41800000000E+01 0.  1.
        -11    1    1    2    0    0 -0.38334226758E+02  0.26050872247E+02 -0.47276896827E+01  0.46588753318E+02  0.00000000000E+00 0.  1.
         11    1    1    2    0    0  0.99073688446E+01 -0.40880977996E+02 -0.44051422246E+02  0.60909261375E+02  0.00000000000E+00 0. -1.
</event>
<event>
 7    1  0.1068210E-005  0.1280051E+03  0.7561462E-02  0.1230446E+00
         -1   -1    0    0    0  501 -0.00000000000E+00  0.00000000000E+00  0.12532281761E+04  0.12532281761E+04  0.00000000000E+00 0.  1.
          1   -1    0    0  501    0  0.00000000000E+00 -0.00000000000E+00 -0.15858655907E+02  0.15858655907E+02  0.00000000000E+00 0. -1.
         23    2    1    2    0    0  0.38411987338E+01 -0.72785872740E+02  0.91460171056E+03  0.92598964302E+03  0.12509193395E+03 0.  0.
          5    1    3    3  502    0  0.38430840376E+02  0.21495054355E+02  0.28869553870E+03  0.29206429655E+03  0.41800000000E+01 0. -1.
         -5    1    3    3    0  502 -0.34589641642E+02 -0.94280927095E+02  0.62590617186E+03  0.63392534647E+03  0.41800000000E+01 0. -1.
        -11    1    1    2    0    0  0.13639416535E+01 -0.19142072211E+02  0.10378669697E+03  0.10554599818E+03  0.00000000000E+00 0.  1.
         11    1    1    2    0    0 -0.52051403873E+01  0.91927944951E+02  0.21898111268E+03  0.23755119082E+03  0.00000000000E+00 0. -1.
</event>
<event>
 7    1  0.1068210E-005  0.9512215E+02  0.7561462E-02  0.1290901E+00
          4   -1    0    0  501    0  0.00000000000E+00  0.00000000000E+00  0.30724946654E+02  0.30724946654E+02  0.00000000000E+00 0. -1.
         -4   -1    0    0    0  501 -0.00000000000E+00 -0.00000000000E+00 -0.51291382735E+03  0.51291382735E+03  0.00000000000E+00 0.  1.
         23    2    1    2    0    0 -0.22001121501E+02  0.69103962420E+01 -0.39840386572E+03  0.41821606451E+03  0.12508890225E+03 0.  0.
          5    1    3    3  502    0 -0.43891120332E+02 -0.38288759041E+02 -0.31805520515E+03  0.32337137387E+03  0.41800000000E+01 0.  1.
         -5    1    3    3    0  502  0.21889998832E+02  0.45199155283E+02 -0.80348660570E+02  0.94844690640E+02  0.41800000000E+01 0.  1.
        -11    1    1    2    0    0  0.24506500109E+02  0.33200821066E+02 -0.72926558487E+02  0.83792278880E+02  0.00000000000E+00 0.  1.
         11    1    1    2    0    0 -0.25053786086E+01 -0.40111217308E+02 -0.10858456485E+02  0.41630430615E+02  0.00000000000E+00 0. -1.
</event>
<event>
 7    1  0.1068210E-005  0.1033071E+03  0.7561462E-02  0.1273491E+00
         -2   -1    0    0    0  501 -0.00000000000E+00  0.00000000000E+00  0.12765871998E+02  0.12765871998E+02  0.00000000000E+00 0.  1.
          2   -1    0    0  501    0  0.00000000000E+00 -0.00000000000E+00 -0.96972520243E+03  0.96972520243E+03  0.00000000000E+00 0. -1.
         23    2    1    2    0    0 -0.46675606032E+01 -0.27432367606E+02 -0.53210990910E+03  0.54732343209E+03  0.12509061930E+03 0.  0.
          5    1    3    3  502    0 -0.50095050188E+02  0.14500989727E+02 -0.12473630473E+03  0.13526422615E+03  0.41800000000E+01 0. -1.
         -5    1    3    3    0  502  0.45427489584E+02 -0.41933357333E+02 -0.40737360437E+03  0.41205920594E+03  0.41800000000E+01 0. -1.
        -11    1    1    2    0    0  0.33420119408E+02 -0.18457208584E+02 -0.13460447276E+03  0.13991403439E+03  0.00000000000E+00 0.  1.
         11    1    1    2    0    0 -0.28752558805E+02  0.45889576191E+02 -0.29024494857E+03  0.29525360795E+03  0.00000000000E+00 0. -1.
</event>
<event>
 7    1  0.1068210E-005  0.1124886E+03  0.7561462E-02  0.1256029E+00
         -1   -1    0    0    0  501 -0.00000000000E+00  0.00000000000E+00  0.17663234941E+03  0.17663234941E+03  0.00000000000E+00 0.  1.
          1   -1    0    0  501    0  0.00000000000E+00 -0.00000000000E+00 -0.16523385040E+03  0.16523385040E+03  0.00000000000E+00 0. -1.
         23    2    1    2    0    0  0.11006995388E+02 -0.87985086167E+02  0.10802575288E+03  0.18318129958E+03  0.11841999787E+03 0.  0.
          5    1    3    3  502    0  0.33583654052E+02 -0.16085387805E+02 -0.13748270886E+02  0.39913517419E+02  0.41800000000E+01 0. -1.
         -5    1    3    3    0  502 -0.22576658665E+02 -0.71899698362E+02  0.12177402376E+03  0.14326778216E+03  0.41800000000E+01 0.  1.
        -11    1    1    2    0    0  0.27751751602E+02  0.21635892106E+02 -0.68221230402E+02  0.76762020699E+02  0.00000000000E+00 0.  1.
         11    1    1    2    0    0 -0.38758746990E+02  0.66349194061E+02 -0.28406023467E+02  0.81922879527E+02  0.00000000000E+00 0. -1.
</event>
<event>
 7    1  0.1068210E-005  0.1214194E+03  0.7561462E-02  0.1240774E+00
         -1   -1    0    0    0  501 -0.00000000000E+00  0.00000000000E+00  0.12137056993E+03  0.12137056993E+03  0.00000000000E+00 0.  1.
          1   -1    0    0  501    0  0.00000000000E+00 -0.00000000000E+00 -0.19057649690E+03  0.19057649690E+03  0.00000000000E+00 0. -1.
         23    2    1    2    0    0  0.29812045651E+02 -0.84879195035E+02  0.20652505335E+02  0.15545749596E+03  0.12508905331E+03 0.  0.
          5    1    3    3  502    0  0.28391879150E+02 -0.10401402763E+03 -0.20526795682E+02  0.10983550649E+03  0.41800000000E+01 0.  1.
         -5    1    3    3    0  502  0.14201665004E+01  0.19134832592E+02  0.41179301017E+02  0.45621989473E+02  0.41800000000E+01 0.  1.
        -11    1    1    2    0    0 -0.15539725565E+02  0.95973732585E+02 -0.96733708782E+02  0.13714900959E+03  0.00000000000E+00 0. -1.
         11    1    1    2    0    0 -0.14272320086E+02 -0.11094537551E+02  0.68752764722E+01  0.19340561281E+02  0.00000000000E+00 0.  1.
</event>
<event>
 7    1  0.1068210E-005  0.1298448E+03  0.7561462E-02  0.1227686E+00
         -2   -1    0    0    0  501 -0.00000000000E+00  0.00000000000E+00  0.49710794697E+03  0.49710794697E+03  0.00000000000E+00 0.  1.
          2   -1    0    0  501    0  0.00000000000E+00 -0.00000000000E+00 -0.53006544519E+02  0.53006544519E+02  0.00000000000E+00 0. -1.
         23    2    1    2    0    0  0.64242035073E+02  0.85833155199E+02  0.33581612694E+03  0.37405203263E+03  0.12509229554E+03 0.  0.
          5    1    3    3  502    0 -0.25276120972E+02  0.70354385769E+01  0.12392339434E+02  0.29315902920E+02  0.41800000000E+01 0.  1.
         -5    1    3    3    0  502  0.89518156045E+02  0.78797716622E+02  0.32342378751E+03  0.34473612971E+03  0.41800000000E+01 0.  1.
        -11    1    1    2    0    0 -0.25042418896E+02 -0.64435238339E+02  0.12327258845E+02  0.70220965492E+02  0.00000000000E+00 0. -1.
         11    1    1    2    0    0 -0.39199616177E+02 -0.21397916859E+02  0.95958016670E+02  0.10584149336E+03  0.00000000000E+00 0.  1.
</event>
<event>
 7    1  0.1068210E-005  0.9117334E+02  0.7561462E-02  0.1300035E+00
          2   -1    0    0  501    0  0.00000000000E+00  0.00000000000E+00  0.66871826295E+02  0.66871826295E+02  0.00000000000E+00 0.  1.
         -2   -1    0    0    0  501 -0.00000000000E+00 -0.00000000000E+00 -0.20537774805E+03  0.20537774805E+03  0.00000000000E+00 0. -1.
         23    2    1    2    0    0  0.17956316818E+02 -0.40927256367E+02 -0.78523985974E+02  0.15430808891E+03  0.12508996883E+03 0.  0.
          5    1    3    3  502    0  0.83755336391E+01 -0.62397724845E+02  0.88645358000E+01  0.63715602677E+02  0.41800000000E+01 0.  1.
         -5    1    3    3    0  502  0.95807831788E+01  0.21470468478E+02 -0.87388521774E+02  0.90592486228E+02  0.41800000000E+01 0.  1.
        -11    1    1    2    0    0 -0.47377693984E+02  0.45391556975E+02 -0.20984154258E+02  0.68886675502E+02  0.00000000000E+00 0.  1.
         11    1    1    2    0    0  0.29421377166E+02 -0.44643006075E+01 -0.38997781518E+02  0.49054809933E+02  0.00000000000E+00 0. -1.
</event>
<event>
 7    1  0.1068210E-005  0.1426144E+03  0.7561462E-02  0.1209854E+00
         -2   -1    0    0    0  501 -0.00000000000E+00  0.00000000000E+00  0.38095744199E+02  0.38095744199E+02  0.00000000000E+00 0.  1.
          2   -1    0    0  501    0  0.00000000000E+00 -0.00000000000E+00 -0.71732271602E+03  0.71732271602E+03  0.00000000000E+00 0. -1.
         23    2    1    2    0    0 -0.76062365722E+02  0.99042005643E+02 -0.34995192085E+03  0.39205807022E+03  0.12509348967E+03 0.  0.
          5    1    3    3  502    0 -0.92706586534E+02  0.47329633143E+02 -0.13620227390E+03  0.17147342994E+03  0.41800000000E+01 0.  1.
         -5    1    3    3    0  502  0.16644220812E+02  0.51712372500E+02 -0.21374964694E+03  0.22058464027E+03  0.41800000000E+01 0.  1.
        -11    1    1    2    0    0  0.28731396360E+02 -0.22150368564E+02 -0.20532631452E+02  0.41685979881E+02  0.00000000000E+00 0.  1.
         11    1    1    2    0    0  0.47330969362E+02 -0.76891637079E+02 -0.30874241952E+03  0.32167441012E+03  0.00000000000E+00 0. -1.
</event>
<event>
 7    1  0.1068210E-005  0.1558168E+03  0.7561462E-02  0.1193502E+00
         -4   -1    0    0    0  501 -0.00000000000E+00  0.00000000000E+00  0.65097977250E+02  0.65097977250E+02  0.00000000000E+00 0.  1.
          4   -1    0    0  501    0  0.00000000000E+00 -0.00000000000E+00 -0.39903156959E+03  0.39903156959E+03  0.00000000000E+00 0. -1.
         23    2    1    2    0    0 -0.88490697381E+02 -0.70379186590E+02 -0.12591418342E+03  0.21044434799E+03  0.12509439870E+03 0.  0.
          5    1    3    3  502    0 -0.62117583639E+02 -0.10567953037E+03 -0.78727137477E+02  0.14574701339E+03  0.41800000000E+01 0. -1.
         -5    1    3    3    0  502 -0.26373113742E+02  0.35300343778E+02 -0.47187045947E+02  0.64697334602E+02  0.41800000000E+01 0. -1.
        -11    1    1    2    0    0  0.92520024895E+02  0.20614032536E+02 -0.14590761976E+03  0.17399404257E+03  0.00000000000E+00 0.  1.
         11    1    1    2    0    0 -0.40293275141E+01  0.49765154054E+02 -0.62111789159E+02  0.79691156290E+02  0.00000000000E+00 0. -1.
</event>
<event>
 7    1  0.1068210E-005  0.9752518E+02  0.7561462E-02  0.1285588E+00
          2   -1    0    0  501    0  0.00000000000E+00  0.00000000000E+00  0.75159421253E+02  0.75159421253E+02  0.00000000000E+00 0. -1.
         -2   -1    0    0    0  501 -0.00000000000E+00 -0.00000000000E+00 -0.17847585714E+03  0.17847585714E+03  0.00000000000E+00 0.  1.
         23    2    1    2    0    0  0.20316342059E+02 -0.16336644924E+02 -0.90756078371E+02  0.15674395370E+03  0.12510939828E+03 0.  0.
          5    1    3    3  502    0 -0.50699882594E+02  0.85533243107E+01 -0.28158878183E+02  0.58771015580E+02  0.41800000000E+01 0.  1.
         -5    1    3    3    0  502  0.71016224653E+02 -0.24889969235E+02 -0.62597200189E+02  0.97972938120E+02  0.41800000000E+01 0.  1.
        -11    1    1    2    0    0  0.22568932111E+02  0.10228677259E+02 -0.38953085959E+02  0.46166280344E+02  0.00000000000E+00 0.  1.
         11    1    1    2    0    0 -0.42885274169E+02  0.61079676651E+01  0.26392728443E+02  0.50725044349E+02  0.00000000000E+00 0. -1.
</event>
<event>
 7    1  0.1068210E-005  0.1420264E+03  0.7561462E-02  0.1210628E+00
          2   -1    0    0  501    0  0.00000000000E+00  0.00000000000E+00  0.63317243453E+03  0.63317243453E+03  0.00000000000E+00 0. -1.
         -2   -1    0    0    0  501 -0.00000000000E+00 -0.00000000000E+00 -0.47025413050E+02  0.47025413050E+02  0.00000000000E+00 0.  1.
         23    2    1    2    0    0  0.37564807557E+01 -0.11618056717E+03  0.18362663817E+03  0.25075571702E+03  0.12509057533E+03 0.  0.
          5    1    3    3  502    0  0.20439680217E+02  0.55659491271E+01  0.99400312514E+02  0.10171850788E+03  0.41800000000E+01 0.  1.
         -5    1    3    3    0  502 -0.16683199462E+02 -0.12174651630E+03  0.84226325651E+02  0.14903720914E+03  0.41800000000E+01 0.  1.
        -11    1    1    2    0    0 -0.39925624438E+02  0.72750732441E+02  0.31095738603E+03  0.32184036491E+03  0.00000000000E+00 0.  1.
         11    1    1    2    0    0  0.36169143683E+02  0.43429834733E+02  0.91562997278E+02  0.10760176565E+03  0.00000000000E+00 0. -1.
</event>
<event>
 7    1  0.1068210E-005  0.1186438E+03  0.7561462E-02  0.1245351E+00
         -2   -1    0    0    0  501 -0.00000000000E+00  0.00000000000E+00  0.22147848717E+03  0.22147848717E+03  0.00000000000E+00 0.  1.
          2   -1    0    0  501    0  0.00000000000E+00 -0.00000000000E+00 -0.91228939610E+02  0.91228939610E+02  0.00000000000E+00 0. -1.
         23    2    1    2    0    0 -0.21377410942E+02  0.68490305020E+02  0.13454964037E+03  0.19722891493E+03  0.12509086131E+03 0.  0.
          5    1    3    3  502    0 -0.31203046144E+02  0.10313075158E+03  0.97013598805E+02  0.14504720874E+03  0.41800000000E+01 0.  1.
         -5    1    3    3    0  502  0.98256352025E+01 -0.34640446560E+02  0.37536041565E+02  0.52181706195E+02  0.41800000000E+01 0.  1.
        -11    1    1    2    0    0 -0.20893626598E+02 -0.20790081182E+02 -0.34140563555E+02  0.45103760240E+02  0.00000000000E+00 0. -1.
         11    1    1    2    0    0  0.42271037540E+02 -0.47700223838E+02  0.29840470742E+02  0.70374751601E+02  0.00000000000E+00 0.  1.
</event>
<event>
 6    1  0.1068210E-005  0.1370756E+03  0.7561462E-02  0.1217319E+00
         -1   -1    0    0    0  501 -0.00000000000E+00  0.00000000000E+00  0.73016574116E+02  0.73016574116E+02  0.00000000000E+00 0.  1.
          1   -1    0    0  501    0  0.00000000000E+00 -0.00000000000E+00 -0.29764615620E+03  0.29764615620E+03  0.00000000000E+00 0. -1.
          5    1    1    2  502    0  0.12694529428E+02 -0.35826801582E+02 -0.47538397532E+02  0.61008871723E+02  0.41800000000E+01 0. -1.
         -5    1    1    2    0  502 -0.91262390946E+02  0.77766595369E+02 -0.33675751823E+02  0.12461137997E+03  0.41800000000E+01 0.  1.
        -11    1    1    2    0    0  0.88449238035E+02 -0.18309046533E+02 -0.12107427212E+03  0.15105452083E+03  0.00000000000E+00 0. -1.
         11    1    1    2    0    0 -0.98813765184E+01 -0.23630747254E+02 -0.22341160607E+02  0.33987957793E+02  0.00000000000E+00 0.  1.
</event>
<event>
 7    1  0.1068210E-005  0.7599938E+02  0.7561462E-02  0.1340804E+00
          1   -1    0    0  501    0  0.00000000000E+00  0.00000000000E+00  0.65834298770E+02  0.65834298770E+02  0.00000000000E+00 0. -1.
         -1   -1    0    0    0  501 -0.00000000000E+00 -0.00000000000E+00 -0.20238989195E+03  0.20238989195E+03  0.00000000000E+00 0.  1.
         23    2    1    2    0    0  0.26413840412E+02  0.90212381329E+01 -0.67336195283E+02  0.14477574520E+03  0.12508708766E+03 0.  0.
          5    1    3    3  502    0  0.46057060254E+02 -0.31133715514E+02  0.87484394563E+01  0.56431982367E+02  0.41800000000E+01 0.  1.
         -5    1    3    3    0  502 -0.19643219842E+02  0.40154953647E+02 -0.76084634739E+02  0.88343762833E+02  0.41800000000E+01 0.  1.
        -11    1    1    2    0    0  0.55664168137E+01  0.11899143205E+02  0.21394516909E+02  0.25105775410E+02  0.00000000000E+00 0. -1.
         11    1    1    2    0    0 -0.31980257226E+02 -0.20920381338E+02 -0.90613914803E+02  0.98342670106E+02  0.00000000000E+00 0.  1.
</event>
<event>
 7    1  0.1068210E-005  0.1701898E+03  0.7561462E-02  0.1177650E+00
          1   -1    0    0  501    0  0.00000000000E+00  0.00000000000E+00  0.65113601634E+03  0.65113601634E+03  0.00000000000E+00 0. -1.
         -1   -1    0    0    0  501 -0.00000000000E+00 -0.00000000000E+00 -0.51696071933E+02  0.51696071933E+02  0.00000000000E+00 0.  1.
         23    2    1    2    0    0  0.14035343876E+03  0.45641094542E+02  0.31811346410E+03  0.37232502078E+03  0.12509015860E+03 0.  0.
          5    1    3    3  502    0  0.13898181743E+03  0.19448174668E+02  0.31587468278E+03  0.34567103537E+03  0.41800000000E+01 0. -1.
         -5    1    3    3    0  502  0.13716213310E+01  0.26192919874E+02  0.22387813189E+01  0.26653985413E+02  0.41800000000E+01 0. -1.
        -11    1    1    2    0    0 -0.15365709362E+03 -0.38885989328E+02  0.25915333571E+03  0.30378129303E+03  0.00000000000E+00 0.  1.
         11    1    1    2    0    0  0.13303654858E+02 -0.67551052139E+01  0.22173144595E+02  0.26725774456E+02  0.00000000000E+00 0. -1.
</event>
<event>
 7    1  0.1464713E-005  0.1254764E+03  0.7561462E-02  0.1234327E+00
         -3   -1    0    0    0  501 -0.00000000000E+00  0.00000000000E+00  0.33846365598E+03  0.33846365598E+03  0.00000000000E+00 0.  1.
          3   -1    0    0  501    0  0.00000000000E+00 -0.00000000000E+00 -0.60586404893E+02  0.60586404893E+02  0.00000000000E+00 0. -1.
         23    2    1    2    0    0  0.13417996395E+02 -0.88738144614E+02  0.19388747045E+03  0.24757688062E+03  0.12508980647E+03 0.  0.
          5    1    3    3  502    0  0.58872577380E+02 -0.55162988872E+02  0.16557631471E+03  0.18423334145E+03  0.41800000000E+01 0.  1.
         -5    1    3    3    0  502 -0.45454580985E+02 -0.33575155742E+02  0.28311155745E+02  0.63343539175E+02  0.41800000000E+01 0.  1.
        -11    1    1    2    0    0 -0.34656913923E+02  0.16838716520E+02  0.62605005594E+02  0.73512113166E+02  0.00000000000E+00 0.  1.
         11    1    1    2    0    0  0.21238917527E+02  0.71899428093E+02  0.21384775045E+02  0.77961067089E+02  0.00000000000E+00 0. -1.
</event>
<event>
 6    1  0.1068210E-005  0.2141124E+03  0.7561462E-02  0.1138350E+00
         -3   -1    0    0    0  501 -0.00000000000E+00  0.00000000000E+00  0.49822930949E+03  0.49822930949E+03  0.00000000000E+00 0.  1.
          3   -1    0    0  501    0  0.00000000000E+00 -0.00000000000E+00 -0.92609666259E+02  0.92609666259E+02  0.00000000000E+00 0. -1.
          5    1    1    2  502    0  0.69933747571E+02  0.11484755269E+03  0.11434669693E+03  0.17655970352E+03  0.41800000000E+01 0. -1.
         -5    1    1    2    0  502 -0.11069086573E+03  0.31734734455E+02  0.12443053063E+03  0.16958770734E+03  0.41800000000E+01 0.  1.
        -11    1    1    2    0    0  0.74011697584E+01  0.13258951929E+02  0.19837108656E+02  0.24981753339E+02  0.00000000000E+00 0. -1.
         11    1    1    2    0    0  0.33355948405E+02 -0.15984123907E+03  0.14700530702E+03  0.21970981156E+03  0.00000000000E+00 0.  1.
</event>
<event>
 6    1  0.1068210E-005  0.2074876E+03  0.7561462E-02  0.1143571E+00
          2   -1    0    0  501    0  0.00000000000E+00  0.00000000000E+00  0.20896131023E+03  0.20896131023E+03  0.00000000000E+00 0. -1.
         -2   -1    0    0    0  501 -0.00000000000E+00 -0.00000000000E+00 -0.22823615273E+03  0.22823615273E+03  0.00000000000E+00 0.  1.
          5    1    1    2  502    0  0.14996060471E+03  0.94211475826E+02 -0.64235450548E+02  0.18843473843E+03  0.41800000000E+01 0. -1.
         -5    1    1    2    0  502  0.64008996298E+00 -0.58452961848E+02 -0.13029539587E+02  0.60036653519E+02  0.41800000000E+01 0.  1.
        -11    1    1    2    0    0  0.12059928227E+01 -0.27143685753E+02  0.44985680421E+01  0.27540356014E+02  0.00000000000E+00 0. -1.
         11    1    1    2    0    0 -0.15180668749E+03 -0.86148282255E+01  0.53491579597E+02  0.16118571500E+03  0.00000000000E+00 0.  1.
</event>
<event>
 7    1  0.1068210E-005  0.2917136E+03  0.7561462E-02  0.1089458E+00
         -2   -1    0    0    0  501 -0.00000000000E+00  0.00000000000E+00  0.43572496681E+03  0.43572496681E+03  0.00000000000E+00 0. -1.
          2   -1    0    0  501    0  0.00000000000E+00 -0.00000000000E+00 -0.24279665461E+03  0.24279665461E+03  0.00000000000E+00 0.  1.
         23    2    1    2    0    0  0.19646144367E+00 -0.27493939039E+03  0.24058651782E+03  0.38616154887E+03  0.12508861772E+03 0.  0.
          5    1    3    3  502    0  0.50301199937E+02 -0.88141552367E+02  0.45075390966E+02  0.11112338746E+03  0.41800000000E+01 0. -1.
         -5    1    3    3    0  502 -0.50104738493E+02 -0.18679783802E+03  0.19551112685E+03  0.27503816141E+03  0.41800000000E+01 0. -1.
        -11    1    1    2    0    0  0.43116910039E+02  0.15519879566E+03 -0.24227711699E+02  0.16288866173E+03  0.00000000000E+00 0.  1.
         11    1    1    2    0    0 -0.43313371482E+02  0.11974059473E+03 -0.23430493921E+02  0.12947141083E+03  0.00000000000E+00 0. -1.
</event>
<event>
 6    1  0.1068210E-005  0.1103142E+03  0.7561462E-02  0.1259989E+00
          1   -1    0    0  501    0  0.00000000000E+00  0.00000000000E+00  0.14320589336E+02  0.14320589336E+02  0.00000000000E+00 0. -1.
         -1   -1    0    0    0  501 -0.00000000000E+00 -0.00000000000E+00 -0.10411876729E+04  0.10411876729E+04  0.00000000000E+00 0.  1.
          5    1    1    2  502    0 -0.45029292527E+01  0.61594206097E+02 -0.53239938428E+03  0.53598572684E+03  0.41800000000E+01 0. -1.
         -5    1    1    2    0  502 -0.32595580667E+02 -0.48032031922E+02 -0.17768772991E+03  0.18697579985E+03  0.41800000000E+01 0.  1.
        -11    1    1    2    0    0  0.40265242461E+02  0.34099145587E+02 -0.14734743991E+03  0.15650977455E+03  0.00000000000E+00 0. -1.
         11    1    1    2    0    0 -0.31667325413E+01 -0.47661319761E+02 -0.16943252947E+03  0.17603696100E+03  0.00000000000E+00 0.  1.
</event>
<event>
 7    1  0.1068210E-005  0.1280013E+03  0.7561462E-02  0.1230452E+00
         -1   -1    0    0    0  501 -0.00000000000E+00  0.00000000000E+00  0.31008836511E+02  0.31008836511E+02  0.00000000000E+00 0.  1.
          1   -1    0    0  501    0  0.00000000000E+00 -0.00000000000E+00 -0.59287478633E+03  0.59287478633E+03  0.00000000000E+00 0. -1.
         23    2    1    2    0    0  0.72531846992E+02 -0.10253077290E+02 -0.22464618309E+03  0.26735314541E+03  0.12508318177E+03 0.  0.
          5    1    3    3  502    0  0.10531607469E+03  0.10990433807E+01 -0.13597557052E+03  0.17204508613E+03  0.41800000000E+01 0.  1.
         -5    1    3    3    0  502 -0.32784227697E+02 -0.11352120670E+02 -0.88670612573E+02  0.95308059279E+02  0.41800000000E+01 0.  1.
        -11    1    1    2    0    0 -0.82518653019E+02  0.34491962064E+02 -0.26657687895E+03  0.28118011298E+03  0.00000000000E+00 0. -1.
         11    1    1    2    0    0  0.99868060266E+01 -0.24238884775E+02 -0.70642887779E+02  0.75350364455E+02  0.00000000000E+00 0.  1.
</event>
<event>
 7    1  0.1068210E-005  0.1185004E+03  0.7561462E-02  0.1245592E+00
          2   -1    0    0  501    0  0.00000000000E+00  0.00000000000E+00  0.65515192071E+03  0.65515192071E+03  0.00000000000E+00 0.  1.
         -2   -1    0    0    0  501 -0.00000000000E+00 -0.00000000000E+00 -0.92563243489E+02  0.92563243489E+02  0.00000000000E+00 0. -1.
         23    2    1    2    0    0  0.59316647598E+02 -0.60326964856E+02 -0.19566652116E+02  0.15134043985E+03  0.12394864859E+03 0.  0.
          5    1    3    3  502    0  0.22709363840E+02 -0.77608294795E+02 -0.54585304349E+02  0.97651372125E+02  0.41800000000E+01 0. -1.
         -5    1    3    3    0  502  0.36607283757E+02  0.17281329939E+02  0.35018652233E+02  0.53689067721E+02  0.41800000000E+01 0.  1.
        -11    1    1    2    0    0  0.19351911437E+02  0.15466599747E+02  0.42660109898E+02  0.49331502719E+02  0.00000000000E+00 0. -1.
         11    1    1    2    0    0 -0.78668559034E+02  0.44860365109E+02  0.53949521944E+03  0.54704322163E+03  0.00000000000E+00 0.  1.
</event>
<event>
 6    1  0.1068210E-005  0.8235655E+02  0.7561462E-02  0.1322494E+00
         -1   -1    0    0    0  501 -0.00000000000E+00  0.00000000000E+00  0.20727704557E+04  0.20727704557E+04  0.00000000000E+00 0.  1.
          1   -1    0    0  501    0  0.00000000000E+00 -0.00000000000E+00 -0.13956959116E+02  0.13956959116E+02  0.00000000000E+00 0. -1.
          5    1    1    2  502    0 -0.25311806863E+02 -0.19397048141E+02  0.51727814976E+02  0.60911183583E+02  0.41800000000E+01 0. -1.
         -5    1    1    2    0  502  0.46856425803E+02  0.23057573487E+02  0.17634935327E+04  0.17642715462E+04  0.41800000000E+01 0.  1.
        -11    1    1    2    0    0 -0.34642950098E+02 -0.33116036903E+02  0.69057622693E+02  0.84058081965E+02  0.00000000000E+00 0. -1.
         11    1    1    2    0    0  0.13098331158E+02  0.29455511557E+02  0.17453452621E+03  0.17748660310E+03  0.00000000000E+00 0.  1.
</event>
<event>
 7    1  0.1068210E-005  0.9205993E+02  0.7561462E-02  0.1297939E+00
          3   -1    0    0  501    0  0.00000000000E+00  0.00000000000E+00  0.21917767449E+03  0.21917767449E+03  0.00000000000E+00 0. -1.
         -3   -1    0    0    0  501 -0.00000000000E+00 -0.00000000000E+00 -0.71875341909E+02  0.71875341909E+02  0.00000000000E+00 0.  1.
         23    2    1    2    0    0 -0.53928747438E+00  0.43325140586E+01  0.93284373619E+01  0.12559121542E+03  0.12516817542E+03 0.  0.
          5    1    3    3  502    0  0.27816494767E+02 -0.49827796727E+02 -0.15802291059E+02  0.59361195325E+02  0.41800000000E+01 0. -1.
         -5    1    3    3    0  502 -0.28355782241E+02  0.54160310785E+02  0.25130728421E+02  0.66230020095E+02  0.41800000000E+01 0. -1.
        -11    1    1    2    0    0  0.22726049092E+02  0.21697886723E+02  0.99663258601E+01  0.32963604881E+02  0.00000000000E+00 0.  1.
         11    1    1    2    0    0 -0.22186761618E+02 -0.26030400782E+02  0.12800756936E+03  0.13249819610E+03  0.00000000000E+00 0. -1.
</event>
<event>
 6    1  0.1068210E-005  0.1150393E+03  0.7561462E-02  0.1251512E+00
         -4   -1    0    0    0  501 -0.00000000000E+00  0.00000000000E+00  0.89955530680E+03  0.89955530680E+03  0.00000000000E+00 0.  1.
          4   -1    0    0  501    0  0.00000000000E+00 -0.00000000000E+00 -0.16131277438E+02  0.16131277438E+02  0.00000000000E+00 0. -1.
          5    1    1    2  502    0  0.15349715658E+02 -0.57202679243E+02  0.15796677363E+03  0.16875643471E+03  0.41800000000E+01 0. -1.
         -5    1    1    2    0  502  0.32583659397E+02  0.63400245072E+02  0.38400723244E+03  0.39058969892E+03  0.41800000000E+01 0.  1.
        -11    1    1    2    0    0 -0.73334182603E+02 -0.83474564836E+01  0.28499060708E+03  0.29439298309E+03  0.00000000000E+00 0.  1.
         11    1    1    2    0    0  0.25400807548E+02  0.21498906550E+01  0.56459416207E+02  0.61947467521E+02  0.00000000000E+00 0. -1.
</event>
<event>
 7    1  0.1068210E-005  0.3842044E+03  0.7561462E-02  0.1049391E+00
          1   -1    0    0  501    0  0.00000000000E+00  0.00000000000E+00  0.16459453684E+04  0.16459453684E+04  0.00000000000E+00 0. -1.
         -1   -1    0    0    0  501 -0.00000000000E+00 -0.00000000000E+00 -0.92419141752E+02  0.92419141752E+02  0.00000000000E+00 0.  1.
         23    2    1    2    0    0  0.29197982280E+03 -0.23293822033E+03  0.74201292524E+03  0.84008509422E+03  0.12508937964E+03 0.  0.
          5    1    3    3  502    0  0.25130932593E+03 -0.23712700874E+03  0.60155016709E+03  0.69373314142E+03  0.41800000000E+01 0. -1.
         -5    1    3    3    0  502  0.40670496868E+02  0.41887884002E+01  0.14046275815E+03  0.14635195281E+03  0.41800000000E+01 0. -1.
        -11    1    1    2    0    0 -0.20695850406E+03  0.20738249449E+03  0.56847142319E+03  0.63953035925E+03  0.00000000000E+00 0.  1.
         11    1    1    2    0    0 -0.85021318740E+02  0.25555725849E+02  0.24304187824E+03  0.25874905670E+03  0.00000000000E+00 0. -1.
</event>
<event>
 7    1  0.1068210E-005  0.1099896E+03  0.7561462E-02  0.1260589E+00
         -1   -1    0    0    0  501 -0.00000000000E+00  0.00000000000E+00  0.22586842320E+03  0.22586842320E+03  0.00000000000E+00 0.  1.
          1   -1    0    0  501    0  0.00000000000E+00 -0.00000000000E+00 -0.71628747384E+02  0.71628747384E+02  0.00000000000E+00 0. -1.
         23    2    1    2    0    0 -0.56998662076E+02  0.18631569077E+02  0.54138019946E+02  0.14891070337E+03  0.12508992577E+03 0.  0.
          5    1    3    3  502    0  0.30223725383E+02  0.99043540850E+01 -0.16667883627E+02  0.36150526282E+02  0.41800000000E+01 0.  1.
         -5    1    3    3    0  502 -0.87222387459E+02  0.87272149919E+01  0.70805903573E+02  0.11276017709E+03  0.41800000000E+01 0.  1.
        -11    1    1    2    0    0 -0.15565624048E+02 -0.22632477225E+02  0.34855264057E+01  0.27688744494E+02  0.00000000000E+00 0. -1.
         11    1    1    2    0    0  0.72564286124E+02  0.40009081484E+01  0.96616129467E+02  0.12089772272E+03  0.00000000000E+00 0.  1.
</event>
<event>
 7    1  0.1068210E-005  0.1078530E+03  0.7561462E-02  0.1264598E+00
         -1   -1    0    0    0  501 -0.00000000000E+00  0.00000000000E+00  0.19837791417E+02  0.19837791417E+02  0.00000000000E+00 0.  1.
          1   -1    0    0  501    0  0.00000000000E+00 -0.00000000000E+00 -0.87367561812E+03  0.87367561812E+03  0.00000000000E+00 0. -1.
         23    2    1    2    0    0 -0.12466870146E+02  0.72109546251E+02 -0.45112059476E+03  0.47382745648E+03  0.12508979970E+03 0.  0.
          5    1    3    3  502    0  0.31383215868E+01  0.80187969543E+02 -0.44842099975E+03  0.45556429287E+03  0.41800000000E+01 0. -1.
         -5    1    3    3    0  502 -0.15605191733E+02 -0.80784232918E+01 -0.26995950078E+01  0.18263163612E+02  0.41800000000E+01 0. -1.
        -11    1    1    2    0    0 -0.31509913764E+02 -0.65671618564E+02 -0.27375170647E+03  0.28327660148E+03  0.00000000000E+00 0. -1.
         11    1    1    2    0    0  0.43976783910E+02 -0.64379276870E+01 -0.12896552547E+03  0.13640935157E+03  0.00000000000E+00 0.  1.
</event>
<event>
 6    1  0.1068210E-005  0.2645569E+03  0.7561462E-02  0.1104436E+00
          1   -1    0    0  501    0  0.00000000000E+00  0.00000000000E+00  0.36572258118E+03  0.36572258118E+03  0.00000000000E+00 0. -1.
         -1   -1    0    0    0  501 -0.00000000000E+00 -0.00000000000E+00 -0.23263815416E+03  0.23263815416E+03  0.00000000000E+00 0.  1.
          5    1    1    2  502    0 -0.16216836652E+02  0.24660800411E+03  0.12431959905E+03  0.27667910761E+03  0.41800000000E+01 0. -1.
         -5    1    1    2    0  502 -0.60048253968E+02 -0.11612588259E+03 -0.42349586638E+02  0.13748444748E+03  0.41800000000E+01 0.  1.
        -11    1    1    2    0    0  0.19178754977E+02 -0.32019085447E+02 -0.27077371496E+02  0.46111067245E+02  0.00000000000E+00 0.  1.
         11    1    1    2    0    0  0.57086335644E+02 -0.98463036073E+02  0.78191786102E+02  0.13808611300E+03  0.00000000000E+00 0. -1.
</event>
<event>
 6    1  0.1068210E-005  0.1633584E+03  0.7561462E-02  0.1184957E+00
         -2   -1    0    0    0  501 -0.00000000000E+00  0.00000000000E+00  0.82008685948E+02  0.82008685948E+02  0.00000000000E+00 0.  1.
          2   -1    0    0  501    0  0.00000000000E+00 -0.00000000000E+00 -0.83598772207E+03  0.83598772207E+03  0.00000000000E+00 0. -1.
          5    1    1    2  502    0  0.12273317409E+02 -0.13575178284E+03 -0.35542260701E+03  0.38068606861E+03  0.41800000000E+01 0. -1.
         -5    1    1    2    0  502  0.33635475854E+02  0.36562827754E+02  0.47723488415E+02  0.69015863074E+02  0.41800000000E+01 0.  1.
        -11    1    1    2    0    0 -0.15058940572E+02  0.10749316203E+03 -0.37005243867E+03  0.38564278670E+03  0.00000000000E+00 0. -1.
         11    1    1    2    0    0 -0.30849852691E+02 -0.83042069377E+01 -0.76227478864E+02  0.82651689625E+02  0.00000000000E+00 0.  1.
</event>
<event>
 7    1  0.1068210E-005  0.1298286E+03  0.7561462E-02  0.1227710E+00
         -1   -1    0    0    0  501 -0.00000000000E+00  0.00000000000E+00  0.41393442097E+02  0.41393442097E+02  0.00000000000E+00 0.  1.
          1   -1    0    0  501    0  0.00000000000E+00 -0.00000000000E+00 -0.62073926582E+03  0.62073926582E+03  0.00000000000E+00 0. -1.
         23    2    1    2    0    0  0.84931727931E+02  0.77063314409E+02 -0.36939001995E+03  0.40650741968E+03  0.12508853899E+03 0.  0.
          5    1    3    3  502    0  0.61453207847E+02  0.94697174309E+02 -0.35685399414E+03  0.37430775721E+03  0.41800000000E+01 0. -1.
         -5    1    3    3    0  502  0.23478520084E+02 -0.17633859900E+02 -0.12536025809E+02  0.32199662473E+02  0.41800000000E+01 0. -1.
        -11    1    1    2    0    0 -0.41651421540E+02 -0.53339475650E+02 -0.39921783481E+02  0.78572828479E+02  0.00000000000E+00 0.  1.
         11    1    1    2    0    0 -0.43280306390E+02 -0.23723838759E+02 -0.17003402029E+03  0.17705245975E+03  0.00000000000E+00 0. -1.
</event>
<event>
 7    1  0.1068210E-005  0.1617205E+03  0.7561462E-02  0.1186768E+00
          1   -1    0    0  501    0  0.00000000000E+00  0.00000000000E+00  0.12943207381E+04  0.12943207381E+04  0.00000000000E+00 0. -1.
         -1   -1    0    0    0  501 -0.00000000000E+00 -0.00000000000E+00 -0.20952872584E+02  0.20952872584E+02  0.00000000000E+00 0.  1.
         23    2    1    2    0    0  0.10714920220E+03  0.58361520567E+02  0.76451326803E+03  0.78422740611E+03  0.12508024978E+03 0.  0.
          5    1    3    3  502    0  0.93492291279E+02 -0.16786101228E+02  0.34834031036E+03  0.36108312886E+03  0.41800000000E+01 0.  1.
         -5    1    3    3    0  502  0.13656910923E+02  0.75147621795E+02  0.41617295767E+03  0.42314427726E+03  0.41800000000E+01 0.  1.
        -11    1    1    2    0    0 -0.11072742302E+03 -0.19000598965E+02  0.37085884229E+03  0.38750208499E+03  0.00000000000E+00 0. -1.
         11    1    1    2    0    0  0.35782208220E+01 -0.39360921603E+02  0.13799575522E+03  0.14354411960E+03  0.00000000000E+00 0.  1.
</event>
<event>
 7    1  0.1068210E-005  0.1028420E+03  0.7561462E-02  0.1274431E+00
         -3   -1    0    0    0  501 -0.00000000000E+00  0.00000000000E+00  0.13464350769E+03  0.13464350769E+03  0.00000000000E+00 0.  1.
          3   -1    0    0  501    0  0.00000000000E+00 -0.00000000000E+00 -0.94732952768E+02  0.94732952768E+02  0.00000000000E+00 0. -1.
         23    2    1    2    0    0  0.57219796220E+01 -0.19617675782E+02  0.48223128469E+02  0.13561274119E+03  0.12509097170E+03 0.  0.
          5    1    3    3  502    0  0.47710626977E+02  0.28386224078E+02  0.45055899395E+02  0.71621142928E+02  0.41800000000E+01 0.  1.
         -5    1    3    3    0  502 -0.41988647355E+02 -0.48003899861E+02  0.31672290741E+01  0.63991598265E+02  0.41800000000E+01 0.  1.
        -11    1    1    2    0    0  0.26681369501E+02  0.39804879616E+02  0.13512069949E+02  0.49788552439E+02  0.00000000000E+00 0.  1.
         11    1    1    2    0    0 -0.32403349123E+02 -0.20187203833E+02 -0.21824643501E+02  0.43975166821E+02  0.00000000000E+00 0. -1.
</event>
<event>
 7    1  0.1068210E-005  0.1018235E+03  0.7561462E-02  0.1276508E+00
         -2   -1    0    0    0  501 -0.00000000000E+00  0.00000000000E+00  0.79475873396E+02  0.79475873396E+02  0.00000000000E+00 0.  1.
          2   -1    0    0  501    0  0.00000000000E+00 -0.00000000000E+00 -0.21791228037E+03  0.21791228037E+03  0.00000000000E+00 0. -1.
         23    2    1    2    0    0 -0.36088440619E+02 -0.20861255014E+02 -0.53255474038E+01  0.13196036226E+03  0.12509040029E+03 0.  0.
          5    1    3    3  502    0 -0.67404725198E+02 -0.31709667340E+02 -0.39290258124E+02  0.84321389726E+02  0.41800000000E+01 0.  1.
         -5    1    3    3    0  502  0.31316284579E+02  0.10848412327E+02  0.33964710721E+02  0.47638972535E+02  0.41800000000E+01 0.  1.
        -11    1    1    2    0    0  0.41535746436E+02  0.50563726863E+02 -0.72192367122E+02  0.97435345624E+02  0.00000000000E+00 0.  1.
         11    1    1    2    0    0 -0.54473058164E+01 -0.29702471849E+02 -0.60918492453E+02  0.67992445885E+02  0.00000000000E+00 0. -1.
</event>
<event>
 7    1  0.1068210E-005  0.1658856E+03  0.7561462E-02  0.1182208E+00
          1   -1    0    0  501    0  0.00000000000E+00  0.00000000000E+00  0.30244685401E+03  0.30244685401E+03  0.00000000000E+00 0. -1.
         -1   -1    0    0    0  501 -0.00000000000E+00 -0.00000000000E+00 -0.12544169396E+03  0.12544169396E+03  0.00000000000E+00 0.  1.
         23    2    1    2    0    0 -0.34534401550E+02  0.15139471508E+03  0.44259093861E+02  0.20425385656E+03  0.12509111034E+03 0.  0.
          5    1    3    3  502    0 -0.15759922984E+02  0.11614267014E+03 -0.28907164326E+02  0.12079152102E+03  0.41800000000E+01 0.  1.
         -5    1    3    3    0  502 -0.18774478565E+02  0.35252044936E+02  0.73166258186E+02  0.83462335545E+02  0.41800000000E+01 0.  1.
        -11    1    1    2    0    0  0.51763511928E+02 -0.51701807685E+02  0.83809575108E+02  0.11125009198E+03  0.00000000000E+00 0. -1.
         11    1    1    2    0    0 -0.17229110378E+02 -0.99692907392E+02  0.48936491080E+02  0.11238459942E+03  0.00000000000E+00 0.  1.
</event>
<event>
 7    1  0.1068210E-005  0.8125171E+02  0.7561462E-02  0.1325536E+00
         -2   -1    0    0    0  501 -0.00000000000E+00  0.00000000000E+00  0.49973062859E+02  0.49973062859E+02  0.00000000000E+00 0. -1.
          2   -1    0    0  501    0  0.00000000000E+00 -0.00000000000E+00 -0.29177466012E+03  0.29177466012E+03  0.00000000000E+00 0.  1.
         23    2    1    2    0    0  0.24766303734E+02  0.42895552972E+02 -0.10756874259E+03  0.17225633259E+03  0.12509121259E+03 0.  0.
          5    1    3    3  502    0  0.49236628541E+02  0.44521126552E+02 -0.12519562375E+03  0.14176668475E+03  0.41800000000E+01 0.  1.
         -5    1    3    3    0  502 -0.24470324807E+02 -0.16255735797E+01  0.17626881158E+02  0.30489647833E+02  0.41800000000E+01 0.  1.
        -11    1    1    2    0    0  0.90778054092E+01 -0.35271913138E+02 -0.12944399177E+03  0.13447029937E+03  0.00000000000E+00 0.  1.
         11    1    1    2    0    0 -0.33844109143E+02 -0.76236398342E+01 -0.47888628898E+01  0.35021091014E+02  0.00000000000E+00 0. -1.
</event>
<event>
 7    1  0.1068210E-005  0.1177254E+03  0.7561462E-02  0.1246897E+00
          2   -1    0    0  501    0  0.00000000000E+00  0.00000000000E+00  0.60751887931E+02  0.60751887931E+02  0.00000000000E+00 0. -1.
         -2   -1    0    0    0  501 -0.00000000000E+00 -0.00000000000E+00 -0.23499161883E+03  0.23499161883E+03  0.00000000000E+00 0.  1.
         23    2    1    2    0    0  0.48217667839E+02  0.12018834629E+02 -0.10517203474E+03  0.17081575676E+03  0.12508984767E+03 0.  0.
          5    1    3    3  502    0  0.65382380122E+02 -0.41495057632E+02 -0.52275191617E+02  0.93524667852E+02  0.41800000000E+01 0. -1.
         -5    1    3    3    0  502 -0.17164712283E+02  0.53513892261E+02 -0.52896843125E+02  0.77291088913E+02  0.41800000000E+01 0. -1.
        -11    1    1    2    0    0 -0.38325203374E+02  0.35961808935E+02 -0.49430397489E+02  0.72148715245E+02  0.00000000000E+00 0.  1.
         11    1    1    2    0    0 -0.98924644651E+01 -0.47980643564E+02 -0.19637298664E+02  0.52779034747E+02  0.00000000000E+00 0. -1.
</event>
<event>
 7    1  0.1068210E-005  0.1198009E+03  0.7561462E-02  0.1243426E+00
         -2   -1    0    0    0  501 -0.00000000000E+00  0.00000000000E+00  0.25887255220E+02  0.25887255220E+02  0.00000000000E+00 0.  1.
          2   -1    0    0  501    0  0.00000000000E+00 -0.00000000000E+00 -0.73286949170E+03  0.73286949170E+03  0.00000000000E+00 0. -1.
         23    2    1    2    0    0  0.79192540446E+02 -0.22579629133E+02 -0.34420557680E+03  0.37537494011E+03  0.12509024120E+03 0.  0.
          5    1    3    3  502    0 -0.11916174631E+02 -0.37263252764E+02 -0.20201426856E+03  0.20581006371E+03  0.41800000000E+01 0. -1.
         -5    1    3    3    0  502  0.91108715077E+02  0.14683623631E+02 -0.14219130825E+03  0.16956487640E+03  0.41800000000E+01 0. -1.
        -11    1    1    2    0    0 -0.61158370391E+02  0.47274124029E+02 -0.32839238335E+03  0.33736737618E+03  0.00000000000E+00 0. -1.
         11    1    1    2    0    0 -0.18034170055E+02 -0.24694494896E+02 -0.34384276328E+02  0.46014430631E+02  0.00000000000E+00 0.  1.
</event>
<event>
 7    1  0.1068210E-005  0.1222846E+03  0.7561462E-02  0.1239375E+00
          4   -1    0    0  501    0  0.00000000000E+00  0.00000000000E+00  0.69135812273E+02  0.69135812273E+02  0.00000000000E+00 0. -1.
         -4   -1    0    0    0  501 -0.00000000000E+00 -0.00000000000E+00 -0.26985521408E+03  0.26985521408E+03  0.00000000000E+00 0.  1.
         23    2    1    2    0    0 -0.76737066557E+02  0.29702756501E+02 -0.12549610507E+03  0.19536764990E+03  0.12509362539E+03 0.  0.
          5    1    3    3  502    0  0.15214819941E+02  0.37913207915E+02 -0.19878616750E+01  0.41113575304E+02  0.41800000000E+01 0. -1.
         -5    1    3    3    0  502 -0.91951886498E+02 -0.82104514149E+01 -0.12350824340E+03  0.15425407460E+03  0.41800000000E+01 0. -1.
        -11    1    1    2    0    0  0.58330407739E+02  0.17111479906E+02 -0.70516023713E+02  0.93100745496E+02  0.00000000000E+00 0. -1.
         11    1    1    2    0    0  0.18406658818E+02 -0.46814236406E+02 -0.47072730197E+01  0.50522630953E+02  0.00000000000E+00 0.  1.
</event>
<event>
 7    1  0.1068210E-005  0.1216705E+03  0.7561462E-02  0.1240366E+00
          2   -1    0    0  501    0  0.00000000000E+00  0.00000000000E+00  0.12172163846E+03  0.12172163846E+03  0.00000000000E+00 0. -1.
         -2   -1    0    0    0  501 -0.00000000000E+00 -0.00000000000E+00 -0.12918172534E+03  0.12918172534E+03  0.00000000000E+00 0.  1.
         23    2    1    2    0    0  0.21199678191E+02 -0.68936070348E+02 -0.11475244855E+02  0.13338145898E+03  0.11161238375E+03 0.  0.
          5    1    3    3  502    0  0.12171670948E+02 -0.98449446988E+02 -0.19579637148E+02  0.10119919850E+03  0.41800000000E+01 0. -1.
         -5    1    3    3    0  502  0.90280072439E+01  0.29513376640E+02  0.81043922932E+01  0.32182260485E+02  0.41800000000E+01 0.  1.
        -11    1    1    2    0    0  0.12702077357E+02 -0.16598396248E+02  0.13722641456E+02  0.25003208108E+02  0.00000000000E+00 0. -1.
         11    1    1    2    0    0 -0.33901755548E+02  0.85534466596E+02 -0.97074834723E+01  0.92518696707E+02  0.00000000000E+00 0.  1.
</event>
<event>
 7    1  0.1068210E-005  0.1835587E+03  0.7561462E-02  0.1164403E+00
          1   -1    0    0  501    0  0.00000000000E+00  0.00000000000E+00  0.46750376024E+03  0.46750376024E+03  0.00000000000E+00 0.  1.
         -1   -1    0    0    0  501 -0.00000000000E+00 -0.00000000000E+00 -0.93479741250E+02  0.93479741250E+02  0.00000000000E+00 0. -1.
         23    2    1    2    0    0  0.15900209925E+03 -0.68024728257E+02  0.13940082288E+03  0.25492908853E+03  0.12508884659E+03 0.  0.
          5    1    3    3  502    0  0.14129616544E+03 -0.75154420330E+02  0.56523957653E+02  0.16977992653E+03  0.41800000000E+01 0.  1.
         -5    1    3    3    0  502  0.17705933815E+02  0.71296920730E+01  0.82876865223E+02  0.85149162007E+02  0.41800000000E+01 0.  1.
        -11    1    1    2    0    0 -0.65064170183E+02 -0.94133023404E+01  0.12939701276E+03  0.14513973754E+03  0.00000000000E+00 0.  1.
         11    1    1    2    0    0 -0.93937929070E+02  0.77438030597E+02  0.10522618335E+03  0.16091467542E+03  0.00000000000E+00 0. -1.
</event>
<event>
 7    1  0.1068210E-005  0.1242314E+03  0.7561462E-02  0.1236275E+00
          2   -1    0    0  501    0  0.00000000000E+00  0.00000000000E+00  0.14324586201E+03  0.14324586201E+03  0.00000000000E+00 0. -1.
         -2   -1    0    0    0  501 -0.00000000000E+00 -0.00000000000E+00 -0.15011666018E+03  0.15011666018E+03  0.00000000000E+00 0.  1.
         23    2    1    2    0    0  0.81295207781E+02 -0.51153718307E+02 -0.13877721664E+02  0.15831971324E+03  0.12508767620E+03 0.  0.
          5    1    3    3  502    0  0.99164546706E+02 -0.13118745299E+02 -0.40938589552E+02  0.10816260591E+03  0.41800000000E+01 0. -1.
         -5    1    3    3    0  502 -0.17869338925E+02 -0.38034973009E+02  0.27060867887E+02  0.50157107335E+02  0.41800000000E+01 0. -1.
        -11    1    1    2    0    0 -0.28449697871E+02 -0.51336281363E+01 -0.36389835966E+02  0.46475365608E+02  0.00000000000E+00 0.  1.
         11    1    1    2    0    0 -0.52845509910E+02  0.56287346444E+02  0.43396759460E+02  0.88567443336E+02  0.00000000000E+00 0. -1.
</event>
<event>
 6    1  0.1068210E-005  0.2310375E+03  0.7561462E-02  0.1125912E+00
          2   -1    0    0  501    0  0.00000000000E+00  0.00000000000E+00  0.30644306174E+03  0.30644306174E+03  0.00000000000E+00 0. -1.
         -2   -1    0    0    0  501 -0.00000000000E+00 -0.00000000000E+00 -0.38687720283E+03  0.38687720283E+03  0.00000000000E+00 0.  1.
          5    1    1    2  502    0  0.20885086754E+02  0.38558677074E+02  0.16632140223E+03  0.17205592017E+03  0.41800000000E+01 0. -1.
         -5    1    1    2    0  502 -0.28541900686E+02  0.17961746231E+03 -0.21711831116E+03  0.28325766768E+03  0.41800000000E+01 0.  1.
        -11    1    1    2    0    0  0.47101809295E+02 -0.15131207168E+03 -0.22158401935E+02  0.16001536880E+03  0.00000000000E+00 0.  1.
         11    1    1    2    0    0 -0.39444995363E+02 -0.66864067695E+02 -0.74788302299E+01  0.77991307911E+02  0.00000000000E+00 0. -1.
</event>
<event>
 7    1  0.1068210E-005  0.9799896E+02  0.7561462E-02  0.1284561E+00
         -3   -1    0    0    0  501 -0.00000000000E+00  0.00000000000E+00  0.12535622502E+03  0.12535622502E+03  0.00000000000E+00 0.  1.
          3   -1    0    0  501    0  0.00000000000E+00 -0.00000000000E+00 -0.95600670133E+02  0.95600670133E+02  0.00000000000E+00 0. -1.
         23    2    1    2    0    0 -0.86738826137E+01 -0.47728446724E+01  0.99515620421E+01  0.12588129667E+03  0.12509616692E+03 0.  0.
          5    1    3    3  502    0 -0.62365334289E+02  0.12513995323E+02 -0.12620948150E+02  0.64983041881E+02  0.41800000000E+01 0.  1.
         -5    1    3    3    0  502  0.53691451675E+02 -0.17286839995E+02  0.22572510192E+02  0.60898254790E+02  0.41800000000E+01 0.  1.
        -11    1    1    2    0    0 -0.31561189685E+02 -0.95645584801E+01  0.36521066498E+02  0.49207497105E+02  0.00000000000E+00 0.  1.
         11    1    1    2    0    0  0.40235072298E+02  0.14337403152E+02 -0.16717073656E+02  0.45868101374E+02  0.00000000000E+00 0. -1.
</event>
<event>
 7    1  0.1068210E-005  0.1118939E+03  0.7561462E-02  0.1257102E+00
          3   -1    0    0  501    0  0.00000000000E+00  0.00000000000E+00  0.40388187333E+02  0.40388187333E+02  0.00000000000E+00 0. -1.
         -3   -1    0    0    0  501 -0.00000000000E+00 -0.00000000000E+00 -0.34343413243E+03  0.34343413243E+03  0.00000000000E+00 0.  1.
         23    2    1    2    0    0 -0.48324224898E+02  0.37291091849E+01 -0.18969772152E+03  0.23233155264E+03  0.12507432924E+03 0.  0.
          5    1    3    3  502    0 -0.10044994985E+02  0.62710279766E+02 -0.93265968545E+02  0.11291365906E+03  0.41800000000E+01 0.  1.
         -5    1    3    3    0  502 -0.38279229913E+02 -0.58981170581E+02 -0.96431752975E+02  0.11941789358E+03  0.41800000000E+01 0.  1.
        -11    1    1    2    0    0  0.21721249051E+02 -0.39526932579E+02 -0.22762323085E+02  0.50520435584E+02  0.00000000000E+00 0. -1.
         11    1    1    2    0    0  0.26602975847E+02  0.35797823394E+02 -0.90585900492E+02  0.10097033154E+03  0.00000000000E+00 0.  1.
</event>
<event>
 7    1  0.1068210E-005  0.4150510E+03  0.7561462E-02  0.1038689E+00
          1   -1    0    0  501    0  0.00000000000E+00  0.00000000000E+00  0.75191449387E+03  0.75191449387E+03  0.00000000000E+00 0. -1.
         -1   -1    0    0    0  501 -0.00000000000E+00 -0.00000000000E+00 -0.25626019185E+03  0.25626019185E+03  0.00000000000E+00 0.  1.
         23    2    1    2    0    0  0.21017278544E+03  0.34561946324E+03  0.10004596157E+03  0.43500958806E+03  0.12489489248E+03 0.  0.
          5    1    3    3  502    0  0.19689335218E+03  0.35525563743E+03  0.93196755016E+02  0.41674532703E+03  0.41800000000E+01 0.  1.
         -5    1    3    3    0  502  0.13279433255E+02 -0.96361741853E+01  0.68492065525E+01  0.18264261028E+02  0.41800000000E+01 0.  1.
        -11    1    1    2    0    0 -0.12542972724E+03 -0.16315303247E+03  0.25514944140E+03  0.32779988701E+03  0.00000000000E+00 0. -1.
         11    1    1    2    0    0 -0.84743058198E+02 -0.18246643077E+03  0.14045889906E+03  0.24536521064E+03  0.00000000000E+00 0.  1.
</event>
<event>
 7    1  0.1068210E-005  0.1108559E+03  0.7561462E-02  0.1258993E+00
          1   -1    0    0  501    0  0.00000000000E+00  0.00000000000E+00  0.10299915022E+02  0.10299915022E+02  0.00000000000E+00 0. -1.
         -1   -1    0    0    0  501 -0.00000000000E+00 -0.00000000000E+00 -0.13673080755E+04  0.13673080755E+04  0.00000000000E+00 0.  1.
         23    2    1    2    0    0 -0.18608563045E+02 -0.26398942841E+02 -0.97953452246E+03  0.98801746129E+03  0.12508972908E+03 0.  0.
          5    1    3    3  502    0 -0.70473002396E+02 -0.37291865814E+01 -0.46155620355E+03  0.46693891714E+03  0.41800000000E+01 0. -1.
         -5    1    3    3    0  502  0.51864439351E+02 -0.22669756259E+02 -0.51797831890E+03  0.52107854415E+03  0.41800000000E+01 0. -1.
        -11    1    1    2    0    0  0.27148136045E+02  0.56654071126E+02 -0.28747128817E+03  0.29425575031E+03  0.00000000000E+00 0.  1.
         11    1    1    2    0    0 -0.85395730005E+01 -0.30255128285E+02 -0.90002349827E+02  0.95334778905E+02  0.00000000000E+00 0. -1.
</event>
<event>
 7    1  0.1068210E-005  0.1077765E+03  0.7561462E-02  0.1264744E+00
          1   -1    0    0  501    0  0.00000000000E+00  0.00000000000E+00  0.10230568413E+03  0.10230568413E+03  0.00000000000E+00 0. -1.
         -1   -1    0    0    0  501 -0.00000000000E+00 -0.00000000000E+00 -0.16591225257E+03  0.16591225257E+03  0.00000000000E+00 0.  1.
         23    2    1    2    0    0 -0.22231800118E+02 -0.26883864249E+02 -0.10211219410E+03  0.16265672400E+03  0.12170996091E+03 0.  0.
          5    1    3    3  502    0  0.76076297494E+00  0.47798862600E+02 -0.44918495469E+02  0.65730157929E+02  0.41800000000E+01 0. -1.
         -5    1    3    3    0  502 -0.22992563093E+02 -0.74682726849E+02 -0.57193698630E+02  0.96926566070E+02  0.41800000000E+01 0.  1.
        -11    1    1    2    0    0 -0.29758534884E+02 -0.20204200898E+01 -0.70347612930E+01  0.30645397080E+02  0.00000000000E+00 0.  1.
         11    1    1    2    0    0  0.51990335001E+02  0.28904284339E+02  0.45540386950E+02  0.74915815622E+02  0.00000000000E+00 0. -1.
</event>
<event>
 7    1  0.1068210E-005  0.1005321E+03  0.7561462E-02  0.1279181E+00
         -1   -1    0    0    0  501 -0.00000000000E+00  0.00000000000E+00  0.70624301931E+02  0.70624301931E+02  0.00000000000E+00 0.  1.
          1   -1    0    0  501    0  0.00000000000E+00 -0.00000000000E+00 -0.20025986130E+03  0.20025986130E+03  0.00000000000E+00 0. -1.
         23    2    1    2    0    0  0.32426779179E+02 -0.10646803725E+02 -0.38038419362E+02  0.13513510061E+03  0.12509885544E+03 0.  0.
          5    1    3    3  502    0  0.72966223592E+02 -0.35681706642E+02 -0.18127253158E+02  0.83326608483E+02  0.41800000000E+01 0. -1.
         -5    1    3    3    0  502 -0.40539444413E+02  0.25034902918E+02 -0.19911166204E+02  0.51808492132E+02  0.41800000000E+01 0. -1.
        -11    1    1    2    0    0  0.14277551175E+02  0.19700319641E+02  0.78031217194E+01  0.25550729345E+02  0.00000000000E+00 0.  1.
         11    1    1    2    0    0 -0.46704330354E+02 -0.90535159159E+01 -0.99400261724E+02  0.11019833327E+03  0.00000000000E+00 0. -1.
</event>
<event>
 7    1  0.1068210E-005  0.1178125E+03  0.7561462E-02  0.1246750E+00
         -2   -1    0    0    0  501 -0.00000000000E+00  0.00000000000E+00  0.66306265146E+02  0.66306265146E+02  0.00000000000E+00 0.  1.
          2   -1    0    0  501    0  0.00000000000E+00 -0.00000000000E+00 -0.22173412862E+03  0.22173412862E+03  0.00000000000E+00 0. -1.
         23    2    1    2    0    0 -0.13830470443E+02  0.45859111840E+02 -0.10213827111E+03  0.16844606778E+03  0.12509001268E+03 0.  0.
          5    1    3    3  502    0  0.11326203159E+02 -0.41050533319E+02 -0.40271426870E+02  0.58759589736E+02  0.41800000000E+01 0.  1.
         -5    1    3    3    0  502 -0.25156673603E+02  0.86909645160E+02 -0.61866844244E+02  0.10968647804E+03  0.41800000000E+01 0.  1.
        -11    1    1    2    0    0 -0.23344023083E+02 -0.58509216726E+02 -0.15014892138E+02  0.64758928663E+02  0.00000000000E+00 0. -1.
         11    1    1    2    0    0  0.37174493526E+02  0.12650104886E+02 -0.38274700220E+02  0.54835397322E+02  0.00000000000E+00 0.  1.
</event>
<event>
 7    1  0.1068210E-005  0.1862414E+03  0.7561462E-02  0.1161896E+00
          1   -1    0    0  501    0  0.00000000000E+00  0.00000000000E+00  0.44287346616E+02  0.44287346616E+02  0.00000000000E+00 0. -1.
         -1   -1    0    0    0  501 -0.00000000000E+00 -0.00000000000E+00 -0.87944374867E+03  0.87944374867E+03  0.00000000000E+00 0.  1.
         23    2    1    2    0    0 -0.13469440233E+03 -0.89550360684E+02 -0.51648159292E+03  0.55548219452E+03  0.12508150734E+03 0.  0.
          5    1    3    3  502    0 -0.66811394283E+02  0.12484765593E+02 -0.29049863984E+03  0.29837319572E+03  0.41800000000E+01 0.  1.
         -5    1    3    3    0  502 -0.67883008043E+02 -0.10203512628E+03 -0.22598295308E+03  0.25710899879E+03  0.41800000000E+01 0.  1.
        -11    1    1    2    0    0  0.10583088129E+03  0.21706992598E+02 -0.15726229445E+03  0.19079517347E+03  0.00000000000E+00 0. -1.
         11    1    1    2    0    0  0.28863521040E+02  0.67843368085E+02 -0.16141251468E+03  0.17745372731E+03  0.00000000000E+00 0.  1.
</event>
<event>
 7    1  0.1068210E-005  0.1177150E+03  0.7561462E-02  0.1246915E+00
          4   -1    0    0  501    0  0.00000000000E+00  0.00000000000E+00  0.21142829523E+02  0.21142829523E+02  0.00000000000E+00 0. -1.
         -4   -1    0    0    0  501 -0.00000000000E+00 -0.00000000000E+00 -0.71796714750E+03  0.71796714750E+03  0.00000000000E+00 0.  1.
         23    2    1    2    0    0 -0.57095989601E+02  0.34401704136E+01 -0.44119332399E+03  0.46214542122E+03  0.12512015994E+03 0.  0.
          5    1    3    3  502    0 -0.56600033532E+02 -0.50866715479E+02 -0.32502663692E+03  0.33384243836E+03  0.41800000000E+01 0.  1.
         -5    1    3    3    0  502 -0.49595606885E+00  0.54306885893E+02 -0.11616668706E+03  0.12830298286E+03  0.41800000000E+01 0.  1.
        -11    1    1    2    0    0  0.10298839076E+02 -0.42537789137E+02 -0.82205813013E+02  0.93130689271E+02  0.00000000000E+00 0. -1.
         11    1    1    2    0    0  0.46797150525E+02  0.39097618723E+02 -0.17342518098E+03  0.18383386653E+03  0.00000000000E+00 0.  1.
</event>
<event>
 6    1  0.1068210E-005  0.1082114E+03  0.7561462E-02  0.1263918E+00
          1   -1    0    0  501    0  0.00000000000E+00  0.00000000000E+00  0.89426397911E+02  0.89426397911E+02  0.00000000000E+00 0. -1.
         -1   -1    0    0    0  501 -0.00000000000E+00 -0.00000000000E+00 -0.54975025266E+03  0.54975025266E+03  0.00000000000E+00 0.  1.
          5    1    1    2  502    0  0.66857342498E+02 -0.25686955327E+02 -0.19679269766E+03  0.20946255553E+03  0.41800000000E+01 0. -1.
         -5    1    1    2    0  502 -0.92977613500E+02  0.45321009624E+01 -0.30865740936E+03  0.32241626092E+03  0.41800000000E+01 0.  1.
        -11    1    1    2    0    0 -0.10136203714E+02  0.14726577195E+01  0.61916213288E+02  0.62757699244E+02  0.00000000000E+00 0.  1.
         11    1    1    2    0    0  0.36256474716E+02  0.19682196645E+02 -0.16789961019E+02  0.44540134875E+02  0.00000000000E+00 0. -1.
</event>
<event>
 7    1  0.1068210E-005  0.1933408E+03  0.7561462E-02  0.1155482E+00
          2   -1    0    0  501    0  0.00000000000E+00  0.00000000000E+00  0.46153005812E+03  0.46153005812E+03  0.00000000000E+00 0. -1.
         -2   -1    0    0    0  501 -0.00000000000E+00 -0.00000000000E+00 -0.88755448145E+02  0.88755448145E+02  0.00000000000E+00 0.  1.
         23    2    1    2    0    0  0.14947580033E+03  0.83377212725E+02  0.18003410596E+03  0.27812636560E+03  0.12508885419E+03 0.  0.
          5    1    3    3  502    0  0.79133210612E+02 -0.16506542553E+02  0.11212886896E+03  0.13829275694E+03  0.41800000000E+01 0. -1.
         -5    1    3    3    0  502  0.70342589715E+02  0.99883755278E+02  0.67905237007E+02  0.13983360865E+03  0.41800000000E+01 0. -1.
        -11    1    1    2    0    0 -0.45357180007E+02 -0.62636109775E+02  0.42645544088E+02  0.88313070700E+02  0.00000000000E+00 0.  1.
         11    1    1    2    0    0 -0.10411862032E+03 -0.20741102950E+02  0.15009495992E+03  0.18384606997E+03  0.00000000000E+00 0. -1.
</event>
<event>
 7    1  0.1068210E-005  0.2227968E+03  0.7561462E-02  0.1131815E+00
         -2   -1    0    0    0  501 -0.00000000000E+00  0.00000000000E+00  0.71346156991E+02  0.71346156991E+02  0.00000000000E+00 0.  1.
          2   -1    0    0  501    0  0.00000000000E+00 -0.00000000000E+00 -0.80378208056E+03  0.80378208056E+03  0.00000000000E+00 0. -1.
         23    2    1    2    0    0 -0.32817773792E+02  0.19744208893E+03 -0.24380583487E+03  0.33933675406E+03  0.12509101800E+03 0.  0.
          5    1    3    3  502    0 -0.55394869337E+02  0.19924085830E+03 -0.19021529024E+03  0.28100683303E+03  0.41800000000E+01 0. -1.
         -5    1    3    3    0  502  0.22577095546E+02 -0.17987693729E+01 -0.53590544626E+02  0.58329921034E+02  0.41800000000E+01 0. -1.
        -11    1    1    2    0    0  0.51511490324E+02 -0.18770398626E+03 -0.40212981666E+03  0.44676012528E+03  0.00000000000E+00 0.  1.
         11    1    1    2    0    0 -0.18693716532E+02 -0.97381026752E+01 -0.86500272038E+02  0.89031358207E+02  0.00000000000E+00 0. -1.
</event>
<event>
 7    1  0.3390417E-005  0.2657893E+03  0.7561462E-02  0.1103714E+00
         -1   -1    0    0    0  501 -0.00000000000E+00  0.00000000000E+00  0.26214801444E+03  0.26214801444E+03  0.00000000000E+00 0.  1.
          1   -1    0    0  501    0  0.00000000000E+00 -0.00000000000E+00 -0.35593128992E+03  0.35593128992E+03  0.00000000000E+00 0. -1.
         23    2    1    2    0    0 -0.12833199900E+03  0.21690310361E+03  0.87696578198E+02  0.29471051327E+03  0.12509012143E+03 0.  0.
          5    1    3    3  502    0 -0.63182567162E+02  0.20309912753E+03  0.81034886491E+02  0.22765196601E+03  0.41800000000E+01 0.  1.
         -5    1    3    3    0  502 -0.65149431841E+02  0.13803976079E+02  0.66616917062E+01  0.67058547265E+02  0.41800000000E+01 0.  1.
        -11    1    1    2    0    0  0.83224924167E+02 -0.14677684820E+03 -0.66553320689E+02  0.18138129910E+03  0.00000000000E+00 0.  1.
         11    1    1    2    0    0  0.45107074837E+02 -0.70126255417E+02 -0.11492653299E+03  0.14198749200E+03  0.00000000000E+00 0. -1.
</event>
<event>
 7    1  0.1068210E-005  0.9959723E+02  0.7561462E-02  0.1281145E+00
         -1   -1    0    0    0  501 -0.00000000000E+00  0.00000000000E+00  0.40499105225E+02  0.40499105225E+02  0.00000000000E+00 0.  1.
          1   -1    0    0  501    0  0.00000000000E+00 -0.00000000000E+00 -0.32381484787E+03  0.32381484787E+03  0.00000000000E+00 0. -1.
         23    2    1    2    0    0  0.35059582074E+02 -0.10219328734E+02 -0.14869702551E+03  0.19771776159E+03  0.12509156198E+03 0.  0.
          5    1    3    3  502    0  0.70644233743E+02 -0.75884113410E+01 -0.14509565918E+03  0.16161192549E+03  0.41800000000E+01 0.  1.
         -5    1    3    3    0  502 -0.35584651670E+02 -0.26309173933E+01 -0.36013663249E+01  0.36105836096E+02  0.41800000000E+01 0.  1.
        -11    1    1    2    0    0  0.27921089274E+02  0.81268728978E+01 -0.18456136115E+02  0.34442158028E+02  0.00000000000E+00 0.  1.
         11    1    1    2    0    0 -0.62980671348E+02  0.20924558364E+01 -0.11616258103E+03  0.13215403348E+03  0.00000000000E+00 0. -1.
</event>
<event>
 7    1  0.1068210E-005  0.1688988E+03  0.7561462E-02  0.1179001E+00
         -1   -1    0    0    0  501 -0.00000000000E+00  0.00000000000E+00  0.30490385741E+03  0.30490385741E+03  0.00000000000E+00 0.  1.
          1   -1    0    0  501    0  0.00000000000E+00 -0.00000000000E+00 -0.10504812885E+03  0.10504812885E+03  0.00000000000E+00 0. -1.
         23    2    1    2    0    0  0.78340870385E+02 -0.11608630653E+03  0.13435004565E+03  0.23089144654E+03  0.12509037845E+03 0.  0.
          5    1    3    3  502    0  0.20242827329E+02 -0.11842959922E+03  0.12204420328E+03  0.17131141814E+03  0.41800000000E+01 0. -1.
         -5    1    3    3    0  502  0.58098043056E+02  0.23432926889E+01  0.12305842372E+02  0.59580028399E+02  0.41800000000E+01 0. -1.
        -11    1    1    2    0    0  0.15240864483E+02  0.20122731906E+02 -0.76246479880E+01  0.26369367579E+02  0.00000000000E+00 0. -1.
         11    1    1    2    0    0 -0.93581734868E+02  0.95963574624E+02  0.73130330887E+02  0.15269117215E+03  0.00000000000E+00 0.  1.
</event>
<event>
 7    1  0.1068210E-005  0.8013116E+02  0.7561462E-02  0.1328680E+00
          1   -1    0    0  501    0  0.00000000000E+00  0.00000000000E+00  0.33771809365E+03  0.33771809365E+03  0.00000000000E+00 0. -1.
         -1   -1    0    0    0  501 -0.00000000000E+00 -0.00000000000E+00 -0.58897067585E+02  0.58897067585E+02  0.00000000000E+00 0.  1.
         23    2    1    2    0    0  0.20401678015E+02  0.25086536262E+02  0.35364008249E+02  0.13394954962E+03  0.12508519495E+03 0.  0.
          5    1    3    3  502    0 -0.48439884682E+01 -0.18818918902E+02  0.69791947006E+02  0.72567239164E+02  0.41800000000E+01 0. -1.
         -5    1    3    3    0  502  0.25245666484E+02  0.43905455164E+02 -0.34427938757E+02  0.61382310452E+02  0.41800000000E+01 0. -1.
        -11    1    1    2    0    0 -0.10040019508E+02 -0.56036465670E+02  0.95749107398E+02  0.11139469935E+03  0.00000000000E+00 0.  1.
         11    1    1    2    0    0 -0.10361658507E+02  0.30949929409E+02  0.14770791042E+03  0.15127091226E+03  0.00000000000E+00 0. -1.
</event>
<event>
 7    1  0.1068210E-005  0.1182295E+03  0.7561462E-02  0.1246047E+00
          1   -1    0    0  501    0  0.00000000000E+00  0.00000000000E+00  0.39795054568E+03  0.39795054568E+03  0.00000000000E+00 0. -1.
         -1   -1    0    0    0  501 -0.00000000000E+00 -0.00000000000E+00 -0.64630827428E+02  0.64630827428E+02  0.00000000000E+00 0.  1.
         23    2    1    2    0    0 -0.54262063749E+02  0.68081006559E+02  0.64769998501E+02  0.16559125285E+03  0.12508363322E+03 0.  0.
          5    1    3    3  502    0  0.24002587175E+02  0.30611891435E+02 -0.20236380632E+02  0.44047651349E+02  0.41800000000E+01 0. -1.
         -5    1    3    3    0  502 -0.78264650925E+02  0.37469115124E+02  0.85006379133E+02  0.12154360150E+03  0.41800000000E+01 0. -1.
        -11    1    1    2    0    0  0.34189619943E+02 -0.80083081423E+02  0.12991996249E+03  0.15640149199E+03  0.00000000000E+00 0.  1.
         11    1    1    2    0    0  0.20072443807E+02  0.12002074864E+02  0.13862975726E+03  0.14058862827E+03  0.00000000000E+00 0. -1.
</event>
<event>
 7    1  0.1068210E-005  0.2000169E+03  0.7561462E-02  0.1149725E+00
         -3   -1    0    0    0  501 -0.00000000000E+00  0.00000000000E+00  0.38022098667E+03  0.38022098667E+03  0.00000000000E+00 0.  1.
          3   -1    0    0  501    0  0.00000000000E+00 -0.00000000000E+00 -0.12432250504E+03  0.12432250504E+03  0.00000000000E+00 0. -1.
         23    2    1    2    0    0  0.12464717514E+03  0.12676976886E+03  0.20546265628E+03  0.29912105243E+03  0.12510398999E+03 0.  0.
          5    1    3    3  502    0 -0.10234042125E+02  0.50644738124E+02  0.15744920472E+02  0.54175640638E+02  0.41800000000E+01 0. -1.
         -5    1    3    3    0  502  0.13488121727E+03  0.76125030734E+02  0.18971773581E+03  0.24494541179E+03  0.41800000000E+01 0. -1.
        -11    1    1    2    0    0 -0.46901662504E+02 -0.10099305080E+03  0.53329276860E+02  0.12346405965E+03  0.00000000000E+00 0.  1.
         11    1    1    2    0    0 -0.77745512640E+02 -0.25776718057E+02 -0.28934515110E+01  0.81958379627E+02  0.00000000000E+00 0. -1.
</event>
<event>
 7    1  0.1068210E-005  0.7395693E+02  0.7561462E-02  0.1347132E+00
         -2   -1    0    0    0  501 -0.00000000000E+00  0.00000000000E+00  0.23974749660E+02  0.23974749660E+02  0.00000000000E+00 0.  1.
          2   -1    0    0  501    0  0.00000000000E+00 -0.00000000000E+00 -0.67604873285E+03  0.67604873285E+03  0.00000000000E+00 0. -1.
         23    2    1    2    0    0 -0.49309360644E+02  0.35650468644E+02 -0.43464949516E+03  0.45636632545E+03  0.12509064872E+03 0.  0.
          5    1    3    3  502    0 -0.41111801771E+02  0.12798569964E+02 -0.42889107615E+03  0.43106729317E+03  0.41800000000E+01 0. -1.
         -5    1    3    3    0  502 -0.81975588731E+01  0.22851898680E+02 -0.57584190101E+01  0.25299032279E+02  0.41800000000E+01 0. -1.
        -11    1    1    2    0    0  0.81647309516E+01 -0.37941637667E+02 -0.23430119967E+02  0.45334327193E+02  0.00000000000E+00 0.  1.
         11    1    1    2    0    0  0.41144629693E+02  0.22911690235E+01 -0.19399436806E+03  0.19832282987E+03  0.00000000000E+00 0. -1.
</event>
<event>
 7    1  0.1068210E-005  0.1015705E+03  0.7561462E-02  0.1277028E+00
          3   -1    0    0  501    0  0.00000000000E+00  0.00000000000E+00  0.94715261612E+02  0.94715261612E+02  0.00000000000E+00 0. -1.
         -3   -1    0    0    0  501 -0.00000000000E+00 -0.00000000000E+00 -0.16982843333E+03  0.16982843333E+03  0.00000000000E+00 0.  1.
         23    2    1    2    0    0  0.59317106065E+02  0.25046887991E+02 -0.27499697227E+02  0.14335091056E+03  0.12508950611E+03 0.  0.
          5    1    3    3  502    0  0.74520203824E+02  0.10222709645E+02 -0.65364064657E+02  0.99738146759E+02  0.41800000000E+01 0.  1.
         -5    1    3    3    0  502 -0.15203097760E+02  0.14824178346E+02  0.37864367430E+02  0.43612763797E+02  0.41800000000E+01 0.  1.
        -11    1    1    2    0    0 -0.50879660912E+02  0.24100386469E+02 -0.43520172952E+02  0.71158794089E+02  0.00000000000E+00 0.  1.
         11    1    1    2    0    0 -0.84374451527E+01 -0.49147274460E+02 -0.40933015401E+01  0.50033990297E+02  0.00000000000E+00 0. -1.
</event>
<event>
 7    1  0.1068210E-005  0.9500526E+02  0.7561462E-02  0.1291164E+00
         -1   -1    0    0    0  501 -0.00000000000E+00  0.00000000000E+00  0.11696642620E+03  0.11696642620E+03  0.00000000000E+00 0.  1.
          1   -1    0    0  501    0  0.00000000000E+00 -0.00000000000E+00 -0.18105664136E+03  0.18105664136E+03  0.00000000000E+00 0. -1.
         23    2    1    2    0    0 -0.74114964754E+02 -0.31369417978E+02  0.23001651417E+02  0.15048444152E+03  0.12505767784E+03 0.  0.
          5    1    3    3  502    0 -0.70713668280E+02 -0.52948378923E+01  0.67911779230E+02  0.98274820519E+02  0.41800000000E+01 0.  1.
         -5    1    3    3    0  502 -0.34012964744E+01 -0.26074580086E+02 -0.44910127814E+02  0.52209620997E+02  0.41800000000E+01 0.  1.
        -11    1    1    2    0    0  0.44165581232E+02 -0.58784624308E+01 -0.89187769438E+02  0.99697608313E+02  0.00000000000E+00 0. -1.
         11    1    1    2    0    0  0.29949383522E+02  0.37247880409E+02  0.20959028615E+01  0.47841017726E+02  0.00000000000E+00 0.  1.
</event>
<event>
 7    1  0.1068210E-005  0.6646984E+02  0.7561462E-02  0.1372526E+00
         -2   -1    0    0    0  501 -0.00000000000E+00  0.00000000000E+00  0.20850627680E+03  0.20850627680E+03  0.00000000000E+00 0.  1.
          2   -1    0    0  501    0  0.00000000000E+00 -0.00000000000E+00 -0.65990613015E+02  0.65990613015E+02  0.00000000000E+00 0. -1.
         23    2    1    2    0    0  0.13510021202E+02 -0.32136326738E+02  0.11401114657E+03  0.17280279805E+03  0.12508797425E+03 0.  0.
          5    1    3    3  502    0  0.32022707910E+02 -0.50222472818E+02  0.12932344052E+03  0.14244218219E+03  0.41800000000E+01 0. -1.
         -5    1    3    3    0  502 -0.18512686708E+02  0.18086146081E+02 -0.15312293952E+02  0.30360615858E+02  0.41800000000E+01 0. -1.
        -11    1    1    2    0    0 -0.22066675544E+02  0.11963116393E+02 -0.30061369950E+02  0.39162996396E+02  0.00000000000E+00 0. -1.
         11    1    1    2    0    0  0.85566543419E+01  0.20173210344E+02  0.58565887164E+02  0.62531095372E+02  0.00000000000E+00 0.  1.
</event>
<event>
 7    1  0.1068210E-005  0.1292215E+03  0.7561462E-02  0.1228615E+00
         -2   -1    0    0    0  501 -0.00000000000E+00  0.00000000000E+00  0.35132510537E+02  0.35132510537E+02  0.00000000000E+00 0.  1.
          2   -1    0    0  501    0  0.00000000000E+00 -0.00000000000E+00 -0.70280420683E+03  0.70280420683E+03  0.00000000000E+00 0. -1.
         23    2    1    2    0    0  0.92547943250E+02 -0.57604692871E+02 -0.28639576353E+03  0.33098946791E+03  0.12509225420E+03 0.  0.
          5    1    3    3  502    0  0.64170463891E+02 -0.14523537988E+01 -0.37985603420E+02  0.74701648139E+02  0.41800000000E+01 0.  1.
         -5    1    3    3    0  502  0.28377479359E+02 -0.56152339072E+02 -0.24841016011E+03  0.25628781977E+03  0.41800000000E+01 0.  1.
        -11    1    1    2    0    0 -0.28198637897E+01  0.39411224059E+02 -0.52777928654E+02  0.65929553060E+02  0.00000000000E+00 0.  1.
         11    1    1    2    0    0 -0.89728079460E+02  0.18193468811E+02 -0.32849800411E+03  0.34101769640E+03  0.00000000000E+00 0. -1.
</event>
<event>
 7    1  0.1068210E-005  0.9614311E+02  0.7561462E-02  0.1288622E+00
          1   -1    0    0  501    0  0.00000000000E+00  0.00000000000E+00  0.75076934229E+02  0.75076934229E+02  0.00000000000E+00 0. -1.
         -1   -1    0    0    0  501 -0.00000000000E+00 -0.00000000000E+00 -0.28952799174E+03  0.28952799174E+03  0.00000000000E+00 0.  1.
         23    2    1    2    0    0  0.75094044958E+02  0.29872174779E+02 -0.19055650078E+03  0.24181751722E+03  0.12502987336E+03 0.  0.
          5    1    3    3  502    0  0.77499101992E+02  0.47871491823E+02 -0.20081288282E+03  0.22054722135E+03  0.41800000000E+01 0.  1.
         -5    1    3    3    0  502 -0.24050570340E+01 -0.17999317044E+02  0.10256382049E+02  0.21270295863E+02  0.41800000000E+01 0.  1.
        -11    1    1    2    0    0 -0.44974482477E+02 -0.91264482480E+01  0.32031598701E+02  0.55964448063E+02  0.00000000000E+00 0. -1.
         11    1    1    2    0    0 -0.30119562482E+02 -0.20745726531E+02 -0.55926155435E+02  0.66822960688E+02  0.00000000000E+00 0.  1.
</event>
<event>
 7    1  0.1068210E-005  0.8128999E+02  0.7561462E-02  0.1325430E+00
          1   -1    0    0  501    0  0.00000000000E+00  0.00000000000E+00  0.38450558368E+02  0.38450558368E+02  0.00000000000E+00 0. -1.
         -1   -1    0    0    0  501 -0.00000000000E+00 -0.00000000000E+00 -0.38093251000E+03  0.38093251000E+03  0.00000000000E+00 0.  1.
         23    2    1    2    0    0 -0.30769606219E+02 -0.38003572487E+02 -0.20847102432E+03  0.24798770871E+03  0.12508675189E+03 0.  0.
          5    1    3    3  502    0  0.11364413889E+02 -0.52714044666E+01  0.13955305439E+02  0.19213551415E+02  0.41800000000E+01 0. -1.
         -5    1    3    3    0  502 -0.42134020108E+02 -0.32732168020E+02 -0.22242632976E+03  0.22877415729E+03  0.41800000000E+01 0. -1.
        -11    1    1    2    0    0 -0.27088413250E+02  0.24315081437E+02 -0.91010190099E+02  0.98019691999E+02  0.00000000000E+00 0.  1.
         11    1    1    2    0    0  0.57858019469E+02  0.13688491050E+02 -0.43000737210E+02  0.73375667661E+02  0.00000000000E+00 0. -1.
</event>
<event>
 7    1  0.1068210E-005  0.1067818E+03  0.7561462E-02  0.1266648E+00
         -4   -1    0    0    0  501 -0.00000000000E+00  0.00000000000E+00  0.56267141179E+02  0.56267141179E+02  0.00000000000E+00 0.  1.
          4   -1    0    0  501    0  0.00000000000E+00 -0.00000000000E+00 -0.25432420041E+03  0.25432420041E+03  0.00000000000E+00 0. -1.
         23    2    1    2    0    0  0.21176069604E+02 -0.27543699472E+02 -0.99657430233E+02  0.16366249944E+03  0.12508688588E+03 0.  0.
          5    1    3    3  502    0 -0.73978632775E+01 -0.72266463639E+02 -0.76589039886E+02  0.10564337925E+03  0.41800000000E+01 0.  1.
         -5    1    3    3    0  502  0.28573932881E+02  0.44722764167E+02 -0.23068390347E+02  0.58019120196E+02  0.41800000000E+01 0.  1.
        -11    1    1    2    0    0 -0.51872205249E+02  0.22120102710E+02 -0.15680341762E+02  0.58531168954E+02  0.00000000000E+00 0.  1.
         11    1    1    2    0    0  0.30696135645E+02  0.54235967626E+01 -0.82719287240E+02  0.88397673198E+02  0.00000000000E+00 0. -1.
</event>
<event>
 7    1  0.1068210E-005  0.9612823E+02  0.7561462E-02  0.1288655E+00
         -2   -1    0    0    0  501 -0.00000000000E+00  0.00000000000E+00  0.29331901535E+03  0.29331901535E+03  0.00000000000E+00 0.  1.
          2   -1    0    0  501    0  0.00000000000E+00 -0.00000000000E+00 -0.61159772627E+02  0.61159772627E+02  0.00000000000E+00 0. -1.
         23    2    1    2    0    0 -0.21133930422E+02  0.69931519152E+02  0.16626608344E+03  0.22052013786E+03  0.12509060842E+03 0.  0.
          5    1    3    3  502    0  0.34298126250E+01 -0.21895275084E+02  0.10490678827E+03  0.10730365003E+03  0.41800000000E+01 0. -1.
         -5    1    3    3    0  502 -0.24563743047E+02  0.91826794236E+02  0.61359295169E+02  0.11321648783E+03  0.41800000000E+01 0. -1.
        -11    1    1    2    0    0  0.17615521055E+02 -0.32563201079E+02  0.84361236718E+02  0.92127557805E+02  0.00000000000E+00 0.  1.
         11    1    1    2    0    0  0.35184093670E+01 -0.37368318072E+02 -0.18468077432E+02  0.41831092313E+02  0.00000000000E+00 0. -1.
</event>
<event>
 7    1  0.1068210E-005  0.8416259E+02  0.7561462E-02  0.1317637E+00
          2   -1    0    0  501    0  0.00000000000E+00  0.00000000000E+00  0.14505747122E+03  0.14505747122E+03  0.00000000000E+00 0. -1.
         -2   -1    0    0    0  501 -0.00000000000E+00 -0.00000000000E+00 -0.10021460833E+03  0.10021460833E+03  0.00000000000E+00 0.  1.
         23    2    1    2    0    0  0.21710319691E+02 -0.13570157353E+02 -0.23344806759E+02  0.12979645246E+03  0.12508657769E+03 0.  0.
          5    1    3    3  502    0  0.55795425725E+02 -0.42798375929E+02  0.13301851957E+02  0.71688508002E+02  0.41800000000E+01 0.  1.
         -5    1    3    3    0  502 -0.34085106034E+02  0.29228218576E+02 -0.36646658716E+02  0.58107944461E+02  0.41800000000E+01 0.  1.
        -11    1    1    2    0    0  0.12044668499E+02 -0.63253750795E+01  0.74549324171E+02  0.75780512954E+02  0.00000000000E+00 0. -1.
         11    1    1    2    0    0 -0.33754988191E+02  0.19895532432E+02 -0.63616545217E+01  0.39695114142E+02  0.00000000000E+00 0.  1.
</event>
<event>
 7    1  0.1068210E-005  0.1384329E+03  0.7561462E-02  0.1215453E+00
          4   -1    0    0  501    0  0.00000000000E+00  0.00000000000E+00  0.72448589033E+03  0.72448589033E+03  0.00000000000E+00 0. -1.
         -4   -1    0    0    0  501 -0.00000000000E+00 -0.00000000000E+00 -0.38659637887E+02  0.38659637887E+02  0.00000000000E+00 0.  1.
         23    2    1    2    0    0  0.83088266030E+02  0.70571823025E+02  0.21552427037E+03  0.27199555686E+03  0.12508728822E+03 0.  0.
          5    1    3    3  502    0  0.76898019574E+02  0.97901821611E+02  0.20838870862E+03  0.24277849651E+03  0.41800000000E+01 0. -1.
         -5    1    3    3    0  502  0.61902464558E+01 -0.27329998586E+02  0.71355617561E+01  0.29217060350E+02  0.41800000000E+01 0. -1.
        -11    1    1    2    0    0  0.93902093880E+01 -0.77286373478E+01  0.59741315190E+01  0.13549838191E+02  0.00000000000E+00 0.  1.
         11    1    1    2    0    0 -0.92478475418E+02 -0.62843185677E+02  0.46432785055E+03  0.47760013316E+03  0.00000000000E+00 0. -1.
</event>
<event>
 7    1  0.1068210E-005  0.1044891E+03  0.7561462E-02  0.1271129E+00
         -1   -1    0    0    0  501 -0.00000000000E+00  0.00000000000E+00  0.43259950790E+02  0.43259950790E+02  0.00000000000E+00 0.  1.
          1   -1    0    0  501    0  0.00000000000E+00 -0.00000000000E+00 -0.29906943930E+03  0.29906943930E+03  0.00000000000E+00 0. -1.
         23    2    1    2    0    0 -0.32038138520E+02 -0.39880936986E+02 -0.10075743857E+03  0.15843399311E+03  0.11105105714E+03 0.  0.
          5    1    3    3  502    0 -0.58633316691E+02  0.13541708978E+02 -0.65277809924E+02  0.88881429876E+02  0.41800000000E+01 0. -1.
         -5    1    3    3    0  502  0.26595178171E+02 -0.53422645964E+02 -0.35479628646E+02  0.69552563235E+02  0.41800000000E+01 0.  1.
        -11    1    1    2    0    0  0.32544146787E+02 -0.13656951880E+02 -0.10435254067E+03  0.11015936895E+03  0.00000000000E+00 0.  1.
         11    1    1    2    0    0 -0.50600826691E+00  0.53537888865E+02 -0.50699509274E+02  0.73736028026E+02  0.00000000000E+00 0. -1.
</event>
<event>
 7    1  0.1068210E-005  0.1034047E+03  0.7561462E-02  0.1273295E+00
         -1   -1    0    0    0  501 -0.00000000000E+00  0.00000000000E+00  0.66041306633E+02  0.66041306633E+02  0.00000000000E+00 0.  1.
          1   -1    0    0  501    0  0.00000000000E+00 -0.00000000000E+00 -0.19792442710E+03  0.19792442710E+03  0.00000000000E+00 0. -1.
         23    2    1    2    0    0  0.32370212582E+02 -0.73369208192E+01 -0.54942479703E+02  0.14059569036E+03  0.12508721359E+03 0.  0.
          5    1    3    3  502    0  0.36564382460E+01  0.50983838547E+02 -0.55345529457E+02  0.75454101045E+02  0.41800000000E+01 0.  1.
         -5    1    3    3    0  502  0.28713774336E+02 -0.58320759367E+02  0.40304975419E+00  0.65141589317E+02  0.41800000000E+01 0.  1.
        -11    1    1    2    0    0 -0.61226050707E+02  0.53590015993E+01 -0.70885412600E+02  0.93819453755E+02  0.00000000000E+00 0. -1.
         11    1    1    2    0    0  0.28855838126E+02  0.19779192199E+01 -0.60552281624E+01  0.29550589613E+02  0.00000000000E+00 0.  1.
</event>
<event>
 7    1  0.1068210E-005  0.1370867E+03  0.7561462E-02  0.1217304E+00
         -2   -1    0    0    0  501 -0.00000000000E+00  0.00000000000E+00  0.19576111413E+03  0.19576111413E+03  0.00000000000E+00 0.  1.
          2   -1    0    0  501    0  0.00000000000E+00 -0.00000000000E+00 -0.20028780421E+03  0.20028780421E+03  0.00000000000E+00 0. -1.
         23    2    1    2    0    0 -0.43724075820E+02  0.11910283943E+03  0.10406708771E+03  0.20633644970E+03  0.12508992990E+03 0.  0.
          5    1    3    3  502    0  0.12739078520E+02  0.57322100255E+02 -0.14987037563E+02  0.60746942262E+02  0.41800000000E+01 0.  1.
         -5    1    3    3    0  502 -0.56463154340E+02  0.61780739172E+02  0.11905412527E+03  0.14558950743E+03  0.41800000000E+01 0.  1.
        -11    1    1    2    0    0  0.14565152104E+02 -0.86692922350E+02 -0.18801388630E+02  0.89896043605E+02  0.00000000000E+00 0.  1.
         11    1    1    2    0    0  0.29158923716E+02 -0.32409917077E+02 -0.89792389152E+02  0.99816425035E+02  0.00000000000E+00 0. -1.
</event>
<event>
 7    1  0.1068210E-005  0.1110615E+03  0.7561462E-02  0.1258617E+00
          2   -1    0    0  501    0  0.00000000000E+00  0.00000000000E+00  0.57008368309E+02  0.57008368309E+02  0.00000000000E+00 0. -1.
         -2   -1    0    0    0  501 -0.00000000000E+00 -0.00000000000E+00 -0.35226289953E+03  0.35226289953E+03  0.00000000000E+00 0.  1.
         23    2    1    2    0    0  0.32934790937E+02 -0.80869717712E+02 -0.19208090996E+03  0.24529193727E+03  0.12509375213E+03 0.  0.
          5    1    3    3  502    0 -0.73989182859E+01  0.75454202640E+01 -0.12868566345E+03  0.12918649208E+03  0.41800000000E+01 0. -1.
         -5    1    3    3    0  502  0.40333709223E+02 -0.88415137976E+02 -0.63395246508E+02  0.11610544519E+03  0.41800000000E+01 0. -1.
        -11    1    1    2    0    0 -0.53789770488E+02  0.38135484606E+02 -0.95138094553E+02  0.11575366789E+03  0.00000000000E+00 0. -1.
         11    1    1    2    0    0  0.20854979551E+02  0.42734233106E+02 -0.80355267117E+01  0.48225662678E+02  0.00000000000E+00 0.  1.
</event>
<event>
 7    1  0.1068210E-005  0.1189826E+03  0.7561462E-02  0.1244785E+00
         -2   -1    0    0    0  501 -0.00000000000E+00  0.00000000000E+00  0.95676465894E+02  0.95676465894E+02  0.00000000000E+00 0.  1.
          2   -1    0    0  501    0  0.00000000000E+00 -0.00000000000E+00 -0.19496594443E+03  0.19496594443E+03  0.00000000000E+00 0. -1.
         23    2    1    2    0    0 -0.85199623055E+02  0.25741709957E+02 -0.31916483667E+02  0.14681114826E+03  0.11230868142E+03 0.  0.
          5    1    3    3  502    0 -0.10104316694E+03  0.50921637999E+02 -0.26474144505E+02  0.11628021125E+03  0.41800000000E+01 0. -1.
         -5    1    3    3    0  502  0.15843543884E+02 -0.25179928042E+02 -0.54423391620E+01  0.30530937008E+02  0.41800000000E+01 0.  1.
        -11    1    1    2    0    0  0.41392877576E+02 -0.29349177008E+02  0.12860678166E+02  0.52346361363E+02  0.00000000000E+00 0.  1.
         11    1    1    2    0    0  0.43806745479E+02  0.36074670512E+01 -0.80233673038E+02  0.91484900705E+02  0.00000000000E+00 0. -1.
</event>
<event>
 7    1  0.1068210E-005  0.1453017E+03  0.7561462E-02  0.1206368E+00
          1   -1    0    0  501    0  0.00000000000E+00  0.00000000000E+00  0.63801370057E+03  0.63801370057E+03  0.00000000000E+00 0. -1.
         -1   -1    0    0    0  501 -0.00000000000E+00 -0.00000000000E+00 -0.11418764586E+03  0.11418764586E+03  0.00000000000E+00 0.  1.
         23    2    1    2    0    0  0.76972367480E+02  0.84945915735E+02 -0.35912030154E+02  0.17342039618E+03  0.12507759969E+03 0.  0.
          5    1    3    3  502    0  0.92289986525E+02  0.87636703887E+02 -0.62874148002E+02  0.14201501459E+03  0.41800000000E+01 0.  1.
         -5    1    3    3    0  502 -0.15317619044E+02 -0.26907881521E+01  0.26962117848E+02  0.31405381591E+02  0.41800000000E+01 0.  1.
        -11    1    1    2    0    0 -0.95347169665E+02 -0.49960404691E+02  0.40068690720E+03  0.41489410987E+03  0.00000000000E+00 0. -1.
         11    1    1    2    0    0  0.18374802185E+02 -0.34985511044E+02  0.15905117766E+03  0.16388684039E+03  0.00000000000E+00 0.  1.
</event>
<event>
 7    1  0.1068210E-005  0.1078629E+03  0.7561462E-02  0.1264579E+00
          1   -1    0    0  501    0  0.00000000000E+00  0.00000000000E+00  0.15373052296E+03  0.15373052296E+03  0.00000000000E+00 0. -1.
         -1   -1    0    0    0  501 -0.00000000000E+00 -0.00000000000E+00 -0.12891770810E+03  0.12891770810E+03  0.00000000000E+00 0.  1.
         23    2    1    2    0    0 -0.70478938851E+02  0.11408340242E+02 -0.43036326824E+02  0.15033260269E+03  0.12510129878E+03 0.  0.
          5    1    3    3  502    0 -0.56006276587E+02  0.59212926546E+02  0.38466444829E+01  0.81701546870E+02  0.41800000000E+01 0.  1.
         -5    1    3    3    0  502 -0.14472662265E+02 -0.47804586304E+02 -0.46882971307E+02  0.68631055823E+02  0.41800000000E+01 0.  1.
        -11    1    1    2    0    0  0.44364438513E+02 -0.28548196352E+02  0.82411413135E+02  0.97851131492E+02  0.00000000000E+00 0. -1.
         11    1    1    2    0    0  0.26114500338E+02  0.17139856111E+02 -0.14562271443E+02  0.34464496877E+02  0.00000000000E+00 0.  1.
</event>
<event>
 7    1  0.1068210E-005  0.2044400E+03  0.7561462E-02  0.1146046E+00
          1   -1    0    0  501    0  0.00000000000E+00  0.00000000000E+00  0.71850252993E+02  0.71850252993E+02  0.00000000000E+00 0. -1.
         -1   -1    0    0    0  501 -0.00000000000E+00 -0.00000000000E+00 -0.13484588867E+04  0.13484588867E+04  0.00000000000E+00 0.  1.
         23    2    1    2    0    0  0.66146080264E+02 -0.17014155529E+03 -0.11692880105E+04  0.11900442794E+04  0.12508989854E+03 0.  0.
          5    1    3    3  502    0 -0.19967158990E+01  0.10966372015E+02 -0.12832295264E+02  0.17503953590E+02  0.41800000000E+01 0. -1.
         -5    1    3    3    0  502  0.68142796163E+02 -0.18110792731E+03 -0.11564557152E+04  0.11725403258E+04  0.41800000000E+01 0. -1.
        -11    1    1    2    0    0  0.14793551099E+02  0.83736994501E+02 -0.51035225840E+02  0.99173220572E+02  0.00000000000E+00 0. -1.
         11    1    1    2    0    0 -0.80939631363E+02  0.86404560791E+02 -0.56285397428E+02  0.13109163976E+03  0.00000000000E+00 0.  1.
</event>
<event>
 7    1  0.1068210E-005  0.1189434E+03  0.7561462E-02  0.1244850E+00
         -1   -1    0    0    0  501 -0.00000000000E+00  0.00000000000E+00  0.28421410423E+03  0.28421410423E+03  0.00000000000E+00 0.  1.
          1   -1    0    0  501    0  0.00000000000E+00 -0.00000000000E+00 -0.10740595113E+03  0.10740595113E+03  0.00000000000E+00 0. -1.
         23    2    1    2    0    0 -0.84444951656E+02  0.15064613663E+02  0.21280990072E+03  0.26132735368E+03  0.12508412966E+03 0.  0.
          5    1    3    3  502    0  0.19143616154E+02  0.45177050471E+01  0.12033730255E+03  0.12200584610E+03  0.41800000000E+01 0.  1.
         -5    1    3    3    0  502 -0.10358856781E+03  0.10546908616E+02  0.92472598170E+02  0.13932150758E+03  0.41800000000E+01 0.  1.
        -11    1    1    2    0    0  0.97232534442E+02 -0.51136181731E+01 -0.76874040804E+01  0.97669908500E+02  0.00000000000E+00 0.  1.
         11    1    1    2    0    0 -0.12787582786E+02 -0.99509954901E+01 -0.28314343539E+02  0.32622793179E+02  0.00000000000E+00 0. -1.
</event>
<event>
 7    1  0.1068210E-005  0.9230654E+02  0.7561462E-02  0.1297360E+00
         -3   -1    0    0    0  501 -0.00000000000E+00  0.00000000000E+00  0.16722672167E+03  0.16722672167E+03  0.00000000000E+00 0.  1.
          3   -1    0    0  501    0  0.00000000000E+00 -0.00000000000E+00 -0.77184333467E+02  0.77184333467E+02  0.00000000000E+00 0. -1.
         23    2    1    2    0    0 -0.34322644628E+02  0.42172178307E+01  0.60648338351E+02  0.14325432760E+03  0.12509097717E+03 0.  0.
          5    1    3    3  502    0  0.26906587258E+02  0.53772423008E+01 -0.25354752196E+02  0.37592752380E+02  0.41800000000E+01 0.  1.
         -5    1    3    3    0  502 -0.61229231886E+02 -0.11600244700E+01  0.86003090546E+02  0.10566157522E+03  0.41800000000E+01 0.  1.
        -11    1    1    2    0    0 -0.28828463472E+02 -0.13166928378E+02  0.17735014010E+02  0.36317750908E+02  0.00000000000E+00 0.  1.
         11    1    1    2    0    0  0.63151108101E+02  0.89497105470E+01  0.11659035839E+02  0.64838976626E+02  0.00000000000E+00 0. -1.
</event>
<event>
 7    1  0.1068210E-005  0.1970835E+03  0.7561462E-02  0.1152223E+00
         -1   -1    0    0    0  501 -0.00000000000E+00  0.00000000000E+00  0.12348348620E+03  0.12348348620E+03  0.00000000000E+00 0.  1.
          1   -1    0    0  501    0  0.00000000000E+00 -0.00000000000E+00 -0.39103235460E+03  0.39103235460E+03  0.00000000000E+00 0. -1.
         23    2    1    2    0    0  0.24851104127E+02  0.17001322025E+03 -0.41592342067E+02  0.21656298076E+03  0.12509008465E+03 0.  0.
          5    1    3    3  502    0 -0.35345860568E+02  0.11503459444E+03 -0.57429559259E+02  0.13340882450E+03  0.41800000000E+01 0. -1.
         -5    1    3    3    0  502  0.60196964695E+02  0.54978625809E+02  0.15837217192E+02  0.83154156257E+02  0.41800000000E+01 0. -1.
        -11    1    1    2    0    0  0.25472646600E+01  0.98540455962E+01 -0.39522953002E+01  0.10918397776E+02  0.00000000000E+00 0.  1.
         11    1    1    2    0    0 -0.27398368787E+02 -0.17986726585E+03 -0.22200423103E+03  0.28703446227E+03  0.00000000000E+00 0. -1.
</event>
<event>
 7    1  0.1068210E-005  0.1035818E+03  0.7561462E-02  0.1272939E+00
          2   -1    0    0  501    0  0.00000000000E+00  0.00000000000E+00  0.42906252912E+03  0.42906252912E+03  0.00000000000E+00 0. -1.
         -2   -1    0    0    0  501 -0.00000000000E+00 -0.00000000000E+00 -0.37776956879E+02  0.37776956879E+02  0.00000000000E+00 0.  1.
         23    2    1    2    0    0  0.27285956950E+02  0.51412643657E+02  0.16429527196E+03  0.21454226039E+03  0.12509061408E+03 0.  0.
          5    1    3    3  502    0  0.41077023590E+01  0.74471984293E+02  0.37603171251E+02  0.83632652424E+02  0.41800000000E+01 0.  1.
         -5    1    3    3    0  502  0.23178254591E+02 -0.23059340637E+02  0.12669210071E+03  0.13090960797E+03  0.41800000000E+01 0.  1.
        -11    1    1    2    0    0 -0.50870469899E+02 -0.55803360850E+02  0.11366665091E+03  0.13646218275E+03  0.00000000000E+00 0.  1.
         11    1    1    2    0    0  0.23584512949E+02  0.43907171929E+01  0.11332364937E+03  0.11583504286E+03  0.00000000000E+00 0. -1.
</event>
<event>
 7    1  0.1068210E-005  0.8682335E+02  0.7561462E-02  0.1310732E+00
          1   -1    0    0  501    0  0.00000000000E+00  0.00000000000E+00  0.51412670465E+03  0.51412670465E+03  0.00000000000E+00 0. -1.
         -1   -1    0    0    0  501 -0.00000000000E+00 -0.00000000000E+00 -0.31579774119E+02  0.31579774119E+02  0.00000000000E+00 0.  1.
         23    2    1    2    0    0  0.42793464908E+02 -0.35250363122E+02  0.18840680681E+03  0.23284885586E+03  0.12509035167E+03 0.  0.
          5    1    3    3  502    0  0.10656042260E+02  0.78222260597E+01  0.17726506278E+03  0.17780639286E+03  0.41800000000E+01 0. -1.
         -5    1    3    3    0  502  0.32137422648E+02 -0.43072589181E+02  0.11141744029E+02  0.55042463001E+02  0.41800000000E+01 0. -1.
        -11    1    1    2    0    0 -0.71316418575E+02  0.25113689405E+02  0.19289003513E+03  0.20717937785E+03  0.00000000000E+00 0.  1.
         11    1    1    2    0    0  0.28522953667E+02  0.10136673717E+02  0.10125008859E+03  0.10567824507E+03  0.00000000000E+00 0. -1.
</event>
<event>
 7    1  0.1068210E-005  0.1047372E+03  0.7561462E-02  0.1270638E+00
         -2   -1    0    0    0  501 -0.00000000000E+00  0.00000000000E+00  0.21769683482E+02  0.21769683482E+02  0.00000000000E+00 0. -1.
          2   -1    0    0  501    0  0.00000000000E+00 -0.00000000000E+00 -0.53583707644E+03  0.53583707644E+03  0.00000000000E+00 0.  1.
         23    2    1    2    0    0  0.23558507526E+02  0.11921546483E+01 -0.29815627701E+03  0.32419324010E+03  0.12509063473E+03 0.  0.
          5    1    3    3  502    0  0.55532145930E+02 -0.42262797963E+02 -0.20334284855E+03  0.21502499803E+03  0.41800000000E+01 0.  1.
         -5    1    3    3    0  502 -0.31973638404E+02  0.43454952611E+02 -0.94813428460E+02  0.10916824207E+03  0.41800000000E+01 0.  1.
        -11    1    1    2    0    0 -0.39389400356E+02 -0.32042837335E+02 -0.15752869393E+03  0.16550999274E+03  0.00000000000E+00 0.  1.
         11    1    1    2    0    0  0.15830892830E+02  0.30850682686E+02 -0.58382422025E+02  0.67903527091E+02  0.00000000000E+00 0. -1.
</event>
<event>
 7    1  0.1068210E-005  0.1600473E+03  0.7561462E-02  0.1188643E+00
          2   -1    0    0  501    0  0.00000000000E+00  0.00000000000E+00  0.18711576685E+03  0.18711576685E+03  0.00000000000E+00 0. -1.
         -2   -1    0    0    0  501 -0.00000000000E+00 -0.00000000000E+00 -0.16563678695E+03  0.16563678695E+03  0.00000000000E+00 0.  1.
         23    2    1    2    0    0  0.10358995976E+03  0.87786533716E+02  0.36620418617E+02  0.18821745154E+03  0.12508956288E+03 0.  0.
          5    1    3    3  502    0  0.61505231833E+02  0.11730273666E+03  0.32731255470E+02  0.13649774011E+03  0.41800000000E+01 0. -1.
         -5    1    3    3    0  502  0.42084727930E+02 -0.29516202941E+02  0.38891631469E+01  0.51719711436E+02  0.41800000000E+01 0. -1.
        -11    1    1    2    0    0 -0.62549674287E+02 -0.47983497387E+02  0.37065397111E+02  0.87113267863E+02  0.00000000000E+00 0. -1.
         11    1    1    2    0    0 -0.41040285476E+02 -0.39803036329E+02 -0.52206835826E+02  0.77421834387E+02  0.00000000000E+00 0.  1.
</event>
<event>
 7    1  0.1068210E-005  0.1020834E+03  0.7561462E-02  0.1275975E+00
         -1   -1    0    0    0  501 -0.00000000000E+00  0.00000000000E+00  0.15453637173E+03  0.15453637173E+03  0.00000000000E+00 0.  1.
          1   -1    0    0  501    0  0.00000000000E+00 -0.00000000000E+00 -0.13569911150E+03  0.13569911150E+03  0.00000000000E+00 0. -1.
         23    2    1    2    0    0  0.29907559481E+02 -0.20857217343E+02  0.10156317740E+03  0.16520184622E+03  0.12508831025E+03 0.  0.
          5    1    3    3  502    0 -0.31715305862E+02  0.25503209195E+02  0.44914458159E+01  0.41157256841E+02  0.41800000000E+01 0. -1.
         -5    1    3    3    0  502  0.61622865343E+02 -0.46360426538E+02  0.97071731582E+02  0.12404458938E+03  0.41800000000E+01 0. -1.
        -11    1    1    2    0    0 -0.12490223588E+02  0.50295195696E+02 -0.72905153386E+02  0.89447044589E+02  0.00000000000E+00 0. -1.
         11    1    1    2    0    0 -0.17417335892E+02 -0.29437978352E+02 -0.98207637764E+01  0.35586592422E+02  0.00000000000E+00 0.  1.
</event>
<event>
 7    1  0.1068210E-005  0.1075943E+03  0.7561462E-02  0.1265091E+00
          2   -1    0    0  501    0  0.00000000000E+00  0.00000000000E+00  0.11714120102E+03  0.11714120102E+03  0.00000000000E+00 0. -1.
         -2   -1    0    0    0  501 -0.00000000000E+00 -0.00000000000E+00 -0.19789793919E+03  0.19789793919E+03  0.00000000000E+00 0.  1.
         23    2    1    2    0    0  0.62897936488E+02 -0.53819674446E+02 -0.11201243477E+03  0.18719882039E+03  0.12507559729E+03 0.  0.
          5    1    3    3  502    0  0.73178009765E+01  0.62620100453E+01  0.25242188470E+02  0.27338680650E+02  0.41800000000E+01 0.  1.
         -5    1    3    3    0  502  0.55580135511E+02 -0.60081684491E+02 -0.13725462324E+03  0.15986013974E+03  0.41800000000E+01 0.  1.
        -11    1    1    2    0    0 -0.74328318335E+02  0.70546061951E+02  0.19181875798E+02  0.10425636730E+03  0.00000000000E+00 0. -1.
         11    1    1    2    0    0  0.11430381847E+02 -0.16726387505E+02  0.12073820798E+02  0.23583952527E+02  0.00000000000E+00 0.  1.
</event>
<event>
 7    1  0.1068210E-005  0.6834388E+02  0.7561462E-02  0.1365817E+00
         -1   -1    0    0    0  501 -0.00000000000E+00  0.00000000000E+00  0.25389926941E+03  0.25389926941E+03  0.00000000000E+00 0.  1.
          1   -1    0    0  501    0  0.00000000000E+00 -0.00000000000E+00 -0.82153245311E+02  0.82153245311E+02  0.00000000000E+00 0. -1.
         23    2    1    2    0    0  0.40598021142E+02 -0.41944068786E+02  0.18169880524E+03  0.22819115838E+03  0.12509694125E+03 0.  0.
          5    1    3    3  502    0  0.44224751710E+02 -0.43894960892E+02  0.18845338147E+02  0.65232012275E+02  0.41800000000E+01 0. -1.
         -5    1    3    3    0  502 -0.36267305684E+01  0.19508921064E+01  0.16285346709E+03  0.16295914610E+03  0.41800000000E+01 0. -1.
        -11    1    1    2    0    0 -0.67750802435E+01  0.32575988692E+02  0.36663331236E+02  0.49510570678E+02  0.00000000000E+00 0.  1.
         11    1    1    2    0    0 -0.33822940899E+02  0.93680800942E+01 -0.46616112372E+02  0.58350785670E+02  0.00000000000E+00 0. -1.
</event>
<event>
 7    1  0.1068210E-005  0.1319327E+03  0.7561462E-02  0.1224616E+00
         -2   -1    0    0    0  501 -0.00000000000E+00  0.00000000000E+00  0.37365416840E+02  0.37365416840E+02  0.00000000000E+00 0.  1.
          2   -1    0    0  501    0  0.00000000000E+00 -0.00000000000E+00 -0.47853406086E+03  0.47853406086E+03  0.00000000000E+00 0. -1.
         23    2    1    2    0    0  0.18163309228E+02 -0.74966760724E+02 -0.22119585396E+03  0.26556461431E+03  0.12508811914E+03 0.  0.
          5    1    3    3  502    0 -0.33453113951E+02 -0.86350749785E+02 -0.15676961713E+03  0.18212563817E+03  0.41800000000E+01 0.  1.
         -5    1    3    3    0  502  0.51616423179E+02  0.11383989061E+02 -0.64426236827E+02  0.83438976147E+02  0.41800000000E+01 0.  1.
        -11    1    1    2    0    0 -0.46656661978E+02  0.10733453483E+02 -0.71164294172E+02  0.85769504461E+02  0.00000000000E+00 0.  1.
         11    1    1    2    0    0  0.28493352750E+02  0.64233307241E+02 -0.14880849589E+03  0.16456535893E+03  0.00000000000E+00 0. -1.
</event>
<event>
 7    1  0.1068210E-005  0.9993858E+02  0.7561462E-02  0.1280425E+00
          2   -1    0    0  501    0  0.00000000000E+00  0.00000000000E+00  0.18188056468E+03  0.18188056468E+03  0.00000000000E+00 0. -1.
         -2   -1    0    0    0  501 -0.00000000000E+00 -0.00000000000E+00 -0.82326741408E+02  0.82326741408E+02  0.00000000000E+00 0.  1.
         23    2    1    2    0    0 -0.25547683323E+02  0.77523023264E-02  0.14789543674E+01  0.12767683737E+03  0.12508598367E+03 0.  0.
          5    1    3    3  502    0 -0.49566744572E+02 -0.48111985417E+02  0.17543056996E+02  0.71392272390E+02  0.41800000000E+01 0. -1.
         -5    1    3    3    0  502  0.24019061249E+02  0.48119737719E+02 -0.16064102628E+02  0.56284564978E+02  0.41800000000E+01 0. -1.
        -11    1    1    2    0    0  0.51138447297E+02 -0.20628111353E+00  0.20938107105E+02  0.55259276805E+02  0.00000000000E+00 0.  1.
         11    1    1    2    0    0 -0.25590763974E+02  0.19852881120E+00  0.77136761796E+02  0.81271191912E+02  0.00000000000E+00 0. -1.
</event>
<event>
 7    1  0.1068210E-005  0.8535937E+02  0.7561462E-02  0.1314495E+00
          2   -1    0    0  501    0  0.00000000000E+00  0.00000000000E+00  0.38997955564E+03  0.38997955564E+03  0.00000000000E+00 0. -1.
         -2   -1    0    0    0  501 -0.00000000000E+00 -0.00000000000E+00 -0.34874744254E+02  0.34874744254E+02  0.00000000000E+00 0.  1.
         23    2    1    2    0    0 -0.30761570723E+02 -0.77839999167E+01  0.16293223188E+03  0.20784908664E+03  0.12508983069E+03 0.  0.
          5    1    3    3  502    0 -0.44912340789E+02 -0.37868427560E+02  0.21810348579E+02  0.62803661247E+02  0.41800000000E+01 0. -1.
         -5    1    3    3    0  502  0.14150770065E+02  0.30084427643E+02  0.14112188330E+03  0.14504542539E+03  0.41800000000E+01 0. -1.
        -11    1    1    2    0    0 -0.87315800736E+01 -0.25320118690E+02  0.14397830273E+03  0.14644828629E+03  0.00000000000E+00 0. -1.
         11    1    1    2    0    0  0.39493150797E+02  0.33104118607E+02  0.48194276773E+02  0.70556926962E+02  0.00000000000E+00 0.  1.
</event>
<event>
 7    1  0.1068210E-005  0.8074121E+02  0.7561462E-02  0.1326961E+00
          2   -1    0    0  501    0  0.00000000000E+00  0.00000000000E+00  0.55543304243E+02  0.55543304243E+02  0.00000000000E+00 0. -1.
         -2   -1    0    0    0  501 -0.00000000000E+00 -0.00000000000E+00 -0.26772847446E+03  0.26772847446E+03  0.00000000000E+00 0.  1.
         23    2    1    2    0    0 -0.71623814043E+01 -0.17784747663E+02 -0.18929217860E+03  0.22777367977E+03  0.12522668789E+03 0.  0.
          5    1    3    3  502    0  0.16372447080E+02  0.19943970382E+02  0.65131591004E+01  0.26939053796E+02  0.41800000000E+01 0. -1.
         -5    1    3    3    0  502 -0.23534828484E+02 -0.37728718045E+02 -0.19580533770E+03  0.20083462597E+03  0.41800000000E+01 0.  1.
        -11    1    1    2    0    0 -0.38860744330E+02 -0.52493775976E+01 -0.10660430144E+00  0.39213834032E+02  0.00000000000E+00 0.  1.
         11    1    1    2    0    0  0.46023125734E+02  0.23034125261E+02 -0.22786387317E+02  0.56284264904E+02  0.00000000000E+00 0. -1.
</event>
<event>
 7    1  0.1068210E-005  0.8601275E+02  0.7561462E-02  0.1312805E+00
         -1   -1    0    0    0  501 -0.00000000000E+00  0.00000000000E+00  0.23795903697E+03  0.23795903697E+03  0.00000000000E+00 0.  1.
          1   -1    0    0  501    0  0.00000000000E+00 -0.00000000000E+00 -0.58494650460E+02  0.58494650460E+02  0.00000000000E+00 0. -1.
         23    2    1    2    0    0  0.13062744558E+02  0.44573544520E+02  0.11049857458E+03  0.17324578525E+03  0.12508689362E+03 0.  0.
          5    1    3    3  502    0  0.33996379428E+02  0.19449166125E+02  0.12938702730E+03  0.13524976566E+03  0.41800000000E+01 0. -1.
         -5    1    3    3    0  502 -0.20933634870E+02  0.25124378395E+02 -0.18888452718E+02  0.37996019590E+02  0.41800000000E+01 0. -1.
        -11    1    1    2    0    0  0.32593913968E+02 -0.43035553337E+02  0.50535420101E+02  0.73947621757E+02  0.00000000000E+00 0.  1.
         11    1    1    2    0    0 -0.45656658526E+02 -0.15379911831E+01  0.18430391828E+02  0.49260280426E+02  0.00000000000E+00 0. -1.
</event>
<event>
 7    1  0.1068210E-005  0.1029406E+03  0.7561462E-02  0.1274231E+00
         -2   -1    0    0    0  501 -0.00000000000E+00  0.00000000000E+00  0.88179292915E+02  0.88179292915E+02  0.00000000000E+00 0.  1.
          2   -1    0    0  501    0  0.00000000000E+00 -0.00000000000E+00 -0.14909451223E+03  0.14909451223E+03  0.00000000000E+00 0. -1.
         23    2    1    2    0    0  0.71096466665E+01 -0.15030623493E+02 -0.12876019369E+00  0.12620690278E+03  0.12510675047E+03 0.  0.
          5    1    3    3  502    0  0.28327267351E+02  0.49204946450E+02  0.96011104556E+01  0.57733998240E+02  0.41800000000E+01 0. -1.
         -5    1    3    3    0  502 -0.21217620685E+02 -0.64235569943E+02 -0.97298706493E+01  0.68472904541E+02  0.41800000000E+01 0. -1.
        -11    1    1    2    0    0  0.33272112582E+02 -0.86262030781E+01 -0.26676594805E-01  0.34372162674E+02  0.00000000000E+00 0.  1.
         11    1    1    2    0    0 -0.40381759249E+02  0.23656826571E+02 -0.60759782528E+02  0.76694739691E+02  0.00000000000E+00 0. -1.
</event>
<event>
 7    1  0.1068210E-005  0.1149107E+03  0.7561462E-02  0.1251737E+00
          2   -1    0    0  501    0  0.00000000000E+00  0.00000000000E+00  0.73667030712E+02  0.73667030712E+02  0.00000000000E+00 0. -1.
         -2   -1    0    0    0  501 -0.00000000000E+00 -0.00000000000E+00 -0.22477223851E+03  0.22477223851E+03  0.00000000000E+00 0.  1.
         23    2    1    2    0    0  0.17758158013E+02 -0.55598212258E+02 -0.12078830324E+03  0.18342446001E+03  0.12509278536E+03 0.  0.
          5    1    3    3  502    0  0.66147603736E+02 -0.59356387553E+02 -0.84216581957E+02  0.12250955595E+03  0.41800000000E+01 0. -1.
         -5    1    3    3    0  502 -0.48389445722E+02  0.37581752953E+01 -0.36571721286E+02  0.60914904060E+02  0.41800000000E+01 0. -1.
        -11    1    1    2    0    0  0.25747982464E+02  0.36385171143E+02 -0.46846976512E+02  0.64664352532E+02  0.00000000000E+00 0.  1.
         11    1    1    2    0    0 -0.43506140478E+02  0.19213041114E+02  0.16530071960E+02  0.50350456673E+02  0.00000000000E+00 0. -1.
</event>
<event>
 6    1  0.1068210E-005  0.7796113E+02  0.7561462E-02  0.1334939E+00
         -1   -1    0    0    0  501 -0.00000000000E+00  0.00000000000E+00  0.70584503817E+02  0.70584503817E+02  0.00000000000E+00 0.  1.
          1   -1    0    0  501    0  0.00000000000E+00 -0.00000000000E+00 -0.24761165791E+03  0.24761165791E+03  0.00000000000E+00 0. -1.
          5    1    1    2  502    0  0.17343371094E+02 -0.55360340783E+02 -0.68881647902E+02  0.90153833363E+02  0.41800000000E+01 0. -1.
         -5    1    1    2    0  502  0.42440008852E+01  0.33255163825E+02  0.38779790709E+02  0.51432110904E+02  0.41800000000E+01 0.  1.
        -11    1    1    2    0    0  0.40467600749E+00 -0.18122654833E+02  0.42644497834E+01  0.18622027624E+02  0.00000000000E+00 0.  1.
         11    1    1    2    0    0 -0.21992047987E+02  0.40227831791E+02 -0.15118974668E+03  0.15798818984E+03  0.00000000000E+00 0. -1.
</event>
<event>
 7    1  0.1068210E-005  0.1289491E+03  0.7561462E-02  0.1229023E+00
          1   -1    0    0  501    0  0.00000000000E+00  0.00000000000E+00  0.61230207568E+03  0.61230207568E+03  0.00000000000E+00 0. -1.
         -1   -1    0    0    0  501 -0.00000000000E+00 -0.00000000000E+00 -0.34597026577E+02  0.34597026577E+02  0.00000000000E+00 0.  1.
         23    2    1    2    0    0  0.63894981877E+02  0.71947696782E+02  0.33474628669E+03  0.37008422220E+03  0.12509282668E+03 0.  0.
          5    1    3    3  502    0  0.86443522228E+02  0.46921307692E+01  0.19016881623E+03  0.20898839607E+03  0.41800000000E+01 0. -1.
         -5    1    3    3    0  502 -0.22548540350E+02  0.67255566013E+02  0.14457747046E+03  0.16109582613E+03  0.41800000000E+01 0. -1.
        -11    1    1    2    0    0 -0.14098754709E+02 -0.19019746554E+01 -0.44484518577E+01  0.14905741037E+02  0.00000000000E+00 0.  1.
         11    1    1    2    0    0 -0.49796227169E+02 -0.70045722127E+02  0.24740721427E+03  0.26190913901E+03  0.00000000000E+00 0. -1.
</event>
<event>
 6    1  0.1068210E-005  0.1092954E+03  0.7561462E-02  0.1261880E+00
         -3   -1    0    0    0  501 -0.00000000000E+00  0.00000000000E+00  0.30751170566E+02  0.30751170566E+02  0.00000000000E+00 0.  1.
          3   -1    0    0  501    0  0.00000000000E+00 -0.00000000000E+00 -0.47784284610E+03  0.47784284610E+03  0.00000000000E+00 0. -1.
          5    1    1    2  502    0  0.39627457015E+02  0.18252249885E+02 -0.25122847152E+02  0.50518410746E+02  0.41800000000E+01 0. -1.
         -5    1    1    2    0  502 -0.81247854394E+02 -0.50368885365E+02 -0.19957996408E+03  0.22133204223E+03  0.41800000000E+01 0.  1.
        -11    1    1    2    0    0  0.52623280865E+02  0.39523758000E+02 -0.16088152217E+03  0.17382232685E+03  0.00000000000E+00 0. -1.
         11    1    1    2    0    0 -0.11002883486E+02 -0.74071225200E+01 -0.61507342130E+02  0.62921236835E+02  0.00000000000E+00 0.  1.
</event>
<event>
 7    1  0.1068210E-005  0.8945027E+02  0.7561462E-02  0.1304188E+00
          2   -1    0    0  501    0  0.00000000000E+00  0.00000000000E+00  0.16189639588E+03  0.16189639588E+03  0.00000000000E+00 0. -1.
         -2   -1    0    0    0  501 -0.00000000000E+00 -0.00000000000E+00 -0.12254683874E+03  0.12254683874E+03  0.00000000000E+00 0.  1.
         23    2    1    2    0    0  0.96037517513E+01 -0.96143733746E+01 -0.68651572989E+02  0.14333658162E+03  0.12509064287E+03 0.  0.
          5    1    3    3  502    0 -0.26518319629E+02 -0.37194420689E+02 -0.83561304767E+02  0.95323713004E+02  0.41800000000E+01 0.  1.
         -5    1    3    3    0  502  0.36122071381E+02  0.27580047314E+02  0.14909731779E+02  0.48012868612E+02  0.41800000000E+01 0.  1.
        -11    1    1    2    0    0  0.38215671376E+02 -0.16908797841E+01  0.28726455922E+02  0.47838330688E+02  0.00000000000E+00 0.  1.
         11    1    1    2    0    0 -0.47819423127E+02  0.11305253159E+02  0.79274674203E+02  0.93268322313E+02  0.00000000000E+00 0. -1.
</event>
<event>
 7    1  0.1068210E-005  0.3011406E+03  0.7561462E-02  0.1084672E+00
         -2   -1    0    0    0  501 -0.00000000000E+00  0.00000000000E+00  0.17026060816E+03  0.17026060816E+03  0.00000000000E+00 0.  1.
          2   -1    0    0  501    0  0.00000000000E+00 -0.00000000000E+00 -0.58130478834E+03  0.58130478834E+03  0.00000000000E+00 0. -1.
         23    2    1    2    0    0  0.26880844609E+03 -0.11958652248E+03 -0.18430531355E+03  0.36901908626E+03  0.12509084849E+03 0.  0.
          5    1    3    3  502    0  0.13869808724E+03 -0.12537481201E+02 -0.13356674878E+03  0.19300750405E+03  0.41800000000E+01 0. -1.
         -5    1    3    3    0  502  0.13011035884E+03 -0.10704904128E+03 -0.50738564768E+02  0.17601158221E+03  0.41800000000E+01 0. -1.
        -11    1    1    2    0    0 -0.18817978787E+03  0.78153478320E+02 -0.20559208633E+03  0.28946105903E+03  0.00000000000E+00 0.  1.
         11    1    1    2    0    0 -0.80628658218E+02  0.41433044163E+02 -0.21146780293E+02  0.93085251202E+02  0.00000000000E+00 0. -1.
</event>
<event>
 7    1  0.1068210E-005  0.1424723E+03  0.7561462E-02  0.1210041E+00
          2   -1    0    0  501    0  0.00000000000E+00  0.00000000000E+00  0.13626773603E+03  0.13626773603E+03  0.00000000000E+00 0. -1.
         -2   -1    0    0    0  501 -0.00000000000E+00 -0.00000000000E+00 -0.22632129475E+03  0.22632129475E+03  0.00000000000E+00 0.  1.
         23    2    1    2    0    0 -0.82811585018E+02 -0.78984711108E+02 -0.12474974508E+03  0.21049115186E+03  0.12509069873E+03 0.  0.
          5    1    3    3  502    0 -0.69840532682E+02  0.17239938896E+02 -0.59310266661E+02  0.93327893096E+02  0.41800000000E+01 0. -1.
         -5    1    3    3    0  502 -0.12971052337E+02 -0.96224650004E+02 -0.65439478422E+02  0.11716325876E+03  0.41800000000E+01 0. -1.
        -11    1    1    2    0    0  0.28261768634E+02  0.38549105486E+02 -0.31518486861E+02  0.57255358824E+02  0.00000000000E+00 0.  1.
         11    1    1    2    0    0  0.54549816385E+02  0.40435605622E+02  0.66214673219E+02  0.94842520102E+02  0.00000000000E+00 0. -1.
</event>
<event>
 7    1  0.1068210E-005  0.9866496E+02  0.7561462E-02  0.1283129E+00
         -2   -1    0    0    0  501 -0.00000000000E+00  0.00000000000E+00  0.26625625764E+02  0.26625625764E+02  0.00000000000E+00 0.  1.
          2   -1    0    0  501    0  0.00000000000E+00 -0.00000000000E+00 -0.46513236563E+03  0.46513236563E+03  0.00000000000E+00 0. -1.
         23    2    1    2    0    0 -0.14939635843E+02 -0.10660151755E+02 -0.21958240424E+03  0.25337812898E+03  0.12508881820E+03 0.  0.
          5    1    3    3  502    0  0.30468483801E+02  0.39473532398E+02 -0.49923305534E+02  0.70684489816E+02  0.41800000000E+01 0. -1.
         -5    1    3    3    0  502 -0.45408119644E+02 -0.50133684153E+02 -0.16965909871E+03  0.18269363916E+03  0.41800000000E+01 0. -1.
        -11    1    1    2    0    0  0.33114912593E+02  0.35625932662E+02 -0.63878679710E+02  0.80288792715E+02  0.00000000000E+00 0.  1.
         11    1    1    2    0    0 -0.18175276750E+02 -0.24965780907E+02 -0.15504565592E+03  0.15809106970E+03  0.00000000000E+00 0. -1.
</event>
<event>
 7    1  0.1068210E-005  0.1495075E+03  0.7561462E-02  0.1201079E+00
         -1   -1    0    0    0  501 -0.00000000000E+00  0.00000000000E+00  0.18414606085E+03  0.18414606085E+03  0.00000000000E+00 0.  1.
          1   -1    0    0  501    0  0.00000000000E+00 -0.00000000000E+00 -0.18070022381E+03  0.18070022381E+03  0.00000000000E+00 0. -1.
         23    2    1    2    0    0 -0.11481301145E+03 -0.48803923103E+02  0.66598072725E+02  0.18881025055E+03  0.12510058718E+03 0.  0.
          5    1    3    3  502    0 -0.25426470700E+02 -0.72992701269E+02  0.51121350903E+01  0.77576067030E+02  0.41800000000E+01 0.  1.
         -5    1    3    3    0  502 -0.89386540748E+02  0.24188778166E+02  0.61485937635E+02  0.11123418352E+03  0.41800000000E+01 0.  1.
        -11    1    1    2    0    0  0.17395575028E+02  0.21665293238E+02  0.28322162687E+02  0.39675381043E+02  0.00000000000E+00 0.  1.
         11    1    1    2    0    0  0.97417436419E+02  0.27138629865E+02 -0.91474398369E+02  0.13636065307E+03  0.00000000000E+00 0. -1.
</event>
<event>
 7    1  0.1068210E-005  0.1094182E+03  0.7561462E-02  0.1261651E+00
          1   -1    0    0  501    0  0.00000000000E+00  0.00000000000E+00  0.26370168678E+02  0.26370168678E+02  0.00000000000E+00 0. -1.
         -1   -1    0    0    0  501 -0.00000000000E+00 -0.00000000000E+00 -0.51560012182E+03  0.51560012182E+03  0.00000000000E+00 0.  1.
         23    2    1    2    0    0  0.14152364565E+01  0.32854716347E+02 -0.34448032332E+03  0.36796248313E+03  0.12509300761E+03 0.  0.
          5    1    3    3  502    0  0.33060525464E+02  0.71553311242E+02 -0.22153983306E+03  0.23518130182E+03  0.41800000000E+01 0. -1.
         -5    1    3    3    0  502 -0.31645289008E+02 -0.38698594894E+02 -0.12294049027E+03  0.13278118131E+03  0.41800000000E+01 0. -1.
        -11    1    1    2    0    0 -0.94862861895E+01  0.27374596096E+02 -0.80584894572E+02  0.85634592136E+02  0.00000000000E+00 0.  1.
         11    1    1    2    0    0  0.80710497329E+01 -0.60229312444E+02 -0.64164735242E+02  0.88373215229E+02  0.00000000000E+00 0. -1.
</event>
<event>
 7    1  0.1068210E-005  0.1096960E+03  0.7561462E-02  0.1261134E+00
         -2   -1    0    0    0  501 -0.00000000000E+00  0.00000000000E+00  0.42527658489E+03  0.42527658489E+03  0.00000000000E+00 0.  1.
          2   -1    0    0  501    0  0.00000000000E+00 -0.00000000000E+00 -0.41619063476E+02  0.41619063476E+02  0.00000000000E+00 0. -1.
         23    2    1    2    0    0 -0.11976566386E+02 -0.57213421034E+02  0.29966792480E+03  0.32994825088E+03  0.12509264334E+03 0.  0.
          5    1    3    3  502    0 -0.27071895894E+02  0.32869994900E+02  0.62297234448E+02  0.75576067189E+02  0.41800000000E+01 0. -1.
         -5    1    3    3    0  502  0.15095329508E+02 -0.90083415934E+02  0.23737069035E+03  0.25437218369E+03  0.41800000000E+01 0. -1.
        -11    1    1    2    0    0 -0.47378244031E+01 -0.12558830154E+02  0.59716172339E+02  0.61206147026E+02  0.00000000000E+00 0.  1.
         11    1    1    2    0    0  0.16714390789E+02  0.69772251187E+02  0.24273424280E+02  0.75741250462E+02  0.00000000000E+00 0. -1.
</event>
<event>
 7    1  0.1068210E-005  0.1115516E+03  0.7561462E-02  0.1257723E+00
         -2   -1    0    0    0  501 -0.00000000000E+00  0.00000000000E+00  0.61637217512E+02  0.61637217512E+02  0.00000000000E+00 0.  1.
          2   -1    0    0  501    0  0.00000000000E+00 -0.00000000000E+00 -0.25049455339E+03  0.25049455339E+03  0.00000000000E+00 0. -1.
         23    2    1    2    0    0 -0.52051767398E+02  0.20599785003E+02 -0.11652761620E+03  0.17988268492E+03  0.12508140297E+03 0.  0.
          5    1    3    3  502    0  0.34378374038E+02  0.32722259521E+02 -0.56327661447E+02  0.73775990089E+02  0.41800000000E+01 0.  1.
         -5    1    3    3    0  502 -0.86430141436E+02 -0.12122474517E+02 -0.60199954748E+02  0.10610669483E+03  0.41800000000E+01 0.  1.
        -11    1    1    2    0    0  0.68815240806E+02 -0.17865522891E+02 -0.15273759178E+02  0.72718649567E+02  0.00000000000E+00 0.  1.
         11    1    1    2    0    0 -0.16763473408E+02 -0.27342621121E+01 -0.57055960504E+02  0.59530436409E+02  0.00000000000E+00 0. -1.
</event>
<event>
 7    1  0.1068210E-005  0.9992670E+02  0.7561462E-02  0.1280450E+00
          2   -1    0    0  501    0  0.00000000000E+00  0.00000000000E+00  0.37040945785E+03  0.37040945785E+03  0.00000000000E+00 0. -1.
         -2   -1    0    0    0  501 -0.00000000000E+00 -0.00000000000E+00 -0.55552563948E+02  0.55552563948E+02  0.00000000000E+00 0.  1.
         23    2    1    2    0    0 -0.16806555971E+02 -0.86307169339E+02  0.12281327516E+03  0.19611713700E+03  0.12508974005E+03 0.  0.
          5    1    3    3  502    0 -0.29403227377E+02 -0.54039637804E+02 -0.66634133907E+01  0.62021816421E+02  0.41800000000E+01 0.  1.
         -5    1    3    3    0  502  0.12596671406E+02 -0.32267531536E+02  0.12947668855E+03  0.13409532058E+03  0.41800000000E+01 0.  1.
        -11    1    1    2    0    0  0.15224478713E+02 -0.16636413365E+01 -0.32413456143E+01  0.15654353260E+02  0.00000000000E+00 0.  1.
         11    1    1    2    0    0  0.15820772576E+01  0.87970810676E+02  0.19528496435E+03  0.21419053154E+03  0.00000000000E+00 0. -1.
</event>
<event>
 6    1  0.1068210E-005  0.8709201E+02  0.7561462E-02  0.1310051E+00
          2   -1    0    0  501    0  0.00000000000E+00  0.00000000000E+00  0.53956117121E+02  0.53956117121E+02  0.00000000000E+00 0. -1.
         -2   -1    0    0    0  501 -0.00000000000E+00 -0.00000000000E+00 -0.31226835900E+03  0.31226835900E+03  0.00000000000E+00 0.  1.
          5    1    1    2  502    0 -0.33094178540E+02  0.66125436189E+02 -0.47062209751E+02  0.87750338751E+02  0.41800000000E+01 0. -1.
         -5    1    1    2    0  502  0.26372131973E+02 -0.45617252847E+02 -0.20117976239E+03  0.20800767366E+03  0.41800000000E+01 0.  1.
        -11    1    1    2    0    0  0.22739169950E+02 -0.21395538504E+02  0.19509681602E+02  0.36816661908E+02  0.00000000000E+00 0. -1.
         11    1    1    2    0    0 -0.16017123384E+02  0.88735516262E+00 -0.29579951337E+02  0.33649801809E+02  0.00000000000E+00 0.  1.
</event>
<event>
 7    1  0.1068210E-005  0.1084767E+03  0.7561462E-02  0.1263417E+00
          1   -1    0    0  501    0  0.00000000000E+00  0.00000000000E+00  0.15879753762E+03  0.15879753762E+03  0.00000000000E+00 0. -1.
         -1   -1    0    0    0  501 -0.00000000000E+00 -0.00000000000E+00 -0.30007132365E+03  0.30007132365E+03  0.00000000000E+00 0.  1.
         23    2    1    2    0    0 -0.58697853390E+01 -0.94550089043E+02 -0.24527110839E+03  0.29111014176E+03  0.12495208805E+03 0.  0.
          5    1    3    3  502    0 -0.23034409144E+02  0.24346187908E+01 -0.15709505637E+03  0.15884848287E+03  0.41800000000E+01 0. -1.
         -5    1    3    3    0  502  0.17164623805E+02 -0.96984707834E+02 -0.88176052016E+02  0.13226165889E+03  0.41800000000E+01 0.  1.
        -11    1    1    2    0    0  0.90228159009E+00  0.50259872473E+02 -0.44954284565E+01  0.50468582010E+02  0.00000000000E+00 0. -1.
         11    1    1    2    0    0  0.49675037489E+01  0.44290216570E+02  0.10849275081E+03  0.11729013750E+03  0.00000000000E+00 0.  1.
</event>
<event>
 7    1  0.1068210E-005  0.1273753E+03  0.7561462E-02  0.1231403E+00
          2   -1    0    0  501    0  0.00000000000E+00  0.00000000000E+00  0.61447340998E+03  0.61447340998E+03  0.00000000000E+00 0. -1.
         -2   -1    0    0    0  501 -0.00000000000E+00 -0.00000000000E+00 -0.30905166501E+02  0.30905166501E+02  0.00000000000E+00 0.  1.
         23    2    1    2    0    0 -0.76870748317E+02 -0.14167084588E+02  0.24430524514E+03  0.28538258120E+03  0.12509335161E+03 0.  0.
          5    1    3    3  502    0  0.24953668375E+02 -0.23841876537E+02  0.23387062946E+02  0.41899257218E+02  0.41800000000E+01 0. -1.
         -5    1    3    3    0  502 -0.10182441669E+03  0.96747919481E+01  0.22091818219E+03  0.24348332398E+03  0.41800000000E+01 0. -1.
        -11    1    1    2    0    0  0.53510302925E+02  0.51052047486E+02  0.24860481891E+03  0.25937235793E+03  0.00000000000E+00 0.  1.
         11    1    1    2    0    0  0.23360445392E+02 -0.36884962898E+02  0.90658179431E+02  0.10062363736E+03  0.00000000000E+00 0. -1.
</event>
<event>
 7    1  0.1068210E-005  0.1270763E+03  0.7561462E-02  0.1231860E+00
         -1   -1    0    0    0  501 -0.00000000000E+00  0.00000000000E+00  0.37451976586E+03  0.37451976586E+03  0.00000000000E+00 0.  1.
          1   -1    0    0  501    0  0.00000000000E+00 -0.00000000000E+00 -0.57679013493E+02  0.57679013493E+02  0.00000000000E+00 0. -1.
         23    2    1    2    0    0 -0.12553770075E+00 -0.91411795940E+02  0.19785634773E+03  0.25130020731E+03  0.12509407524E+03 0.  0.
          5    1    3    3  502    0 -0.55030235094E+02 -0.55983779510E+02  0.15274618763E+03  0.17178876733E+03  0.41800000000E+01 0.  1.
         -5    1    3    3    0  502  0.54904697393E+02 -0.35428016431E+02  0.45110160092E+02  0.79511439979E+02  0.41800000000E+01 0.  1.
        -11    1    1    2    0    0  0.82255574868E+01  0.98774942623E+02  0.13124199694E+03  0.16446461883E+03  0.00000000000E+00 0.  1.
         11    1    1    2    0    0 -0.81000197860E+01 -0.73631466828E+01 -0.12257592294E+02  0.16433953221E+02  0.00000000000E+00 0. -1.
</event>
<event>
 7    1  0.1068210E-005  0.1856086E+03  0.7561462E-02  0.1162483E+00
          2   -1    0    0  501    0  0.00000000000E+00  0.00000000000E+00  0.68084326499E+02  0.68084326499E+02  0.00000000000E+00 0. -1.
         -2   -1    0    0    0  501 -0.00000000000E+00 -0.00000000000E+00 -0.78951460171E+03  0.78951460171E+03  0.00000000000E+00 0.  1.
         23    2    1    2    0    0  0.12594356419E+03  0.10491750718E+03 -0.59861489533E+03  0.63313226998E+03  0.12508882327E+03 0.  0.
          5    1    3    3  502    0 -0.21591079595E+02 -0.37535200744E+01 -0.81413988904E+02  0.84415482113E+02  0.41800000000E+01 0.  1.
         -5    1    3    3    0  502  0.14753464378E+03  0.10867102726E+03 -0.51720090643E+03  0.54871678787E+03  0.41800000000E+01 0.  1.
        -11    1    1    2    0    0 -0.57461348642E+02 -0.63278320336E+02 -0.11591626338E+03  0.14402268061E+03  0.00000000000E+00 0.  1.
         11    1    1    2    0    0 -0.68482215546E+02 -0.41639186846E+02 -0.68991165008E+01  0.80443977623E+02  0.00000000000E+00 0. -1.
</event>
<event>
 7    1  0.1068210E-005  0.1566947E+03  0.7561462E-02  0.1192480E+00
          2   -1    0    0  501    0  0.00000000000E+00  0.00000000000E+00  0.50456740898E+02  0.50456740898E+02  0.00000000000E+00 0.  1.
         -2   -1    0    0    0  501 -0.00000000000E+00 -0.00000000000E+00 -0.53623385376E+03  0.53623385376E+03  0.00000000000E+00 0. -1.
         23    2    1    2    0    0 -0.59718975025E+01  0.11660709945E+03 -0.33292695767E+03  0.37432746997E+03  0.12509123245E+03 0.  0.
          5    1    3    3  502    0 -0.40213492255E+02  0.12590909710E+03 -0.22912117723E+03  0.26454529281E+03  0.41800000000E+01 0. -1.
         -5    1    3    3    0  502  0.34241594752E+02 -0.93019976514E+01 -0.10380578043E+03  0.10978217716E+03  0.41800000000E+01 0. -1.
        -11    1    1    2    0    0  0.19806195710E+02 -0.12673607561E+03 -0.12177364801E+03  0.17687040340E+03  0.00000000000E+00 0.  1.
         11    1    1    2    0    0 -0.13834298207E+02  0.10128976167E+02 -0.31076507190E+02  0.35492721285E+02  0.00000000000E+00 0. -1.
</event>
<event>
 7    1  0.1068210E-005  0.2148644E+03  0.7561462E-02  0.1137771E+00
          2   -1    0    0  501    0  0.00000000000E+00  0.00000000000E+00  0.88691582953E+02  0.88691582953E+02  0.00000000000E+00 0. -1.
         -2   -1    0    0    0  501 -0.00000000000E+00 -0.00000000000E+00 -0.72484747593E+03  0.72484747593E+03  0.00000000000E+00 0.  1.
         23    2    1    2    0    0  0.18000875534E+03 -0.67137085102E+02 -0.52669659922E+03  0.57442778165E+03  0.12508968188E+03 0.  0.
          5    1    3    3  502    0  0.12088574362E+03  0.21172018778E+02 -0.27364975292E+03  0.29993878886E+03  0.41800000000E+01 0. -1.
         -5    1    3    3    0  502  0.59123011713E+02 -0.88309103880E+02 -0.25304684630E+03  0.27448899279E+03  0.41800000000E+01 0. -1.
        -11    1    1    2    0    0 -0.78546394264E+02  0.60041337724E+02 -0.14426848443E+02  0.99913123480E+02  0.00000000000E+00 0.  1.
         11    1    1    2    0    0 -0.10146236107E+03  0.70957473783E+01 -0.95032445321E+02  0.13919815376E+03  0.00000000000E+00 0. -1.
</event>
<event>
 7    1  0.1068210E-005  0.1304533E+03  0.7561462E-02  0.1226785E+00
          2   -1    0    0  501    0  0.00000000000E+00  0.00000000000E+00  0.35509332032E+03  0.35509332032E+03  0.00000000000E+00 0. -1.
         -2   -1    0    0    0  501 -0.00000000000E+00 -0.00000000000E+00 -0.62976229670E+02  0.62976229670E+02  0.00000000000E+00 0.  1.
         23    2    1    2    0    0 -0.60640100646E+01 -0.83338834038E+02  0.74982236172E+02  0.16808314070E+03  0.12508985958E+03 0.  0.
          5    1    3    3  502    0  0.64613219116E+01 -0.11117976057E+03  0.79561309321E+02  0.13693123158E+03  0.41800000000E+01 0.  1.
         -5    1    3    3    0  502 -0.12525331976E+02  0.27840926530E+02 -0.45790731484E+01  0.31151909124E+02  0.41800000000E+01 0.  1.
        -11    1    1    2    0    0  0.42517548017E+02  0.65432936665E+02  0.10571960590E+03  0.13139956683E+03  0.00000000000E+00 0. -1.
         11    1    1    2    0    0 -0.36453537953E+02  0.17905897372E+02  0.11141524858E+03  0.11858684246E+03  0.00000000000E+00 0.  1.
</event>
<event>
 7    1  0.1068210E-005  0.1347871E+03  0.7561462E-02  0.1220521E+00
          1   -1    0    0  501    0  0.00000000000E+00  0.00000000000E+00  0.51405518303E+03  0.51405518303E+03  0.00000000000E+00 0. -1.
         -1   -1    0    0    0  501 -0.00000000000E+00 -0.00000000000E+00 -0.89584388205E+02  0.89584388205E+02  0.00000000000E+00 0.  1.
         23    2    1    2    0    0  0.10918432769E+03  0.33083114688E+02  0.79747970829E+01  0.16179129514E+03  0.11444263149E+03 0.  0.
          5    1    3    3  502    0  0.45558358032E+02  0.36805136375E+02  0.56570594707E+02  0.81534573254E+02  0.41800000000E+01 0. -1.
         -5    1    3    3    0  502  0.63625969662E+02 -0.37220216872E+01 -0.48595797624E+02  0.80256721885E+02  0.41800000000E+01 0.  1.
        -11    1    1    2    0    0 -0.10406706592E+01  0.24462510693E+02  0.56390099700E+02  0.61476343166E+02  0.00000000000E+00 0.  1.
         11    1    1    2    0    0 -0.10814365704E+03 -0.57545625381E+02  0.36010589805E+03  0.38037193294E+03  0.00000000000E+00 0. -1.
</event>
<event>
 7    1  0.1068210E-005  0.7673474E+02  0.7561462E-02  0.1338582E+00
         -1   -1    0    0    0  501 -0.00000000000E+00  0.00000000000E+00  0.33356600151E+02  0.33356600151E+02  0.00000000000E+00 0.  1.
          1   -1    0    0  501    0  0.00000000000E+00 -0.00000000000E+00 -0.43743326450E+03  0.43743326450E+03  0.00000000000E+00 0. -1.
         23    2    1    2    0    0 -0.35939132093E+02 -0.20307149822E+02 -0.18335034606E+03  0.22576120897E+03  0.12508705978E+03 0.  0.
          5    1    3    3  502    0 -0.44941254612E+02 -0.10104559383E+01 -0.42444802954E+01  0.45345621622E+02  0.41800000000E+01 0.  1.
         -5    1    3    3    0  502  0.90021225191E+01 -0.19296693883E+02 -0.17910586577E+03  0.18041558735E+03  0.41800000000E+01 0.  1.
        -11    1    1    2    0    0 -0.57629673192E+01 -0.24643012117E+02 -0.13019117248E+02  0.28460274989E+02  0.00000000000E+00 0.  1.
         11    1    1    2    0    0  0.41702099412E+02  0.44950161939E+02 -0.20770720103E+03  0.21656838069E+03  0.00000000000E+00 0. -1.
</event>
<event>
 7    1  0.1068210E-005  0.1078404E+03  0.7561462E-02  0.1264622E+00
         -1   -1    0    0    0  501 -0.00000000000E+00  0.00000000000E+00  0.27687355017E+03  0.27687355017E+03  0.00000000000E+00 0.  1.
          1   -1    0    0  501    0  0.00000000000E+00 -0.00000000000E+00 -0.46901629475E+02  0.46901629475E+02  0.00000000000E+00 0. -1.
         23    2    1    2    0    0  0.26689536156E+02 -0.23130183893E+02  0.14465570675E+03  0.19446996352E+03  0.12508379779E+03 0.  0.
          5    1    3    3  502    0 -0.29225414807E+02 -0.53703611612E+02  0.44699747578E+02  0.75853428429E+02  0.41800000000E+01 0.  1.
         -5    1    3    3    0  502  0.55914950962E+02  0.30573427720E+02  0.99955959173E+02  0.11861653509E+03  0.41800000000E+01 0.  1.
        -11    1    1    2    0    0 -0.36412232864E+02 -0.23212002524E+02  0.64407173902E+02  0.77543096491E+02  0.00000000000E+00 0.  1.
         11    1    1    2    0    0  0.97226967084E+01  0.46342186416E+02  0.20909040041E+02  0.51762119630E+02  0.00000000000E+00 0. -1.
</event>
<event>
 7    1  0.1068210E-005  0.1513357E+03  0.7561462E-02  0.1198841E+00
          2   -1    0    0  501    0  0.00000000000E+00  0.00000000000E+00  0.55068179084E+02  0.55068179084E+02  0.00000000000E+00 0. -1.
         -2   -1    0    0    0  501 -0.00000000000E+00 -0.00000000000E+00 -0.50081065166E+03  0.50081065166E+03  0.00000000000E+00 0.  1.
         23    2    1    2    0    0 -0.48611537432E+00  0.10817769742E+03 -0.35403380366E+03  0.39075728585E+03  0.12509465128E+03 0.  0.
          5    1    3    3  502    0 -0.48409482006E+02  0.18139846371E+01 -0.10117885267E+03  0.11225596250E+03  0.41800000000E+01 0.  1.
         -5    1    3    3    0  502  0.47923366632E+02  0.10636371279E+03 -0.25285495099E+03  0.27850132335E+03  0.41800000000E+01 0.  1.
        -11    1    1    2    0    0  0.33601845217E+02 -0.96523602803E+02 -0.68060258432E+02  0.12279286900E+03  0.00000000000E+00 0.  1.
         11    1    1    2    0    0 -0.33115729843E+02 -0.11654094619E+02 -0.23648410479E+02  0.42328675890E+02  0.00000000000E+00 0. -1.
</event>
<event>
 7    1  0.1068210E-005  0.1097558E+03  0.7561462E-02  0.1261023E+00
          2   -1    0    0  501    0  0.00000000000E+00  0.00000000000E+00  0.43819040599E+03  0.43819040599E+03  0.00000000000E+00 0.  1.
         -2   -1    0    0    0  501 -0.00000000000E+00 -0.00000000000E+00 -0.48259582908E+02  0.48259582908E+02  0.00000000000E+00 0. -1.
         23    2    1    2    0    0  0.93843564908E+02  0.18109047997E+02  0.18116094169E+03  0.24000370294E+03  0.12509171971E+03 0.  0.
          5    1    3    3  502    0 -0.11744819517E+02  0.62914539758E+01  0.11265278824E+03  0.11351496059E+03  0.41800000000E+01 0.  1.
         -5    1    3    3    0  502  0.10558838443E+03  0.11817594022E+02  0.68508153445E+02  0.12648874235E+03  0.41800000000E+01 0.  1.
        -11    1    1    2    0    0 -0.69868578468E+02 -0.25106384251E+02  0.20865608041E+03  0.22147078516E+03  0.00000000000E+00 0.  1.
         11    1    1    2    0    0 -0.23974986440E+02  0.69973362539E+01  0.11380098797E+00  0.24975500798E+02  0.00000000000E+00 0. -1.
</event>
<event>
 7    1  0.1068210E-005  0.8675120E+02  0.7561462E-02  0.1310915E+00
         -2   -1    0    0    0  501 -0.00000000000E+00  0.00000000000E+00  0.37540404140E+03  0.37540404140E+03  0.00000000000E+00 0.  1.
          2   -1    0    0  501    0  0.00000000000E+00 -0.00000000000E+00 -0.35990412232E+02  0.35990412232E+02  0.00000000000E+00 0. -1.
         23    2    1    2    0    0 -0.35964979588E+02  0.18912530168E+02  0.21238170849E+03  0.24981095780E+03  0.12509340902E+03 0.  0.
          5    1    3    3  502    0 -0.43378647966E+02  0.68027492762E+02  0.14511326170E+03  0.16608665808E+03  0.41800000000E+01 0.  1.
         -5    1    3    3    0  502  0.74136683776E+01 -0.49114962594E+02  0.67268446792E+02  0.83724299718E+02  0.41800000000E+01 0.  1.
        -11    1    1    2    0    0  0.17271730012E+02 -0.16730023319E+02  0.13781230677E+03  0.13989438243E+03  0.00000000000E+00 0.  1.
         11    1    1    2    0    0  0.18693249576E+02 -0.21825068486E+01 -0.10780386097E+02  0.21689113404E+02  0.00000000000E+00 0. -1.
</event>
<event>
 7    1  0.1068210E-005  0.1289429E+03  0.7561462E-02  0.1229033E+00
         -2   -1    0    0    0  501 -0.00000000000E+00  0.00000000000E+00  0.35696548540E+02  0.35696548540E+02  0.00000000000E+00 0.  1.
          2   -1    0    0  501    0  0.00000000000E+00 -0.00000000000E+00 -0.65002505720E+03  0.65002505720E+03  0.00000000000E+00 0. -1.
         23    2    1    2    0    0  0.98731936862E+02 -0.36404024082E+02 -0.28777929571E+03  0.33096322795E+03  0.12508591803E+03 0.  0.
          5    1    3    3  502    0 -0.10762807700E+02 -0.15844152257E+02 -0.16078396494E+03  0.16197478499E+03  0.41800000000E+01 0. -1.
         -5    1    3    3    0  502  0.10949474456E+03 -0.20559871825E+02 -0.12699533077E+03  0.16898844296E+03  0.41800000000E+01 0. -1.
        -11    1    1    2    0    0 -0.53829157643E+02 -0.17533017632E+02 -0.22003768836E+03  0.22720380547E+03  0.00000000000E+00 0.  1.
         11    1    1    2    0    0 -0.44902779219E+02  0.53937041714E+02 -0.10651152459E+03  0.12755457232E+03  0.00000000000E+00 0. -1.
</event>
<event>
 7    1  0.1068210E-005  0.1166380E+03  0.7561462E-02  0.1248749E+00
          3   -1    0    0  501    0  0.00000000000E+00  0.00000000000E+00  0.55575458434E+02  0.55575458434E+02  0.00000000000E+00 0. -1.
         -3   -1    0    0    0  501 -0.00000000000E+00 -0.00000000000E+00 -0.54397230575E+03  0.54397230575E+03  0.00000000000E+00 0.  1.
         23    2    1    2    0    0  0.84127239349E+01  0.77972419852E+02 -0.44637856865E+03  0.47016167825E+03  0.12509078688E+03 0.  0.
          5    1    3    3  502    0 -0.32903628795E+02  0.64238171420E+02 -0.11450436648E+03  0.13541755351E+03  0.41800000000E+01 0.  1.
         -5    1    3    3    0  502  0.41316352729E+02  0.13734248432E+02 -0.33187420217E+03  0.33474412474E+03  0.41800000000E+01 0.  1.
        -11    1    1    2    0    0 -0.37167968562E+02 -0.34079712236E+01 -0.31383352467E+02  0.48764607729E+02  0.00000000000E+00 0.  1.
         11    1    1    2    0    0  0.28755244627E+02 -0.74564448629E+02 -0.10634926199E+02  0.80621478206E+02  0.00000000000E+00 0. -1.
</event>
<event>
 7    1  0.1068210E-005  0.1849737E+03  0.7561462E-02  0.1163074E+00
          1   -1    0    0  501    0  0.00000000000E+00  0.00000000000E+00  0.33647795866E+03  0.33647795866E+03  0.00000000000E+00 0. -1.
         -1   -1    0    0    0  501 -0.00000000000E+00 -0.00000000000E+00 -0.12234887101E+03  0.12234887101E+03  0.00000000000E+00 0.  1.
         23    2    1    2    0    0  0.24652972712E+02 -0.16007924620E+03  0.50006657727E+02  0.21066762747E+03  0.12508816618E+03 0.  0.
          5    1    3    3  502    0 -0.15211797204E+01  0.10680102368E+02  0.35405235736E+02  0.37247572966E+02  0.41800000000E+01 0. -1.
         -5    1    3    3    0  502  0.26174152433E+02 -0.17075934857E+03  0.14601421991E+02  0.17342005451E+03  0.41800000000E+01 0. -1.
        -11    1    1    2    0    0 -0.59263302097E+02  0.10096803125E+03  0.11271966420E+03  0.16251893738E+03  0.00000000000E+00 0.  1.
         11    1    1    2    0    0  0.34610329385E+02  0.59111214953E+02  0.51402765729E+02  0.85640264817E+02  0.00000000000E+00 0. -1.
</event>
<event>
 7    1  0.1068210E-005  0.1545333E+03  0.7561462E-02  0.1195011E+00
         -2   -1    0    0    0  501 -0.00000000000E+00  0.00000000000E+00  0.11796993101E+03  0.11796993101E+03  0.00000000000E+00 0.  1.
          2   -1    0    0  501    0  0.00000000000E+00 -0.00000000000E+00 -0.23380719747E+03  0.23380719747E+03  0.00000000000E+00 0. -1.
         23    2    1    2    0    0  0.19724857634E+02  0.11117473859E+03 -0.46637826061E+01  0.16857458984E+03  0.12508696559E+03 0.  0.
          5    1    3    3  502    0  0.45087280991E+02 -0.83002585706E+01 -0.55032770058E+01  0.46362869382E+02  0.41800000000E+01 0. -1.
         -5    1    3    3    0  502 -0.25362423357E+02  0.11947499716E+03  0.83949439969E+00  0.12221172045E+03  0.41800000000E+01 0. -1.
        -11    1    1    2    0    0  0.12787610117E+02 -0.10732380069E+03 -0.10334545007E+03  0.14953997198E+03  0.00000000000E+00 0. -1.
         11    1    1    2    0    0 -0.32512467751E+02 -0.38509378985E+01 -0.78280337757E+01  0.33662566669E+02  0.00000000000E+00 0.  1.
</event>
<event>
 7    1  0.1068210E-005  0.1431850E+03  0.7561462E-02  0.1209106E+00
          2   -1    0    0  501    0  0.00000000000E+00  0.00000000000E+00  0.12153369897E+03  0.12153369897E+03  0.00000000000E+00 0. -1.
         -2   -1    0    0    0  501 -0.00000000000E+00 -0.00000000000E+00 -0.22968013962E+03  0.22968013962E+03  0.00000000000E+00 0.  1.
         23    2    1    2    0    0 -0.11419724688E+03 -0.45981283039E+02 -0.28924995359E+02  0.17787106859E+03  0.12508465973E+03 0.  0.
          5    1    3    3  502    0 -0.11296702768E+03 -0.70305232490E+02 -0.53079761827E+02  0.14331541639E+03  0.41800000000E+01 0.  1.
         -5    1    3    3    0  502 -0.12302192007E+01  0.24323949451E+02  0.24154766468E+02  0.34555652205E+02  0.41800000000E+01 0.  1.
        -11    1    1    2    0    0  0.34520360168E+02 -0.35742197221E+01 -0.71153654769E+02  0.79166109541E+02  0.00000000000E+00 0.  1.
         11    1    1    2    0    0  0.79676886717E+02  0.49555502761E+02 -0.80677905153E+01  0.94176660456E+02  0.00000000000E+00 0. -1.
</event>
<event>
 7    1  0.1068210E-005  0.1012064E+03  0.7561462E-02  0.1277779E+00
          1   -1    0    0  501    0  0.00000000000E+00  0.00000000000E+00  0.61784446742E+03  0.61784446742E+03  0.00000000000E+00 0. -1.
         -1   -1    0    0    0  501 -0.00000000000E+00 -0.00000000000E+00 -0.23882102932E+02  0.23882102932E+02  0.00000000000E+00 0.  1.
         23    2    1    2    0    0 -0.24688917547E+02  0.42444966276E+02  0.26910897432E+03  0.30079672637E+03  0.12509161732E+03 0.  0.
          5    1    3    3  502    0  0.10510397282E+02  0.79217712411E+02  0.13054185535E+03  0.15311617422E+03  0.41800000000E+01 0. -1.
         -5    1    3    3    0  502 -0.35199314829E+02 -0.36772746136E+02  0.13856711897E+03  0.14768055215E+03  0.41800000000E+01 0. -1.
        -11    1    1    2    0    0  0.39836028967E+02 -0.39070278398E+02  0.31976748568E+03  0.32459920018E+03  0.00000000000E+00 0. -1.
         11    1    1    2    0    0 -0.15147111420E+02 -0.33746878770E+01  0.50859044909E+01  0.16330643806E+02  0.00000000000E+00 0.  1.
</event>
<event>
 7    1  0.1520168E-005  0.2044053E+03  0.7561462E-02  0.1146075E+00
         -2   -1    0    0    0  501 -0.00000000000E+00  0.00000000000E+00  0.31761048557E+02  0.31761048557E+02  0.00000000000E+00 0.  1.
          2   -1    0    0  501    0  0.00000000000E+00 -0.00000000000E+00 -0.14577515043E+04  0.14577515043E+04  0.00000000000E+00 0. -1.
         23    2    1    2    0    0 -0.14394617194E+03  0.11560658363E+03 -0.67883989557E+03  0.71453200080E+03  0.12508794411E+03 0.  0.
          5    1    3    3  502    0 -0.24960311039E+02  0.72630262319E+02 -0.12795558035E+03  0.14929258212E+03  0.41800000000E+01 0. -1.
         -5    1    3    3    0  502 -0.11898586090E+03  0.42976321316E+02 -0.55088431521E+03  0.56523941868E+03  0.41800000000E+01 0. -1.
        -11    1    1    2    0    0  0.72152478026E+02 -0.35544115523E+01 -0.28916715572E+03  0.29805411904E+03  0.00000000000E+00 0.  1.
         11    1    1    2    0    0  0.71793693911E+02 -0.11205217208E+03 -0.45798340441E+03  0.47692643297E+03  0.00000000000E+00 0. -1.
</event>
<event>
 7    1  0.1068210E-005  0.1690000E+03  0.7561462E-02  0.1178895E+00
          2   -1    0    0  501    0  0.00000000000E+00  0.00000000000E+00  0.25188784738E+03  0.25188784738E+03  0.00000000000E+00 0. -1.
         -2   -1    0    0    0  501 -0.00000000000E+00 -0.00000000000E+00 -0.13621268442E+03  0.13621268442E+03  0.00000000000E+00 0.  1.
         23    2    1    2    0    0 -0.18478562258E+02  0.14801482543E+03  0.44229256531E+02  0.19870894707E+03  0.12360895073E+03 0.  0.
          5    1    3    3  502    0 -0.31438713593E+02  0.14530076318E+03 -0.37416430414E+01  0.14876887035E+03  0.41800000000E+01 0. -1.
         -5    1    3    3    0  502  0.12960151335E+02  0.27140622526E+01  0.47970899573E+02  0.49940076716E+02  0.41800000000E+01 0.  1.
        -11    1    1    2    0    0 -0.34174277162E+02 -0.27454974719E+02  0.18523976899E+02  0.47589857917E+02  0.00000000000E+00 0. -1.
         11    1    1    2    0    0  0.52652839420E+02 -0.12055985071E+03  0.52921929526E+02  0.14180172682E+03  0.00000000000E+00 0.  1.
</event>
<event>
 7    1  0.1068210E-005  0.1025477E+03  0.7561462E-02  0.1275028E+00
          1   -1    0    0  501    0  0.00000000000E+00  0.00000000000E+00  0.17084798046E+02  0.17084798046E+02  0.00000000000E+00 0. -1.
         -1   -1    0    0    0  501 -0.00000000000E+00 -0.00000000000E+00 -0.87415272505E+03  0.87415272505E+03  0.00000000000E+00 0.  1.
         23    2    1    2    0    0  0.22982654776E+02  0.23550259733E+02 -0.64351864920E+03  0.65638892269E+03  0.12508936326E+03 0.  0.
          5    1    3    3  502    0  0.36871026116E+02  0.70693667127E+02 -0.41440512077E+03  0.42202623575E+03  0.41800000000E+01 0.  1.
         -5    1    3    3    0  502 -0.13888371340E+02 -0.47143407394E+02 -0.22911352843E+03  0.23436268694E+03  0.41800000000E+01 0.  1.
        -11    1    1    2    0    0 -0.15182069509E+02 -0.47959542278E+02 -0.19925270714E+03  0.20550487642E+03  0.00000000000E+00 0.  1.
         11    1    1    2    0    0 -0.78005852674E+01  0.24409282545E+02 -0.14296570665E+02  0.29343723990E+02  0.00000000000E+00 0. -1.
</event>
<event>
 7    1  0.1068210E-005  0.1071766E+03  0.7561462E-02  0.1265889E+00
          2   -1    0    0  501    0  0.00000000000E+00  0.00000000000E+00  0.32561425799E+03  0.32561425799E+03  0.00000000000E+00 0. -1.
         -2   -1    0    0    0  501 -0.00000000000E+00 -0.00000000000E+00 -0.67704311672E+02  0.67704311672E+02  0.00000000000E+00 0.  1.
         23    2    1    2    0    0  0.77669499832E+02 -0.21002385390E+02  0.57434116127E+02  0.15943354991E+03  0.12508688078E+03 0.  0.
          5    1    3    3  502    0  0.40093991368E+02  0.13874849773E+02  0.89279539239E+02  0.98936081016E+02  0.41800000000E+01 0. -1.
         -5    1    3    3    0  502  0.37575508463E+02 -0.34877235163E+02 -0.31845423112E+02  0.60497468890E+02  0.41800000000E+01 0. -1.
        -11    1    1    2    0    0  0.11615904609E+02  0.28408371729E+02  0.45713523256E+02  0.55060793971E+02  0.00000000000E+00 0.  1.
         11    1    1    2    0    0 -0.89285404441E+02 -0.74059863392E+01  0.15476230694E+03  0.17882422579E+03  0.00000000000E+00 0. -1.
</event>
<event>
 7    1  0.1068210E-005  0.1162379E+03  0.7561462E-02  0.1249436E+00
         -2   -1    0    0    0  501 -0.00000000000E+00  0.00000000000E+00  0.78088937927E+02  0.78088937927E+02  0.00000000000E+00 0.  1.
          2   -1    0    0  501    0  0.00000000000E+00 -0.00000000000E+00 -0.19686938281E+03  0.19686938281E+03  0.00000000000E+00 0. -1.
         23    2    1    2    0    0 -0.46073452582E+02  0.76257857173E+01 -0.23646627809E+02  0.13560173865E+03  0.12509097840E+03 0.  0.
          5    1    3    3  502    0  0.36520573130E+02  0.30359750481E+02 -0.61878021738E+01  0.48075232779E+02  0.41800000000E+01 0.  1.
         -5    1    3    3    0  502 -0.82594025712E+02 -0.22733964764E+02 -0.17458825635E+02  0.87526505869E+02  0.41800000000E+01 0.  1.
        -11    1    1    2    0    0 -0.36606519054E+01 -0.39690119359E+02 -0.54723142144E+02  0.67700282371E+02  0.00000000000E+00 0. -1.
         11    1    1    2    0    0  0.49734104487E+02  0.32064333641E+02 -0.40410674931E+02  0.71656299719E+02  0.00000000000E+00 0.  1.
</event>
<event>
 7    1  0.1068210E-005  0.2490726E+03  0.7561462E-02  0.1113892E+00
          1   -1    0    0  501    0  0.00000000000E+00  0.00000000000E+00  0.18030289012E+03  0.18030289012E+03  0.00000000000E+00 0. -1.
         -1   -1    0    0    0  501 -0.00000000000E+00 -0.00000000000E+00 -0.37345824955E+03  0.37345824955E+03  0.00000000000E+00 0.  1.
         23    2    1    2    0    0  0.22049362581E+03  0.81291929835E+02 -0.11456385942E+03  0.28982461885E+03  0.12509042700E+03 0.  0.
          5    1    3    3  502    0  0.12713595609E+03 -0.18699636056E+00 -0.10593798720E+03  0.16554128135E+03  0.41800000000E+01 0. -1.
         -5    1    3    3    0  502  0.93357669723E+02  0.81478926195E+02 -0.86258722267E+01  0.12428333751E+03  0.41800000000E+01 0. -1.
        -11    1    1    2    0    0 -0.36796757882E+01  0.10789251719E+02  0.69233503367E+01  0.13337194100E+02  0.00000000000E+00 0. -1.
         11    1    1    2    0    0 -0.21681395002E+03 -0.92081181554E+02 -0.85514850348E+02  0.25059932672E+03  0.00000000000E+00 0.  1.
</event>
<event>
 7    1  0.1068210E-005  0.9100485E+02  0.7561462E-02  0.1300436E+00
         -2   -1    0    0    0  501 -0.00000000000E+00  0.00000000000E+00  0.40147235223E+03  0.40147235223E+03  0.00000000000E+00 0.  1.
          2   -1    0    0  501    0  0.00000000000E+00 -0.00000000000E+00 -0.30371356902E+02  0.30371356902E+02  0.00000000000E+00 0. -1.
         23    2    1    2    0    0 -0.10482266988E+02 -0.14592590095E+02  0.24477591291E+03  0.27547089060E+03  0.12508454109E+03 0.  0.
          5    1    3    3  502    0 -0.65388423303E+02 -0.10384713805E+02  0.95276033874E+02  0.11609686996E+03  0.41800000000E+01 0.  1.
         -5    1    3    3    0  502  0.54906156315E+02 -0.42078762904E+01  0.14949987904E+03  0.15937402065E+03  0.41800000000E+01 0.  1.
        -11    1    1    2    0    0  0.31089446395E+02  0.22494744267E+02  0.12858325062E+03  0.13418725550E+03  0.00000000000E+00 0.  1.
         11    1    1    2    0    0 -0.20607179407E+02 -0.79021541718E+01 -0.22581682051E+01  0.22185563038E+02  0.00000000000E+00 0. -1.
</event>
<event>
 7    1  0.1068210E-005  0.1274577E+03  0.7561462E-02  0.1231278E+00
          4   -1    0    0  501    0  0.00000000000E+00  0.00000000000E+00  0.41520549340E+02  0.41520549340E+02  0.00000000000E+00 0. -1.
         -4   -1    0    0    0  501 -0.00000000000E+00 -0.00000000000E+00 -0.53081968292E+03  0.53081968292E+03  0.00000000000E+00 0.  1.
         23    2    1    2    0    0  0.91502790565E+02  0.21791506062E+02 -0.33337889924E+03  0.36828862402E+03  0.12508952675E+03 0.  0.
          5    1    3    3  502    0  0.75251448537E+02  0.56321594286E+02 -0.30852977417E+03  0.32255696619E+03  0.41800000000E+01 0.  1.
         -5    1    3    3    0  502  0.16251342028E+02 -0.34530088225E+02 -0.24849125070E+02  0.45731657824E+02  0.41800000000E+01 0.  1.
        -11    1    1    2    0    0 -0.61305542925E+02 -0.51506889938E+02 -0.62845968544E+02  0.10178872760E+03  0.00000000000E+00 0. -1.
         11    1    1    2    0    0 -0.30197247640E+02  0.29715383876E+02 -0.93074265796E+02  0.10226288064E+03  0.00000000000E+00 0.  1.
</event>
<event>
 7    1  0.1068210E-005  0.9939915E+02  0.7561462E-02  0.1281565E+00
         -4   -1    0    0    0  501 -0.00000000000E+00  0.00000000000E+00  0.74916946970E+02  0.74916946970E+02  0.00000000000E+00 0.  1.
          4   -1    0    0  501    0  0.00000000000E+00 -0.00000000000E+00 -0.19185804393E+03  0.19185804393E+03  0.00000000000E+00 0. -1.
         23    2    1    2    0    0 -0.26675999333E+02  0.41937511764E+02 -0.46993085919E+02  0.14256655957E+03  0.12508601021E+03 0.  0.
          5    1    3    3  502    0  0.31883793709E+02 -0.55251418963E+01  0.22759158686E+02  0.39781342340E+02  0.41800000000E+01 0. -1.
         -5    1    3    3    0  502 -0.58559793042E+02  0.47462653660E+02 -0.69752244605E+02  0.10278521723E+03  0.41800000000E+01 0. -1.
        -11    1    1    2    0    0  0.50318581967E+02 -0.44134592199E+02 -0.74372323658E+02  0.10005530694E+03  0.00000000000E+00 0. -1.
         11    1    1    2    0    0 -0.23642582634E+02  0.21970804350E+01  0.44243126144E+01  0.24153124397E+02  0.00000000000E+00 0.  1.
</event>
<event>
 7    1  0.1068210E-005  0.1332004E+03  0.7561462E-02  0.1222783E+00
         -2   -1    0    0    0  501 -0.00000000000E+00  0.00000000000E+00  0.22098545606E+03  0.22098545606E+03  0.00000000000E+00 0.  1.
          2   -1    0    0  501    0  0.00000000000E+00 -0.00000000000E+00 -0.10350673593E+03  0.10350673593E+03  0.00000000000E+00 0. -1.
         23    2    1    2    0    0 -0.44066662704E+02 -0.92692598087E+02  0.92580108461E+02  0.18641637156E+03  0.12508476566E+03 0.  0.
          5    1    3    3  502    0 -0.85440933998E+02 -0.79760165290E+02  0.56638375260E+02  0.12995081809E+03  0.41800000000E+01 0.  1.
         -5    1    3    3    0  502  0.41374271294E+02 -0.12932432797E+02  0.35941733201E+02  0.56465553470E+02  0.41800000000E+01 0.  1.
        -11    1    1    2    0    0  0.85838965751E-02  0.25766501350E+02 -0.31050503468E+02  0.40349057376E+02  0.00000000000E+00 0. -1.
         11    1    1    2    0    0  0.44058078808E+02  0.66926096737E+02  0.55949115142E+02  0.97726763059E+02  0.00000000000E+00 0.  1.
</event>
<event>
 7    1  0.1068210E-005  0.1166651E+03  0.7561462E-02  0.1248702E+00
          4   -1    0    0  501    0  0.00000000000E+00  0.00000000000E+00  0.72560966671E+02  0.72560966671E+02  0.00000000000E+00 0. -1.
         -4   -1    0    0    0  501 -0.00000000000E+00 -0.00000000000E+00 -0.25497109524E+03  0.25497109524E+03  0.00000000000E+00 0.  1.
         23    2    1    2    0    0  0.53457899903E+02  0.56042692900E+02 -0.13225836401E+03  0.19783461618E+03  0.12509088703E+03 0.  0.
          5    1    3    3  502    0 -0.16091303703E+02 -0.16368788577E+02 -0.82433846174E+02  0.85671924744E+02  0.41800000000E+01 0. -1.
         -5    1    3    3    0  502  0.69549203606E+02  0.72411481476E+02 -0.49824517833E+02  0.11216269143E+03  0.41800000000E+01 0. -1.
        -11    1    1    2    0    0  0.80402251134E+01  0.14096527139E+02  0.96610613243E+01  0.18886328472E+02  0.00000000000E+00 0. -1.
         11    1    1    2    0    0 -0.61498125016E+02 -0.70139220039E+02 -0.59812825883E+02  0.11081111726E+03  0.00000000000E+00 0.  1.
</event>
<event>
 7    1  0.1068210E-005  0.2172215E+03  0.7561462E-02  0.1135972E+00
         -1   -1    0    0    0  501 -0.00000000000E+00  0.00000000000E+00  0.88689648896E+02  0.88689648896E+02  0.00000000000E+00 0.  1.
          1   -1    0    0  501    0  0.00000000000E+00 -0.00000000000E+00 -0.56877948553E+03  0.56877948553E+03  0.00000000000E+00 0. -1.
         23    2    1    2    0    0  0.83547458645E+02  0.17016344244E+03 -0.17428011922E+03  0.28628557264E+03  0.12510033636E+03 0.  0.
          5    1    3    3  502    0  0.11480427133E+03  0.11077823688E+03 -0.12919284806E+03  0.20532925479E+03  0.41800000000E+01 0.  1.
         -5    1    3    3    0  502 -0.31256812689E+02  0.59385205567E+02 -0.45087271161E+02  0.80956317854E+02  0.41800000000E+01 0.  1.
        -11    1    1    2    0    0 -0.47157275109E+02 -0.16407474996E+03 -0.27202001249E+03  0.32115295323E+03  0.00000000000E+00 0. -1.
         11    1    1    2    0    0 -0.36390183536E+02 -0.60886924834E+01 -0.33789704921E+02  0.50030608557E+02  0.00000000000E+00 0.  1.
</event>
<event>
 7    1  0.1068210E-005  0.1130870E+03  0.7561462E-02  0.1254958E+00
         -2   -1    0    0    0  501 -0.00000000000E+00  0.00000000000E+00  0.12934240716E+03  0.12934240716E+03  0.00000000000E+00 0.  1.
          2   -1    0    0  501    0  0.00000000000E+00 -0.00000000000E+00 -0.18155131380E+03  0.18155131380E+03  0.00000000000E+00 0. -1.
         23    2    1    2    0    0 -0.83215670242E+02 -0.29138365433E+02  0.28750458620E+02  0.15571921698E+03  0.12509194040E+03 0.  0.
          5    1    3    3  502    0  0.16021368152E+01  0.25684487649E+02 -0.29248609751E+02  0.39181798332E+02  0.41800000000E+01 0. -1.
         -5    1    3    3    0  502 -0.84817807057E+02 -0.54822853082E+02  0.57999068371E+02  0.11653741865E+03  0.41800000000E+01 0. -1.
        -11    1    1    2    0    0  0.39050912743E+02 -0.96694331555E+01 -0.87218488180E+02  0.96049655928E+02  0.00000000000E+00 0. -1.
         11    1    1    2    0    0  0.44164757499E+02  0.38807798589E+02  0.62591229220E+01  0.59124848042E+02  0.00000000000E+00 0.  1.
</event>
<event>
 7    1  0.1068210E-005  0.1075217E+03  0.7561462E-02  0.1265229E+00
         -3   -1    0    0    0  501 -0.00000000000E+00  0.00000000000E+00  0.20526047708E+03  0.20526047708E+03  0.00000000000E+00 0.  1.
          3   -1    0    0  501    0  0.00000000000E+00 -0.00000000000E+00 -0.13322591369E+03  0.13322591369E+03  0.00000000000E+00 0. -1.
         23    2    1    2    0    0  0.66076052919E+02 -0.76798971052E+01  0.14665153239E+03  0.20391105199E+03  0.12509204445E+03 0.  0.
          5    1    3    3  502    0  0.32404034433E+02  0.35477534954E+02  0.14064522644E+03  0.14868499943E+03  0.41800000000E+01 0.  1.
         -5    1    3    3    0  502  0.33672018486E+02 -0.43157432059E+02  0.60063059477E+01  0.55226052566E+02  0.41800000000E+01 0.  1.
        -11    1    1    2    0    0 -0.88837535847E+02  0.47347309059E+01 -0.57230114170E+02  0.10578190497E+03  0.00000000000E+00 0.  1.
         11    1    1    2    0    0  0.22761482928E+02  0.29451661993E+01 -0.17386854834E+02  0.28793433800E+02  0.00000000000E+00 0. -1.
</event>
<event>
 7    1  0.1068210E-005  0.2073577E+03  0.7561462E-02  0.1143676E+00
          2   -1    0    0  501    0  0.00000000000E+00  0.00000000000E+00  0.72377349481E+03  0.72377349481E+03  0.00000000000E+00 0. -1.
         -2   -1    0    0    0  501 -0.00000000000E+00 -0.00000000000E+00 -0.73007087562E+02  0.73007087562E+02  0.00000000000E+00 0.  1.
         23    2    1    2    0    0  0.17411851820E+03  0.30244988225E+02  0.16608227330E+03  0.27288038116E+03  0.12509341800E+03 0.  0.
          5    1    3    3  502    0  0.93639407249E+02 -0.47028733098E+02  0.80193934053E+02  0.13201734653E+03  0.41800000000E+01 0.  1.
         -5    1    3    3    0  502  0.80479110948E+02  0.77273721322E+02  0.85888339246E+02  0.14086303463E+03  0.41800000000E+01 0.  1.
        -11    1    1    2    0    0 -0.92258300869E+02 -0.61164761532E+02  0.24897862378E+03  0.27247582871E+03  0.00000000000E+00 0. -1.
         11    1    1    2    0    0 -0.81860217329E+02  0.30919773308E+02  0.23570551017E+03  0.25142437250E+03  0.00000000000E+00 0.  1.
</event>
<event>
 7    1  0.1068210E-005  0.1007958E+03  0.7561462E-02  0.1278631E+00
          2   -1    0    0  501    0  0.00000000000E+00  0.00000000000E+00  0.41877953242E+03  0.41877953242E+03  0.00000000000E+00 0. -1.
         -2   -1    0    0    0  501 -0.00000000000E+00 -0.00000000000E+00 -0.45096680794E+02  0.45096680794E+02  0.00000000000E+00 0.  1.
         23    2    1    2    0    0 -0.69653347690E+02  0.17178560060E+02  0.15042072295E+03  0.20837346586E+03  0.12508563310E+03 0.  0.
          5    1    3    3  502    0  0.27163520834E+02  0.56550107345E+01 -0.11731117114E+01  0.28083529009E+02  0.41800000000E+01 0.  1.
         -5    1    3    3    0  502 -0.96816868524E+02  0.11523549325E+02  0.15159383467E+03  0.18028993685E+03  0.41800000000E+01 0.  1.
        -11    1    1    2    0    0  0.37201867471E+02 -0.21869784091E+02  0.21807789926E+03  0.22230662731E+03  0.00000000000E+00 0. -1.
         11    1    1    2    0    0  0.32451480219E+02  0.46912240314E+01  0.51842294042E+01  0.33196120042E+02  0.00000000000E+00 0.  1.
</event>
<event>
 7    1  0.1068210E-005  0.2275664E+03  0.7561462E-02  0.1128364E+00
         -1   -1    0    0    0  501 -0.00000000000E+00  0.00000000000E+00  0.13775161268E+03  0.13775161268E+03  0.00000000000E+00 0.  1.
          1   -1    0    0  501    0  0.00000000000E+00 -0.00000000000E+00 -0.43965583293E+03  0.43965583293E+03  0.00000000000E+00 0. -1.
         23    2    1    2    0    0  0.68504730160E+02 -0.20721283854E+03 -0.11899170383E+03  0.27826068815E+03  0.12505969166E+03 0.  0.
          5    1    3    3  502    0  0.90717987122E+00 -0.32452381643E+02  0.25590935209E+02  0.41549349146E+02  0.41800000000E+01 0.  1.
         -5    1    3    3    0  502  0.67597550289E+02 -0.17476045690E+03 -0.14458263904E+03  0.23671133901E+03  0.41800000000E+01 0.  1.
        -11    1    1    2    0    0 -0.15678693583E+02  0.16912389418E+03 -0.11540709983E+03  0.20534729535E+03  0.00000000000E+00 0.  1.
         11    1    1    2    0    0 -0.52826036578E+02  0.38088944366E+02 -0.67505416579E+02  0.93799462104E+02  0.00000000000E+00 0. -1.
</event>
<event>
 6    1  0.1068210E-005  0.1648740E+03  0.7561462E-02  0.1183301E+00
          1   -1    0    0  501    0  0.00000000000E+00  0.00000000000E+00  0.55070224278E+03  0.55070224278E+03  0.00000000000E+00 0. -1.
         -1   -1    0    0    0  501 -0.00000000000E+00 -0.00000000000E+00 -0.81204728059E+02  0.81204728059E+02  0.00000000000E+00 0.  1.
          5    1    1    2  502    0  0.11904027323E+03 -0.69558657173E+02  0.86217625116E+02  0.16266513062E+03  0.41800000000E+01 0. -1.
         -5    1    1    2    0  502 -0.14143522555E+02  0.67688789902E+02  0.84333740614E+01  0.69788292046E+02  0.41800000000E+01 0.  1.
        -11    1    1    2    0    0 -0.85301407888E+02 -0.25356046471E+02  0.33846267534E+03  0.34996605819E+03  0.00000000000E+00 0.  1.
         11    1    1    2    0    0 -0.19595342787E+02  0.27225913742E+02  0.36383840202E+02  0.49487489994E+02  0.00000000000E+00 0. -1.
</event>
<event>
 7    1  0.1068210E-005  0.1024164E+03  0.7561462E-02  0.1275295E+00
         -2   -1    0    0    0  501 -0.00000000000E+00  0.00000000000E+00  0.69564110059E+02  0.69564110059E+02  0.00000000000E+00 0.  1.
          2   -1    0    0  501    0  0.00000000000E+00 -0.00000000000E+00 -0.25548688644E+03  0.25548688644E+03  0.00000000000E+00 0. -1.
         23    2    1    2    0    0 -0.54201818438E+02  0.53209892940E+02 -0.79886596144E+02  0.16673219982E+03  0.12509447784E+03 0.  0.
          5    1    3    3  502    0  0.21631041096E+02  0.26729600983E+02 -0.79038682997E+02  0.86295766510E+02  0.41800000000E+01 0. -1.
         -5    1    3    3    0  502 -0.75832859535E+02  0.26480291957E+02 -0.84791314733E+00  0.80436433313E+02  0.41800000000E+01 0. -1.
        -11    1    1    2    0    0  0.50397412710E+02 -0.16755569313E+02 -0.80683495648E+01  0.53719145335E+02  0.00000000000E+00 0.  1.
         11    1    1    2    0    0  0.38044057288E+01 -0.36454323627E+02 -0.97967830671E+02  0.10459965134E+03  0.00000000000E+00 0. -1.
</event>
<event>
 7    1  0.1068210E-005  0.8872364E+02  0.7561462E-02  0.1305972E+00
         -2   -1    0    0    0  501 -0.00000000000E+00  0.00000000000E+00  0.97735360081E+02  0.97735360081E+02  0.00000000000E+00 0.  1.
          2   -1    0    0  501    0  0.00000000000E+00 -0.00000000000E+00 -0.15360072435E+03  0.15360072435E+03  0.00000000000E+00 0. -1.
         23    2    1    2    0    0  0.43524234837E+02  0.83760246003E+01  0.11294982035E+02  0.13319788869E+03  0.12509829785E+03 0.  0.
          5    1    3    3  502    0 -0.36320412036E+02  0.57949716546E+01 -0.25698538807E+02  0.45062637781E+02  0.41800000000E+01 0. -1.
         -5    1    3    3    0  502  0.79844646873E+02  0.25810529456E+01  0.36993520841E+02  0.88135250909E+02  0.41800000000E+01 0. -1.
        -11    1    1    2    0    0 -0.11613966080E+02  0.16357815824E+02 -0.74455450725E+02  0.77110806566E+02  0.00000000000E+00 0. -1.
         11    1    1    2    0    0 -0.31910268757E+02 -0.24733840424E+02  0.72951044183E+01  0.41027389178E+02  0.00000000000E+00 0.  1.
</event>
<event>
 7    1  0.1068210E-005  0.6554763E+02  0.7561462E-02  0.1375923E+00
         -1   -1    0    0    0  501 -0.00000000000E+00  0.00000000000E+00  0.62757628832E+02  0.62757628832E+02  0.00000000000E+00 0.  1.
          1   -1    0    0  501    0  0.00000000000E+00 -0.00000000000E+00 -0.20425131691E+03  0.20425131691E+03  0.00000000000E+00 0. -1.
         23    2    1    2    0    0 -0.12404161313E+01 -0.24232259889E+02 -0.55001001080E+02  0.13878980658E+03  0.12509500086E+03 0.  0.
          5    1    3    3  502    0 -0.25025955936E+02 -0.30818628129E+02 -0.88432660010E+02  0.97025223868E+02  0.41800000000E+01 0.  1.
         -5    1    3    3    0  502  0.23785539805E+02  0.65863682402E+01  0.33431658930E+02  0.41764582713E+02  0.41800000000E+01 0.  1.
        -11    1    1    2    0    0  0.13564084009E+02 -0.17778936722E+02 -0.81076523043E+02  0.84103968722E+02  0.00000000000E+00 0. -1.
         11    1    1    2    0    0 -0.12323667877E+02  0.42011196611E+02 -0.54161639507E+01  0.44115170436E+02  0.00000000000E+00 0.  1.
</event>
<event>
 6    1  0.1068210E-005  0.9008739E+02  0.7561462E-02  0.1302640E+00
         -2   -1    0    0    0  501 -0.00000000000E+00  0.00000000000E+00  0.19109236629E+03  0.19109236629E+03  0.00000000000E+00 0.  1.
          2   -1    0    0  501    0  0.00000000000E+00 -0.00000000000E+00 -0.71635141891E+02  0.71635141891E+02  0.00000000000E+00 0. -1.
          5    1    1    2  502    0 -0.53571740073E+01 -0.62445048059E+02  0.91307102152E+02  0.11082663328E+03  0.41800000000E+01 0. -1.
         -5    1    1    2    0  502  0.17396622565E+02  0.52354699777E+02  0.42224242206E+01  0.55488362128E+02  0.41800000000E+01 0.  1.
        -11    1    1    2    0    0 -0.36414766043E+02  0.24851958660E+01 -0.22890815816E+02  0.43083649255E+02  0.00000000000E+00 0. -1.
         11    1    1    2    0    0  0.24375317485E+02  0.76051524165E+01  0.46818513839E+02  0.53328863516E+02  0.00000000000E+00 0.  1.
</event>
<event>
 6    1  0.1068210E-005  0.1111711E+03  0.7561462E-02  0.1258416E+00
         -2   -1    0    0    0  501 -0.00000000000E+00  0.00000000000E+00  0.27613902730E+03  0.27613902730E+03  0.00000000000E+00 0.  1.
          2   -1    0    0  501    0  0.00000000000E+00 -0.00000000000E+00 -0.67378755024E+02  0.67378755024E+02  0.00000000000E+00 0. -1.
          5    1    1    2  502    0 -0.34935700189E+01  0.64683434423E+02  0.13958454450E+02  0.66396254193E+02  0.41800000000E+01 0. -1.
         -5    1    1    2    0  502  0.50905321851E+01 -0.98025586317E+02  0.17866563518E+03  0.20389656859E+03  0.41800000000E+01 0.  1.
        -11    1    1    2    0    0 -0.18388913780E+02  0.37603498622E+02 -0.88850460765E+01  0.42791579807E+02  0.00000000000E+00 0. -1.
         11    1    1    2    0    0  0.16791951614E+02 -0.42613467269E+01  0.25021228727E+02  0.30433379732E+02  0.00000000000E+00 0.  1.
</event>
<event>
 7    1  0.1068210E-005  0.8795045E+02  0.7561462E-02  0.1307892E+00
          3   -1    0    0  501    0  0.00000000000E+00  0.00000000000E+00  0.12907307264E+03  0.12907307264E+03  0.00000000000E+00 0. -1.
         -3   -1    0    0    0  501 -0.00000000000E+00 -0.00000000000E+00 -0.10026925141E+03  0.10026925141E+03  0.00000000000E+00 0.  1.
         23    2    1    2    0    0 -0.99816119802E+01  0.81093933967E+01 -0.12487003578E+02  0.12636657029E+03  0.12508872847E+03 0.  0.
          5    1    3    3  502    0  0.42788627149E+02 -0.35173520436E+02  0.50464520113E+01  0.55776179782E+02  0.41800000000E+01 0.  1.
         -5    1    3    3    0  502 -0.52770239129E+02  0.43282913832E+02 -0.17533455590E+02  0.70590390511E+02  0.41800000000E+01 0.  1.
        -11    1    1    2    0    0 -0.82281417416E+01 -0.25500427411E+02 -0.22121660390E+02  0.34746826806E+02  0.00000000000E+00 0.  1.
         11    1    1    2    0    0  0.18209753722E+02  0.17391034014E+02  0.63412485195E+02  0.68228926954E+02  0.00000000000E+00 0. -1.
</event>
<event>
 7    1  0.1068210E-005  0.1183760E+03  0.7561462E-02  0.1245801E+00
         -3   -1    0    0    0  501 -0.00000000000E+00  0.00000000000E+00  0.67953940893E+02  0.67953940893E+02  0.00000000000E+00 0.  1.
          3   -1    0    0  501    0  0.00000000000E+00 -0.00000000000E+00 -0.21744570262E+03  0.21744570262E+03  0.00000000000E+00 0. -1.
         23    2    1    2    0    0 -0.43774109436E+02 -0.15190777479E+02 -0.56328989833E+02  0.14480228711E+03  0.12509122622E+03 0.  0.
          5    1    3    3  502    0  0.41862901959E+02 -0.21359007311E+02 -0.24265358212E+02  0.53056477106E+02  0.41800000000E+01 0.  1.
         -5    1    3    3    0  502 -0.85637011395E+02  0.61682298318E+01 -0.32063631621E+02  0.91745810001E+02  0.41800000000E+01 0.  1.
        -11    1    1    2    0    0 -0.16508677073E+02  0.36186604373E+02 -0.23889159883E+02  0.46397184340E+02  0.00000000000E+00 0.  1.
         11    1    1    2    0    0  0.60282786509E+02 -0.20995826894E+02 -0.69273612010E+02  0.94200172066E+02  0.00000000000E+00 0. -1.
</event>
<event>
 7    1  0.1068210E-005  0.1560827E+03  0.7561462E-02  0.1193192E+00
          1   -1    0    0  501    0  0.00000000000E+00  0.00000000000E+00  0.13951946179E+03  0.13951946179E+03  0.00000000000E+00 0. -1.
         -1   -1    0    0    0  501 -0.00000000000E+00 -0.00000000000E+00 -0.24503738801E+03  0.24503738801E+03  0.00000000000E+00 0.  1.
         23    2    1    2    0    0  0.11752159083E+02 -0.11839787206E+03 -0.14841555147E+03  0.22767385957E+03  0.12510811749E+03 0.  0.
          5    1    3    3  502    0  0.66488667305E+02 -0.43477420195E+02 -0.74201390721E+02  0.10878578828E+03  0.41800000000E+01 0. -1.
         -5    1    3    3    0  502 -0.54736508222E+02 -0.74920451864E+02 -0.74214160748E+02  0.11888807129E+03  0.41800000000E+01 0. -1.
        -11    1    1    2    0    0  0.31230122331E+02  0.49702792207E+02 -0.10782296719E+02  0.59682040988E+02  0.00000000000E+00 0.  1.
         11    1    1    2    0    0 -0.42982281414E+02  0.68695079852E+02  0.53679921969E+02  0.97200949245E+02  0.00000000000E+00 0. -1.
</event>
<event>
 7    1  0.1068210E-005  0.9547529E+02  0.7561462E-02  0.1290109E+00
          1   -1    0    0  501    0  0.00000000000E+00  0.00000000000E+00  0.66006480509E+03  0.66006480509E+03  0.00000000000E+00 0.  1.
         -1   -1    0    0    0  501 -0.00000000000E+00 -0.00000000000E+00 -0.30463918388E+02  0.30463918388E+02  0.00000000000E+00 0. -1.
         23    2    1    2    0    0  0.36589092171E+02 -0.75818197063E+02  0.25743379091E+03  0.29833868196E+03  0.12508657713E+03 0.  0.
          5    1    3    3  502    0  0.30454934136E+02 -0.66675763130E+02  0.46136292648E+02  0.86713264853E+02  0.41800000000E+01 0.  1.
         -5    1    3    3    0  502  0.61341580349E+01 -0.91424339329E+01  0.21129749827E+03  0.21162541711E+03  0.41800000000E+01 0.  1.
        -11    1    1    2    0    0 -0.54373718242E+02  0.46910822205E+02  0.33164984785E+03  0.33933574532E+03  0.00000000000E+00 0.  1.
         11    1    1    2    0    0  0.17784626070E+02  0.28907374858E+02  0.40517247945E+02  0.52854296199E+02  0.00000000000E+00 0. -1.
</event>
<event>
 7    1  0.1068210E-005  0.1950471E+03  0.7561462E-02  0.1153986E+00
          1   -1    0    0  501    0  0.00000000000E+00  0.00000000000E+00  0.39704595339E+02  0.39704595339E+02  0.00000000000E+00 0. -1.
         -1   -1    0    0    0  501 -0.00000000000E+00 -0.00000000000E+00 -0.15130267280E+04  0.15130267280E+04  0.00000000000E+00 0.  1.
         23    2    1    2    0    0  0.14662836731E+03  0.86381928296E+02 -0.11992538899E+04  0.12177106971E+04  0.12509090126E+03 0.  0.
          5    1    3    3  502    0  0.81136160936E+02 -0.19611505148E+02 -0.58437736662E+03  0.59032369660E+03  0.41800000000E+01 0. -1.
         -5    1    3    3    0  502  0.65492206370E+02  0.10599343344E+03 -0.61487652331E+03  0.62738700046E+03  0.41800000000E+01 0. -1.
        -11    1    1    2    0    0 -0.27936239361E+02  0.92495811110E+01 -0.11859256237E+02  0.31727435743E+02  0.00000000000E+00 0.  1.
         11    1    1    2    0    0 -0.11869212794E+03 -0.95631509407E+02 -0.26220898647E+03  0.30329319051E+03  0.00000000000E+00 0. -1.
</event>
<event>
 7    1  0.1068210E-005  0.8685323E+02  0.7561462E-02  0.1310656E+00
         -2   -1    0    0    0  501 -0.00000000000E+00  0.00000000000E+00  0.14266735805E+03  0.14266735805E+03  0.00000000000E+00 0.  1.
          2   -1    0    0  501    0  0.00000000000E+00 -0.00000000000E+00 -0.17320480335E+03  0.17320480335E+03  0.00000000000E+00 0. -1.
         23    2    1    2    0    0 -0.13686197846E+02 -0.74091144911E+01  0.96654053641E+02  0.15884487981E+03  0.12508989874E+03 0.  0.
          5    1    3    3  502    0 -0.48092746466E+02 -0.31086104523E+02  0.45139900629E+01  0.57594328396E+02  0.41800000000E+01 0. -1.
         -5    1    3    3    0  502  0.34406548620E+02  0.23676990032E+02  0.92140063578E+02  0.10125055141E+03  0.41800000000E+01 0. -1.
        -11    1    1    2    0    0 -0.23386224130E+02  0.24167646289E+02 -0.13435182177E+02  0.36214565113E+02  0.00000000000E+00 0.  1.
         11    1    1    2    0    0  0.37072421975E+02 -0.16758531798E+02 -0.11375631676E+03  0.12081271648E+03  0.00000000000E+00 0. -1.
</event>
<event>
 7    1  0.1068210E-005  0.8745740E+02  0.7561462E-02  0.1309128E+00
         -2   -1    0    0    0  501 -0.00000000000E+00  0.00000000000E+00  0.79470922221E+02  0.79470922221E+02  0.00000000000E+00 0.  1.
          2   -1    0    0  501    0  0.00000000000E+00 -0.00000000000E+00 -0.20833041338E+03  0.20833041338E+03  0.00000000000E+00 0. -1.
         23    2    1    2    0    0 -0.61291974967E+02 -0.13582136991E+02 -0.38918976858E+02  0.14526784955E+03  0.12508749223E+03 0.  0.
          5    1    3    3  502    0 -0.53857374792E+02 -0.33712707227E+02 -0.77876333697E+02  0.10059502571E+03  0.41800000000E+01 0.  1.
         -5    1    3    3    0  502 -0.74346001755E+01  0.20130570236E+02  0.38957356839E+02  0.44672823838E+02  0.41800000000E+01 0.  1.
        -11    1    1    2    0    0  0.34253852703E+02 -0.24897781117E+02 -0.85353553322E+02  0.95280926707E+02  0.00000000000E+00 0.  1.
         11    1    1    2    0    0  0.27038122264E+02  0.38479918109E+02 -0.45869609781E+01  0.47252559341E+02  0.00000000000E+00 0. -1.
</event>
<event>
 7    1  0.1068210E-005  0.1110914E+03  0.7561462E-02  0.1258562E+00
         -3   -1    0    0    0  501 -0.00000000000E+00  0.00000000000E+00  0.24420774909E+03  0.24420774909E+03  0.00000000000E+00 0.  1.
          3   -1    0    0  501    0  0.00000000000E+00 -0.00000000000E+00 -0.75152393230E+02  0.75152393230E+02  0.00000000000E+00 0. -1.
         23    2    1    2    0    0 -0.10060247531E+02  0.19056440449E+02  0.18273943405E+03  0.22443985645E+03  0.12851144658E+03 0.  0.
          5    1    3    3  502    0  0.41842614436E+02 -0.34021850342E+02  0.96027003590E+02  0.11021319568E+03  0.41800000000E+01 0.  1.
         -5    1    3    3    0  502 -0.51902861967E+02  0.53078290791E+02  0.86712430459E+02  0.11422666077E+03  0.41800000000E+01 0. -1.
        -11    1    1    2    0    0  0.91047428355E+01  0.36781260600E+02 -0.85097872314E+01  0.38835215361E+02  0.00000000000E+00 0.  1.
         11    1    1    2    0    0  0.95550469518E+00 -0.55837701048E+02 -0.51742909565E+01  0.56085070513E+02  0.00000000000E+00 0. -1.
</event>
<event>
 7    1  0.1068210E-005  0.8615935E+02  0.7561462E-02  0.1312428E+00
          1   -1    0    0  501    0  0.00000000000E+00  0.00000000000E+00  0.73931339458E+03  0.73931339458E+03  0.00000000000E+00 0. -1.
         -1   -1    0    0    0  501 -0.00000000000E+00 -0.00000000000E+00 -0.24567114302E+02  0.24567114302E+02  0.00000000000E+00 0.  1.
         23    2    1    2    0    0 -0.25561769912E+02  0.73800554704E+02  0.33279763640E+03  0.36400853811E+03  0.12509205837E+03 0.  0.
          5    1    3    3  502    0 -0.22317808578E+02  0.44677572223E+02  0.27279212847E+02  0.57059599482E+02  0.41800000000E+01 0.  1.
         -5    1    3    3    0  502 -0.32439613339E+01  0.29122982480E+02  0.30551842356E+03  0.30694893863E+03  0.41800000000E+01 0.  1.
        -11    1    1    2    0    0 -0.13640426147E+02 -0.74654601287E+01  0.69382863789E+01  0.17027452490E+02  0.00000000000E+00 0.  1.
         11    1    1    2    0    0  0.39202196060E+02 -0.66335094575E+02  0.37501035749E+03  0.38284451828E+03  0.00000000000E+00 0. -1.
</event>
<event>
 7    1  0.1068210E-005  0.2819220E+03  0.7561462E-02  0.1094644E+00
          2   -1    0    0  501    0  0.00000000000E+00  0.00000000000E+00  0.46962578639E+03  0.46962578639E+03  0.00000000000E+00 0. -1.
         -2   -1    0    0    0  501 -0.00000000000E+00 -0.00000000000E+00 -0.18211191452E+03  0.18211191452E+03  0.00000000000E+00 0.  1.
         23    2    1    2    0    0 -0.21066393445E+03  0.16540696287E+03  0.98553989342E+02  0.31160612324E+03  0.12508689213E+03 0.  0.
          5    1    3    3  502    0 -0.18777475870E+01 -0.17448290557E+02  0.61066779745E+01  0.19045542660E+02  0.41800000000E+01 0.  1.
         -5    1    3    3    0  502 -0.20878618687E+03  0.18285525342E+03  0.92447311367E+02  0.29256058058E+03  0.41800000000E+01 0.  1.
        -11    1    1    2    0    0  0.12368966570E+02 -0.56869014259E+01  0.46321170815E+02  0.48280255255E+02  0.00000000000E+00 0. -1.
         11    1    1    2    0    0  0.19829496788E+03 -0.15972006144E+03  0.14263871171E+03  0.29185132241E+03  0.00000000000E+00 0.  1.
</event>
<event>
 6    1  0.1068210E-005  0.1273704E+03  0.7561462E-02  0.1231411E+00
         -2   -1    0    0    0  501 -0.00000000000E+00  0.00000000000E+00  0.96033084854E+02  0.96033084854E+02  0.00000000000E+00 0.  1.
          2   -1    0    0  501    0  0.00000000000E+00 -0.00000000000E+00 -0.53972211511E+03  0.53972211511E+03  0.00000000000E+00 0. -1.
          5    1    1    2  502    0 -0.63217236542E+02  0.25522327762E+02 -0.39123405904E+02  0.78714175978E+02  0.41800000000E+01 0. -1.
         -5    1    1    2    0  502 -0.24720553302E+02 -0.60985420248E+02  0.50660617139E+02  0.83152256538E+02  0.41800000000E+01 0.  1.
        -11    1    1    2    0    0  0.95735111948E+01 -0.21556529736E+02 -0.32267517173E+02  0.39969097505E+02  0.00000000000E+00 0.  1.
         11    1    1    2    0    0  0.78364278649E+02  0.57019622222E+02 -0.42295872432E+03  0.43391966994E+03  0.00000000000E+00 0. -1.
</event>
<event>
 7    1  0.1068210E-005  0.9290595E+02  0.7561462E-02  0.1295963E+00
          2   -1    0    0  501    0  0.00000000000E+00  0.00000000000E+00  0.11714319610E+03  0.11714319610E+03  0.00000000000E+00 0. -1.
         -2   -1    0    0    0  501 -0.00000000000E+00 -0.00000000000E+00 -0.11540722563E+03  0.11540722563E+03  0.00000000000E+00 0.  1.
         23    2    1    2    0    0  0.29210746146E+02 -0.27062230806E+02  0.11861642473E+02  0.13180621622E+03  0.12508616248E+03 0.  0.
          5    1    3    3  502    0  0.40285139552E+02  0.20812314270E+02 -0.39732728137E+02  0.60433492198E+02  0.41800000000E+01 0.  1.
         -5    1    3    3    0  502 -0.11074393407E+02 -0.47874545076E+02  0.51594370609E+02  0.71372724021E+02  0.41800000000E+01 0.  1.
        -11    1    1    2    0    0 -0.33148381252E+02 -0.23252873362E+02 -0.25662065166E+02  0.47938010887E+02  0.00000000000E+00 0.  1.
         11    1    1    2    0    0  0.39376351064E+01  0.50315104169E+02  0.15536393161E+02  0.52806194619E+02  0.00000000000E+00 0. -1.
</event>
<event>
 7    1  0.1068210E-005  0.8976765E+02  0.7561462E-02  0.1303415E+00
          2   -1    0    0  501    0  0.00000000000E+00  0.00000000000E+00  0.38601180509E+02  0.38601180509E+02  0.00000000000E+00 0.  1.
         -2   -1    0    0    0  501 -0.00000000000E+00 -0.00000000000E+00 -0.47939885175E+03  0.47939885175E+03  0.00000000000E+00 0. -1.
         23    2    1    2    0    0 -0.25687988579E+02 -0.35513726618E+02 -0.36721570345E+03  0.39040486612E+03  0.12508992405E+03 0.  0.
          5    1    3    3  502    0 -0.43245983731E+02  0.15172663298E+02 -0.47290908878E+02  0.65987326684E+02  0.41800000000E+01 0.  1.
         -5    1    3    3    0  502  0.17557995152E+02 -0.50686389916E+02 -0.31992479457E+03  0.32441753944E+03  0.41800000000E+01 0.  1.
        -11    1    1    2    0    0 -0.13138047074E+02 -0.12382969008E+02  0.12319506769E+02  0.21856725496E+02  0.00000000000E+00 0.  1.
         11    1    1    2    0    0  0.38826035653E+02  0.47896695626E+02 -0.85901474560E+02  0.10573844064E+03  0.00000000000E+00 0. -1.
</event>
<event>
 7    1  0.1068210E-005  0.1157660E+03  0.7561462E-02  0.1250250E+00
         -2   -1    0    0    0  501 -0.00000000000E+00  0.00000000000E+00  0.64264357915E+02  0.64264357915E+02  0.00000000000E+00 0.  1.
          2   -1    0    0  501    0  0.00000000000E+00 -0.00000000000E+00 -0.37599426646E+03  0.37599426646E+03  0.00000000000E+00 0. -1.
         23    2    1    2    0    0 -0.47299978731E+02  0.91838325267E+02 -0.10855480295E+03  0.19519861359E+03  0.12508711975E+03 0.  0.
          5    1    3    3  502    0 -0.44357906506E+02  0.43523886892E+02 -0.12840647126E+03  0.14271526499E+03  0.41800000000E+01 0.  1.
         -5    1    3    3    0  502 -0.29420722251E+01  0.48314438375E+02  0.19851668314E+02  0.52483348591E+02  0.41800000000E+01 0.  1.
        -11    1    1    2    0    0  0.54074086510E+02 -0.37265597834E+02 -0.16643972829E+03  0.17892712138E+03  0.00000000000E+00 0.  1.
         11    1    1    2    0    0 -0.67741077782E+01 -0.54572727433E+02 -0.36735377310E+02  0.66132889410E+02  0.00000000000E+00 0. -1.
</event>
<event>
 7    1  0.1068210E-005  0.1364949E+03  0.7561462E-02  0.1218125E+00
          2   -1    0    0  501    0  0.00000000000E+00  0.00000000000E+00  0.56889443751E+03  0.56889443751E+03  0.00000000000E+00 0. -1.
         -2   -1    0    0    0  501 -0.00000000000E+00 -0.00000000000E+00 -0.53151240629E+02  0.53151240629E+02  0.00000000000E+00 0.  1.
         23    2    1    2    0    0 -0.10820389203E+03 -0.74087662033E+02  0.21414550886E+03  0.28053941381E+03  0.12508796831E+03 0.  0.
          5    1    3    3  502    0 -0.17691912059E+02 -0.12938492790E+02 -0.14842003325E+02  0.26798615835E+02  0.41800000000E+01 0.  1.
         -5    1    3    3    0  502 -0.90511979968E+02 -0.61149169243E+02  0.22898751219E+03  0.25374079797E+03  0.41800000000E+01 0.  1.
        -11    1    1    2    0    0  0.11302981278E+03  0.63302801888E+02  0.30307209276E+03  0.32959926686E+03  0.00000000000E+00 0. -1.
         11    1    1    2    0    0 -0.48259207487E+01  0.10784860144E+02 -0.14744047477E+01  0.11906997471E+02  0.00000000000E+00 0.  1.
</event>
<event>
 7    1  0.1068210E-005  0.7711300E+02  0.7561462E-02  0.1337450E+00
          2   -1    0    0  501    0  0.00000000000E+00  0.00000000000E+00  0.34103036273E+03  0.34103036273E+03  0.00000000000E+00 0. -1.
         -2   -1    0    0    0  501 -0.00000000000E+00 -0.00000000000E+00 -0.48677246177E+02  0.48677246177E+02  0.00000000000E+00 0.  1.
         23    2    1    2    0    0  0.18240073036E+02 -0.58380040357E+02  0.11290909860E+03  0.17926558829E+03  0.12508699860E+03 0.  0.
          5    1    3    3  502    0  0.40540907794E+02 -0.19370709103E+02 -0.11800176750E+02  0.46642321418E+02  0.41800000000E+01 0. -1.
         -5    1    3    3    0  502 -0.22300834758E+02 -0.39009331254E+02  0.12470927535E+03  0.13262326687E+03  0.41800000000E+01 0. -1.
        -11    1    1    2    0    0 -0.83820091552E+00  0.34050127955E+02  0.61821038669E+01  0.34616935202E+02  0.00000000000E+00 0.  1.
         11    1    1    2    0    0 -0.17401872120E+02  0.24329912402E+02  0.17326191408E+03  0.17582508542E+03  0.00000000000E+00 0. -1.
</event>
<event>
 7    1  0.1068210E-005  0.1037952E+03  0.7561462E-02  0.1272512E+00
          3   -1    0    0  501    0  0.00000000000E+00  0.00000000000E+00  0.23737099266E+02  0.23737099266E+02  0.00000000000E+00 0. -1.
         -3   -1    0    0    0  501 -0.00000000000E+00 -0.00000000000E+00 -0.64981620295E+03  0.64981620295E+03  0.00000000000E+00 0.  1.
         23    2    1    2    0    0  0.48558218798E+02 -0.44412172964E+02 -0.41850563324E+03  0.44172813240E+03  0.12508571532E+03 0.  0.
          5    1    3    3  502    0  0.77433971575E+02 -0.28870609863E+02 -0.38806791583E+03  0.39679177381E+03  0.41800000000E+01 0. -1.
         -5    1    3    3    0  502 -0.28875752777E+02 -0.15541563100E+02 -0.30437717417E+02  0.44936358593E+02  0.41800000000E+01 0. -1.
        -11    1    1    2    0    0 -0.13729773558E+02 -0.16594260651E+02 -0.13475248964E+02  0.25405875367E+02  0.00000000000E+00 0. -1.
         11    1    1    2    0    0 -0.34828445240E+02  0.61006433614E+02 -0.19409822148E+03  0.20641929445E+03  0.00000000000E+00 0.  1.
</event>
<event>
 7    1  0.1068210E-005  0.1963779E+03  0.7561462E-02  0.1152831E+00
         -1   -1    0    0    0  501 -0.00000000000E+00  0.00000000000E+00  0.12976008958E+03  0.12976008958E+03  0.00000000000E+00 0.  1.
          1   -1    0    0  501    0  0.00000000000E+00 -0.00000000000E+00 -0.30879903895E+03  0.30879903895E+03  0.00000000000E+00 0. -1.
         23    2    1    2    0    0 -0.16520331933E+03  0.46939381549E+01 -0.62342302286E+02  0.21643547583E+03  0.12507430899E+03 0.  0.
          5    1    3    3  502    0 -0.13731579680E+03  0.53798676865E+02 -0.61394243750E+02  0.15980191253E+03  0.41800000000E+01 0.  1.
         -5    1    3    3    0  502 -0.27887522525E+02 -0.49104738710E+02 -0.94805853624E+00  0.56633563294E+02  0.41800000000E+01 0.  1.
        -11    1    1    2    0    0  0.95480510334E+02 -0.47638711095E+02 -0.58770638274E+02  0.12181938504E+03  0.00000000000E+00 0.  1.
         11    1    1    2    0    0  0.69722808993E+02  0.42944772940E+02 -0.57926008809E+02  0.10030426767E+03  0.00000000000E+00 0. -1.
</event>
<event>
 7    1  0.1068210E-005  0.1153674E+03  0.7561462E-02  0.1250941E+00
         -1   -1    0    0    0  501 -0.00000000000E+00  0.00000000000E+00  0.46001790971E+02  0.46001790971E+02  0.00000000000E+00 0.  1.
          1   -1    0    0  501    0  0.00000000000E+00 -0.00000000000E+00 -0.35516948053E+03  0.35516948053E+03  0.00000000000E+00 0. -1.
         23    2    1    2    0    0  0.64434616740E+02 -0.26258329210E+00 -0.14171922024E+03  0.19970817883E+03  0.12508849077E+03 0.  0.
          5    1    3    3  502    0  0.64525809880E+02  0.49005615832E+02 -0.49421488690E+02  0.95000455094E+02  0.41800000000E+01 0. -1.
         -5    1    3    3    0  502 -0.91193139394E-01 -0.49268199125E+02 -0.92297731553E+02  0.10470772374E+03  0.41800000000E+01 0. -1.
        -11    1    1    2    0    0 -0.94900384457E+01 -0.34070031682E+02 -0.10759413286E+03  0.11325778257E+03  0.00000000000E+00 0.  1.
         11    1    1    2    0    0 -0.54944578295E+02  0.34332614974E+02 -0.59854336456E+02  0.88205310087E+02  0.00000000000E+00 0. -1.
</event>
<event>
 7    1  0.1068210E-005  0.1105112E+03  0.7561462E-02  0.1259626E+00
         -2   -1    0    0    0  501 -0.00000000000E+00  0.00000000000E+00  0.25300537563E+03  0.25300537563E+03  0.00000000000E+00 0.  1.
          2   -1    0    0  501    0  0.00000000000E+00 -0.00000000000E+00 -0.66577369848E+02  0.66577369848E+02  0.00000000000E+00 0. -1.
         23    2    1    2    0    0  0.47145837907E+02  0.23791847201E+02  0.16244824361E+03  0.21172034907E+03  0.12508913755E+03 0.  0.
          5    1    3    3  502    0  0.84190371601E+02  0.35753073697E+01  0.68615124094E+02  0.10874883515E+03  0.41800000000E+01 0.  1.
         -5    1    3    3    0  502 -0.37044533693E+02  0.20216539831E+02  0.93833119515E+02  0.10297151391E+03  0.41800000000E+01 0.  1.
        -11    1    1    2    0    0  0.18423004811E+02  0.94774314508E+01  0.27288006020E+02  0.34261699983E+02  0.00000000000E+00 0.  1.
         11    1    1    2    0    0 -0.65568842718E+02 -0.33269278651E+02 -0.33082438492E+01  0.73600696428E+02  0.00000000000E+00 0. -1.
</event>
<event>
 6    1  0.1068210E-005  0.1283183E+03  0.7561462E-02  0.1229973E+00
          1   -1    0    0  501    0  0.00000000000E+00  0.00000000000E+00  0.30228291031E+03  0.30228291031E+03  0.00000000000E+00 0. -1.
         -1   -1    0    0    0  501 -0.00000000000E+00 -0.00000000000E+00 -0.54566692553E+02  0.54566692553E+02  0.00000000000E+00 0.  1.
          5    1    1    2  502    0 -0.60173481554E+02 -0.17700588363E+02  0.57991618243E+02  0.85525779138E+02  0.41800000000E+01 0. -1.
         -5    1    1    2    0  502  0.89970381461E+02 -0.93053491956E+01  0.92300255972E+02  0.12929837090E+03  0.41800000000E+01 0.  1.
        -11    1    1    2    0    0 -0.25008963415E+02 -0.33904011828E+02  0.36489027222E+02  0.55734902679E+02  0.00000000000E+00 0.  1.
         11    1    1    2    0    0 -0.47879364918E+01  0.60909949386E+02  0.60935316320E+02  0.86290550149E+02  0.00000000000E+00 0. -1.
</event>
<event>
 7    1  0.1068210E-005  0.1008232E+03  0.7561462E-02  0.1278574E+00
         -3   -1    0    0    0  501 -0.00000000000E+00  0.00000000000E+00  0.15505226878E+03  0.15505226878E+03  0.00000000000E+00 0.  1.
          3   -1    0    0  501    0  0.00000000000E+00 -0.00000000000E+00 -0.10486652867E+03  0.10486652867E+03  0.00000000000E+00 0. -1.
         23    2    1    2    0    0 -0.29982404895E+02 -0.22001268633E+02  0.73355154080E+02  0.14968845024E+03  0.12507059239E+03 0.  0.
          5    1    3    3  502    0  0.21023473726E+02  0.42633686212E+02  0.21882656054E+02  0.52497054046E+02  0.41800000000E+01 0. -1.
         -5    1    3    3    0  502 -0.51005878621E+02 -0.64634954844E+02  0.51472498026E+02  0.97191396197E+02  0.41800000000E+01 0. -1.
        -11    1    1    2    0    0  0.16008655204E+02 -0.20922341811E+02  0.30367764699E+02  0.40202270596E+02  0.00000000000E+00 0.  1.
         11    1    1    2    0    0  0.13973749691E+02  0.42923610444E+02 -0.53537178673E+02  0.70028076614E+02  0.00000000000E+00 0. -1.
</event>
<event>
 7    1  0.1068210E-005  0.1136650E+03  0.7561462E-02  0.1253930E+00
         -2   -1    0    0    0  501 -0.00000000000E+00  0.00000000000E+00  0.11194470169E+03  0.11194470169E+03  0.00000000000E+00 0.  1.
          2   -1    0    0  501    0  0.00000000000E+00 -0.00000000000E+00 -0.28731327920E+03  0.28731327920E+03  0.00000000000E+00 0. -1.
         23    2    1    2    0    0 -0.14560580465E+02 -0.99894306322E+02  0.22912408857E+02  0.16236516219E+03  0.12508630810E+03 0.  0.
          5    1    3    3  502    0 -0.44038597280E+02 -0.40669092132E+02 -0.39019848929E+02  0.71647708377E+02  0.41800000000E+01 0.  1.
         -5    1    3    3    0  502  0.29478016816E+02 -0.59225214190E+02  0.61932257787E+02  0.90717453810E+02  0.41800000000E+01 0.  1.
        -11    1    1    2    0    0  0.47793419259E+01  0.30669183509E+02 -0.14686506223E+03  0.15010925165E+03  0.00000000000E+00 0. -1.
         11    1    1    2    0    0  0.97812385387E+01  0.69225122813E+02 -0.51415924131E+02  0.86783567051E+02  0.00000000000E+00 0.  1.
</event>
<event>
 7    1  0.1068210E-005  0.2331728E+03  0.7561462E-02  0.1124426E+00
         -1   -1    0    0    0  501 -0.00000000000E+00  0.00000000000E+00  0.15765943890E+03  0.15765943890E+03  0.00000000000E+00 0.  1.
          1   -1    0    0  501    0  0.00000000000E+00 -0.00000000000E+00 -0.53068021196E+03  0.53068021196E+03  0.00000000000E+00 0. -1.
         23    2    1    2    0    0 -0.16063394468E+03  0.14580903902E+03 -0.42383836796E+01  0.25045851432E+03  0.12509182011E+03 0.  0.
          5    1    3    3  502    0 -0.58997152749E+02  0.11929760409E+03  0.35942892219E+02  0.13792007205E+03  0.41800000000E+01 0.  1.
         -5    1    3    3    0  502 -0.10163679193E+03  0.26511434926E+02 -0.40181275899E+02  0.11253844227E+03  0.41800000000E+01 0.  1.
        -11    1    1    2    0    0  0.10543625562E+02  0.79470207580E+01 -0.28163141530E+01  0.13500177937E+02  0.00000000000E+00 0.  1.
         11    1    1    2    0    0  0.15009031912E+03 -0.15375605977E+03 -0.36596607523E+03  0.42438095861E+03  0.00000000000E+00 0. -1.
</event>
<event>
 7    1  0.1068210E-005  0.1127494E+03  0.7561462E-02  0.1255562E+00
         -1   -1    0    0    0  501 -0.00000000000E+00  0.00000000000E+00  0.58635552889E+02  0.58635552889E+02  0.00000000000E+00 0.  1.
          1   -1    0    0  501    0  0.00000000000E+00 -0.00000000000E+00 -0.35502358248E+03  0.35502358248E+03  0.00000000000E+00 0. -1.
         23    2    1    2    0    0  0.52772143535E+02  0.82351425556E+02 -0.15865023652E+03  0.22115950612E+03  0.11905869636E+03 0.  0.
          5    1    3    3  502    0  0.43050807832E+02  0.26368832069E+01 -0.44835997313E-01  0.43333585339E+02  0.41800000000E+01 0. -1.
         -5    1    3    3    0  502  0.97213357032E+01  0.79714542349E+02 -0.15860540052E+03  0.17782592079E+03  0.41800000000E+01 0.  1.
        -11    1    1    2    0    0 -0.15070624549E+02 -0.49505967438E+02 -0.66196238427E+01  0.52170719337E+02  0.00000000000E+00 0.  1.
         11    1    1    2    0    0 -0.37701518986E+02 -0.32845458118E+02 -0.13111816923E+03  0.14032890991E+03  0.00000000000E+00 0. -1.
</event>
<event>
 7    1  0.1068210E-005  0.1077152E+03  0.7561462E-02  0.1264860E+00
         -1   -1    0    0    0  501 -0.00000000000E+00  0.00000000000E+00  0.16944475224E+04  0.16944475224E+04  0.00000000000E+00 0.  1.
          1   -1    0    0  501    0  0.00000000000E+00 -0.00000000000E+00 -0.15861830249E+02  0.15861830249E+02  0.00000000000E+00 0. -1.
         23    2    1    2    0    0 -0.92687808519E+02 -0.13777420314E+02  0.13128033346E+04  0.13220746303E+04  0.12509150876E+03 0.  0.
          5    1    3    3  502    0 -0.19995214876E+02  0.13047657793E+02  0.98173469585E+03  0.98203387693E+03  0.41800000000E+01 0.  1.
         -5    1    3    3    0  502 -0.72692593643E+02 -0.26825078107E+02  0.33106863876E+03  0.34004075337E+03  0.41800000000E+01 0.  1.
        -11    1    1    2    0    0  0.29199404555E+02 -0.25645255650E+02  0.22986352130E+03  0.23312555156E+03  0.00000000000E+00 0.  1.
         11    1    1    2    0    0  0.63488403964E+02  0.39422675964E+02  0.13591883622E+03  0.15510917077E+03  0.00000000000E+00 0. -1.
</event>
<event>
 7    1  0.1068210E-005  0.1367061E+03  0.7561462E-02  0.1217831E+00
          2   -1    0    0  501    0  0.00000000000E+00  0.00000000000E+00  0.32432862866E+03  0.32432862866E+03  0.00000000000E+00 0. -1.
         -2   -1    0    0    0  501 -0.00000000000E+00 -0.00000000000E+00 -0.91351037231E+02  0.91351037231E+02  0.00000000000E+00 0.  1.
         23    2    1    2    0    0  0.88357185646E+02  0.14855812871E+02  0.43067574370E+01  0.15392862857E+03  0.12509111520E+03 0.  0.
          5    1    3    3  502    0  0.98133052986E+02 -0.33579083233E+02  0.85768365901E+01  0.10415702302E+03  0.41800000000E+01 0. -1.
         -5    1    3    3    0  502 -0.97758673396E+01  0.48434896104E+02 -0.42700791531E+01  0.49771605548E+02  0.41800000000E+01 0. -1.
        -11    1    1    2    0    0  0.12242681439E+02  0.10662580795E+02  0.84568602591E+01  0.18305528222E+02  0.00000000000E+00 0.  1.
         11    1    1    2    0    0 -0.10059986709E+03 -0.25518393666E+02  0.22021397374E+03  0.24344550910E+03  0.00000000000E+00 0. -1.
</event>
<event>
 7    1  0.1068210E-005  0.8396685E+02  0.7561462E-02  0.1318157E+00
          2   -1    0    0  501    0  0.00000000000E+00  0.00000000000E+00  0.99798282057E+02  0.99798282057E+02  0.00000000000E+00 0. -1.
         -2   -1    0    0    0  501 -0.00000000000E+00 -0.00000000000E+00 -0.13714863633E+03  0.13714863633E+03  0.00000000000E+00 0.  1.
         23    2    1    2    0    0 -0.32818905839E+02 -0.29532091446E+02 -0.18729883952E+02  0.13396800335E+03  0.12508953739E+03 0.  0.
          5    1    3    3  502    0  0.27275570644E+02  0.69648887006E+01  0.35195230119E+02  0.45261938223E+02  0.41800000000E+01 0. -1.
         -5    1    3    3    0  502 -0.60094476483E+02 -0.36496980147E+02 -0.53925114071E+02  0.88706065132E+02  0.41800000000E+01 0. -1.
        -11    1    1    2    0    0 -0.99390718637E+01 -0.75194751705E+01 -0.40457064095E+02  0.42333222079E+02  0.00000000000E+00 0.  1.
         11    1    1    2    0    0  0.42757977703E+02  0.37051566617E+02  0.21836593775E+02  0.60645692952E+02  0.00000000000E+00 0. -1.
</event>
<event>
 7    1  0.1068210E-005  0.9338822E+02  0.7561462E-02  0.1294848E+00
         -2   -1    0    0    0  501 -0.00000000000E+00  0.00000000000E+00  0.47618992082E+02  0.47618992082E+02  0.00000000000E+00 0.  1.
          2   -1    0    0  501    0  0.00000000000E+00 -0.00000000000E+00 -0.31946733196E+03  0.31946733196E+03  0.00000000000E+00 0. -1.
         23    2    1    2    0    0 -0.58438503672E+02  0.13528966058E+01 -0.12743702538E+03  0.18789843932E+03  0.12509492004E+03 0.  0.
          5    1    3    3  502    0 -0.57129582809E+02  0.21642233994E+02 -0.25385783174E+01  0.61286966837E+02  0.41800000000E+01 0. -1.
         -5    1    3    3    0  502 -0.13089208626E+01 -0.20289337388E+02 -0.12489844706E+03  0.12661147248E+03  0.41800000000E+01 0. -1.
        -11    1    1    2    0    0 -0.23155574645E+02  0.68650873342E+00 -0.21245850570E+02  0.31433073312E+02  0.00000000000E+00 0.  1.
         11    1    1    2    0    0  0.81594078317E+02 -0.20394053392E+01 -0.12316546393E+03  0.14775481142E+03  0.00000000000E+00 0. -1.
</event>
<event>
 7    1  0.1068210E-005  0.1084565E+03  0.7561462E-02  0.1263455E+00
         -2   -1    0    0    0  501 -0.00000000000E+00  0.00000000000E+00  0.43077590409E+02  0.43077590409E+02  0.00000000000E+00 0.  1.
          2   -1    0    0  501    0  0.00000000000E+00 -0.00000000000E+00 -0.34919529869E+03  0.34919529869E+03  0.00000000000E+00 0. -1.
         23    2    1    2    0    0 -0.54788474475E+02  0.64594170088E+01 -0.17947821089E+03  0.22561561686E+03  0.12508588004E+03 0.  0.
          5    1    3    3  502    0 -0.21836251968E+02 -0.52896318270E+02 -0.38533377009E+02  0.69116828127E+02  0.41800000000E+01 0. -1.
         -5    1    3    3    0  502 -0.32952222508E+02  0.59355735279E+02 -0.14094483388E+03  0.15649878873E+03  0.41800000000E+01 0. -1.
        -11    1    1    2    0    0 -0.90539419365E+01 -0.23713803526E+02 -0.84522749987E+02  0.88251989256E+02  0.00000000000E+00 0.  1.
         11    1    1    2    0    0  0.63842416412E+02  0.17254386517E+02 -0.42116747407E+02  0.78405282982E+02  0.00000000000E+00 0. -1.
</event>
<event>
 7    1  0.1068210E-005  0.8717383E+02  0.7561462E-02  0.1309844E+00
          1   -1    0    0  501    0  0.00000000000E+00  0.00000000000E+00  0.45603083861E+03  0.45603083861E+03  0.00000000000E+00 0. -1.
         -1   -1    0    0    0  501 -0.00000000000E+00 -0.00000000000E+00 -0.36784811402E+02  0.36784811402E+02  0.00000000000E+00 0.  1.
         23    2    1    2    0    0 -0.47518789770E+02  0.25452122802E+02  0.14261163084E+03  0.19721056189E+03  0.12509229607E+03 0.  0.
          5    1    3    3  502    0 -0.64217635146E+02  0.23668804542E+02  0.17309863742E+02  0.70719309633E+02  0.41800000000E+01 0. -1.
         -5    1    3    3    0  502  0.16698845376E+02  0.17833182599E+01  0.12530176710E+03  0.12649125226E+03  0.41800000000E+01 0. -1.
        -11    1    1    2    0    0  0.12808607559E+02 -0.46262390380E+02  0.68949015797E+02  0.84013308295E+02  0.00000000000E+00 0.  1.
         11    1    1    2    0    0  0.34710182211E+02  0.20810267578E+02  0.20768538057E+03  0.21159177982E+03  0.00000000000E+00 0. -1.
</event>
<event>
 7    1  0.1068210E-005  0.1112047E+03  0.7561462E-02  0.1258355E+00
         -1   -1    0    0    0  501 -0.00000000000E+00  0.00000000000E+00  0.32883324644E+02  0.32883324644E+02  0.00000000000E+00 0.  1.
          1   -1    0    0  501    0  0.00000000000E+00 -0.00000000000E+00 -0.45034969464E+03  0.45034969464E+03  0.00000000000E+00 0. -1.
         23    2    1    2    0    0  0.34781209389E+02  0.36227839827E+02 -0.17552109786E+03  0.21950784070E+03  0.12187636125E+03 0.  0.
          5    1    3    3  502    0  0.30610125402E+02 -0.40462877627E+02 -0.97246995949E+02  0.10976645601E+03  0.41800000000E+01 0. -1.
         -5    1    3    3    0  502  0.41710839879E+01  0.76690717454E+02 -0.78274101913E+02  0.10974138470E+03  0.41800000000E+01 0.  1.
        -11    1    1    2    0    0 -0.58117133527E+02 -0.40529666324E+02 -0.22097955381E+03  0.23206080726E+03  0.00000000000E+00 0. -1.
         11    1    1    2    0    0  0.23335924138E+02  0.43018264970E+01 -0.20965718328E+02  0.31664371328E+02  0.00000000000E+00 0.  1.
</event>
<event>
 7    1  0.1068210E-005  0.1038423E+03  0.7561462E-02  0.1272418E+00
          1   -1    0    0  501    0  0.00000000000E+00  0.00000000000E+00  0.22794971899E+03  0.22794971899E+03  0.00000000000E+00 0. -1.
         -1   -1    0    0    0  501 -0.00000000000E+00 -0.00000000000E+00 -0.17621365980E+03  0.17621365980E+03  0.00000000000E+00 0.  1.
         23    2    1    2    0    0 -0.83906497646E+02 -0.10276360166E+02 -0.11959360808E+03  0.19260501551E+03  0.12509259364E+03 0.  0.
          5    1    3    3  502    0 -0.87491855906E+01 -0.21098290755E+01  0.26368269377E+02  0.28173705066E+02  0.41800000000E+01 0. -1.
         -5    1    3    3    0  502 -0.75157312055E+02 -0.81665310908E+01 -0.14596187746E+03  0.16443131045E+03  0.41800000000E+01 0. -1.
        -11    1    1    2    0    0  0.87569079645E+02  0.37005555961E+02  0.11582204407E+03  0.14984158560E+03  0.00000000000E+00 0.  1.
         11    1    1    2    0    0 -0.36625819993E+01 -0.26729195795E+02  0.55507623202E+02  0.61716777689E+02  0.00000000000E+00 0. -1.
</event>
<event>
 7    1  0.1068210E-005  0.1088768E+03  0.7561462E-02  0.1262664E+00
         -4   -1    0    0    0  501 -0.00000000000E+00  0.00000000000E+00  0.42552778795E+03  0.42552778795E+03  0.00000000000E+00 0.  1.
          4   -1    0    0  501    0  0.00000000000E+00 -0.00000000000E+00 -0.37632105921E+02  0.37632105921E+02  0.00000000000E+00 0. -1.
         23    2    1    2    0    0 -0.55389917431E+02  0.41368476382E+02  0.21715947616E+03  0.25997210495E+03  0.12509142047E+03 0.  0.
          5    1    3    3  502    0 -0.72388080888E+02  0.11736752102E+02  0.21299586232E+03  0.22530533808E+03  0.41800000000E+01 0.  1.
         -5    1    3    3    0  502  0.16998163457E+02  0.29631724280E+02  0.41636138436E+01  0.34666766866E+02  0.41800000000E+01 0.  1.
        -11    1    1    2    0    0  0.66833421662E+02  0.13447444223E+00  0.11070840866E+03  0.12931773306E+03  0.00000000000E+00 0.  1.
         11    1    1    2    0    0 -0.11443504231E+02 -0.41502950824E+02  0.60027797205E+02  0.73870055865E+02  0.00000000000E+00 0. -1.
</event>
<event>
 7    1  0.1068210E-005  0.1857405E+03  0.7561462E-02  0.1162360E+00
         -1   -1    0    0    0  501 -0.00000000000E+00  0.00000000000E+00  0.55833976316E+02  0.55833976316E+02  0.00000000000E+00 0.  1.
          1   -1    0    0  501    0  0.00000000000E+00 -0.00000000000E+00 -0.87946711031E+03  0.87946711031E+03  0.00000000000E+00 0. -1.
         23    2    1    2    0    0  0.15131669148E+03  0.74617175671E+02 -0.22999552039E+03  0.31146338122E+03  0.12508810662E+03 0.  0.
          5    1    3    3  502    0  0.46846689805E+01 -0.22590420158E+02 -0.69286166832E+02  0.73145871522E+02  0.41800000000E+01 0. -1.
         -5    1    3    3    0  502  0.14663202250E+03  0.97207595830E+02 -0.16070935356E+03  0.23831750970E+03  0.41800000000E+01 0. -1.
        -11    1    1    2    0    0 -0.27466815709E+02  0.22294949286E-03 -0.25120745041E+02  0.37222006886E+02  0.00000000000E+00 0.  1.
         11    1    1    2    0    0 -0.12384987577E+03 -0.74617398621E+02 -0.56851686856E+03  0.58661569852E+03  0.00000000000E+00 0. -1.
</event>
<event>
 7    1  0.1068210E-005  0.1221137E+03  0.7561462E-02  0.1239650E+00
         -3   -1    0    0    0  501 -0.00000000000E+00  0.00000000000E+00  0.56460910563E+02  0.56460910563E+02  0.00000000000E+00 0.  1.
          3   -1    0    0  501    0  0.00000000000E+00 -0.00000000000E+00 -0.30755972109E+03  0.30755972109E+03  0.00000000000E+00 0. -1.
         23    2    1    2    0    0  0.96420298524E+01  0.70460182842E+02 -0.10764984910E+03  0.17970578964E+03  0.12509226480E+03 0.  0.
          5    1    3    3  502    0 -0.55400376416E+01 -0.34920600164E+02 -0.15486423472E+02  0.38825790975E+02  0.41800000000E+01 0. -1.
         -5    1    3    3    0  502  0.15182067494E+02  0.10538078301E+03 -0.92163425625E+02  0.14087999866E+03  0.41800000000E+01 0. -1.
        -11    1    1    2    0    0  0.27967043419E+02 -0.54420865191E+02 -0.40057782661E+02  0.73132838297E+02  0.00000000000E+00 0.  1.
         11    1    1    2    0    0 -0.37609073272E+02 -0.16039317651E+02 -0.10339117877E+03  0.11118200372E+03  0.00000000000E+00 0. -1.
</event>
<event>
 7    1  0.1068210E-005  0.1389132E+03  0.7561462E-02  0.1214799E+00
          2   -1    0    0  501    0  0.00000000000E+00  0.00000000000E+00  0.29228693780E+03  0.29228693780E+03  0.00000000000E+00 0. -1.
         -2   -1    0    0    0  501 -0.00000000000E+00 -0.00000000000E+00 -0.93096937017E+02  0.93096937017E+02  0.00000000000E+00 0.  1.
         23    2    1    2    0    0 -0.25399527105E+02 -0.11737786867E+03  0.14153930834E+03  0.22384133604E+03  0.12509543511E+03 0.  0.
          5    1    3    3  502    0  0.18052612205E+02 -0.45351589165E+02  0.12988436816E+03  0.13881673148E+03  0.41800000000E+01 0.  1.
         -5    1    3    3    0  502 -0.43452139310E+02 -0.72026279506E+02  0.11654940180E+02  0.85024604561E+02  0.41800000000E+01 0.  1.
        -11    1    1    2    0    0 -0.14294629583E+02  0.10044704878E+03  0.60786090611E+02  0.11827465855E+03  0.00000000000E+00 0. -1.
         11    1    1    2    0    0  0.39694156688E+02  0.16930819892E+02 -0.31353981667E+01  0.43267880224E+02  0.00000000000E+00 0.  1.
</event>
<event>
 7    1  0.1068210E-005  0.1105970E+03  0.7561462E-02  0.1259468E+00
         -3   -1    0    0    0  501 -0.00000000000E+00  0.00000000000E+00  0.17796900472E+04  0.17796900472E+04  0.00000000000E+00 0.  1.
          3   -1    0    0  501    0  0.00000000000E+00 -0.00000000000E+00 -0.13482738213E+02  0.13482738213E+02  0.00000000000E+00 0. -1.
         23    2    1    2    0    0  0.85255350909E+02 -0.23722531291E+02  0.13212665294E+04  0.13301206042E+04  0.12507736333E+03 0.  0.
          5    1    3    3  502    0  0.85536961347E+02 -0.23264847400E+02  0.13226965519E+04  0.13256701949E+04  0.41800000000E+01 0. -1.
         -5    1    3    3    0  502 -0.28161043788E+00 -0.45768389098E+00 -0.14300225003E+01  0.44504093446E+01  0.41800000000E+01 0. -1.
        -11    1    1    2    0    0 -0.19680570229E+02  0.52915878695E+02  0.19696857465E+03  0.20490005969E+03  0.00000000000E+00 0.  1.
         11    1    1    2    0    0 -0.65574780680E+02 -0.29193347404E+02  0.24797220500E+03  0.25815212152E+03  0.00000000000E+00 0. -1.
</event>
<event>
 7    1  0.1068210E-005  0.1287390E+03  0.7561462E-02  0.1229339E+00
         -1   -1    0    0    0  501 -0.00000000000E+00  0.00000000000E+00  0.63974198590E+03  0.63974198590E+03  0.00000000000E+00 0.  1.
          1   -1    0    0  501    0  0.00000000000E+00 -0.00000000000E+00 -0.52683141511E+02  0.52683141511E+02  0.00000000000E+00 0. -1.
         23    2    1    2    0    0 -0.69597585648E+02 -0.91207351512E+02  0.49789128731E+03  0.52272164443E+03  0.11036112847E+03 0.  0.
          5    1    3    3  502    0  0.59770608744E+01 -0.56988621353E+02  0.92368717025E+02  0.10877904442E+03  0.41800000000E+01 0. -1.
         -5    1    3    3    0  502 -0.75574646522E+02 -0.34218730159E+02  0.40552257029E+03  0.41394260001E+03  0.41800000000E+01 0.  1.
        -11    1    1    2    0    0  0.55188841660E+02  0.54669718850E+02  0.62250199058E+01  0.77931619229E+02  0.00000000000E+00 0. -1.
         11    1    1    2    0    0  0.14408743988E+02  0.36537632662E+02  0.82942537170E+02  0.91771863749E+02  0.00000000000E+00 0.  1.
</event>
<event>
 7    1  0.1068210E-005  0.1235620E+03  0.7561462E-02  0.1237334E+00
         -1   -1    0    0    0  501 -0.00000000000E+00  0.00000000000E+00  0.25003457219E+03  0.25003457219E+03  0.00000000000E+00 0.  1.
          1   -1    0    0  501    0  0.00000000000E+00 -0.00000000000E+00 -0.62545356472E+02  0.62545356472E+02  0.00000000000E+00 0. -1.
         23    2    1    2    0    0  0.38892400411E+02 -0.46200932687E+02  0.11938206452E+03  0.18315523211E+03  0.12508643703E+03 0.  0.
          5    1    3    3  502    0 -0.12954867821E+02  0.37683986301E+02  0.38131346022E+02  0.55311692916E+02  0.41800000000E+01 0.  1.
         -5    1    3    3    0  502  0.51847268232E+02 -0.83884918988E+02  0.81250718503E+02  0.12784353920E+03  0.41800000000E+01 0.  1.
        -11    1    1    2    0    0 -0.59878049666E+01 -0.27233674098E+02  0.80763813597E+01  0.29030238529E+02  0.00000000000E+00 0. -1.
         11    1    1    2    0    0 -0.32904595444E+02  0.73434606785E+02  0.60030769837E+02  0.10039445803E+03  0.00000000000E+00 0.  1.
</event>
<event>
 7    1  0.1068210E-005  0.8454308E+02  0.7561462E-02  0.1316632E+00
          1   -1    0    0  501    0  0.00000000000E+00  0.00000000000E+00  0.10809039873E+03  0.10809039873E+03  0.00000000000E+00 0. -1.
         -1   -1    0    0    0  501 -0.00000000000E+00 -0.00000000000E+00 -0.12381268652E+03  0.12381268652E+03  0.00000000000E+00 0.  1.
         23    2    1    2    0    0  0.27497350502E+02 -0.28522636131E+02 -0.19943666483E+02  0.13272456029E+03  0.12509362100E+03 0.  0.
          5    1    3    3  502    0 -0.12916638517E+02  0.44138955626E+02 -0.17667800215E+02  0.49444013983E+02  0.41800000000E+01 0.  1.
         -5    1    3    3    0  502  0.40413989019E+02 -0.72661591757E+02 -0.22758662679E+01  0.83280546302E+02  0.41800000000E+01 0.  1.
        -11    1    1    2    0    0 -0.71150944162E+01  0.85073030300E+01 -0.42770504646E+02  0.44185006972E+02  0.00000000000E+00 0.  1.
         11    1    1    2    0    0 -0.20382256086E+02  0.20015333101E+02  0.46991883330E+02  0.54993517993E+02  0.00000000000E+00 0. -1.
</event>
<event>
 7    1  0.1068210E-005  0.6337490E+02  0.7561462E-02  0.1384191E+00
         -2   -1    0    0    0  501 -0.00000000000E+00  0.00000000000E+00  0.11814170429E+03  0.11814170429E+03  0.00000000000E+00 0.  1.
          2   -1    0    0  501    0  0.00000000000E+00 -0.00000000000E+00 -0.13957375689E+03  0.13957375689E+03  0.00000000000E+00 0. -1.
         23    2    1    2    0    0  0.48994424818E+02  0.31423533649E+01  0.37688995611E+02  0.13956580776E+03  0.12509127171E+03 0.  0.
          5    1    3    3  502    0  0.21984598517E+02 -0.22493188149E+01  0.83210496096E+02  0.86196525845E+02  0.41800000000E+01 0. -1.
         -5    1    3    3    0  502  0.27009826301E+02  0.53916721798E+01 -0.45521500485E+02  0.53369281915E+02  0.41800000000E+01 0. -1.
        -11    1    1    2    0    0 -0.61300812126E+02 -0.10305762782E+02 -0.51978149268E+01  0.62378005689E+02  0.00000000000E+00 0.  1.
         11    1    1    2    0    0  0.12306387307E+02  0.71634094171E+01 -0.53923233282E+02  0.55771647730E+02  0.00000000000E+00 0. -1.
</event>
<event>
 6    1  0.1068210E-005  0.1376138E+03  0.7561462E-02  0.1216576E+00
          1   -1    0    0  501    0  0.00000000000E+00  0.00000000000E+00  0.48698747261E+03  0.48698747261E+03  0.00000000000E+00 0. -1.
         -1   -1    0    0    0  501 -0.00000000000E+00 -0.00000000000E+00 -0.54471884293E+02  0.54471884293E+02  0.00000000000E+00 0.  1.
          5    1    1    2  502    0 -0.10476435913E+03  0.30489788017E+02  0.11328423222E+03  0.15734035651E+03  0.41800000000E+01 0. -1.
         -5    1    1    2    0  502  0.58683165860E+02  0.99342931217E+01  0.15289499242E+02  0.61592575220E+02  0.41800000000E+01 0.  1.
        -11    1    1    2    0    0  0.64921627583E+02 -0.36159542335E+01  0.15844584258E+03  0.17126873002E+03  0.00000000000E+00 0. -1.
         11    1    1    2    0    0 -0.18840434310E+02 -0.36808126905E+02  0.14549601428E+03  0.15125769515E+03  0.00000000000E+00 0.  1.
</event>
<event>
 7    1  0.1068210E-005  0.1067433E+03  0.7561462E-02  0.1266722E+00
         -3   -1    0    0    0  501 -0.00000000000E+00  0.00000000000E+00  0.15063818587E+03  0.15063818587E+03  0.00000000000E+00 0.  1.
          3   -1    0    0  501    0  0.00000000000E+00 -0.00000000000E+00 -0.12640504207E+03  0.12640504207E+03  0.00000000000E+00 0. -1.
         23    2    1    2    0    0  0.13930684071E+02  0.63866447585E+02  0.72701188344E+02  0.15876353471E+03  0.12508960821E+03 0.  0.
          5    1    3    3  502    0  0.37112439326E+02 -0.27748102578E+02  0.22771512765E+02  0.51800622999E+02  0.41800000000E+01 0. -1.
         -5    1    3    3    0  502 -0.23181755255E+02  0.91614550163E+02  0.49929675579E+02  0.10696291171E+03  0.41800000000E+01 0. -1.
        -11    1    1    2    0    0 -0.23514632451E+02 -0.52307369936E+02 -0.70959037630E+02  0.91236965702E+02  0.00000000000E+00 0. -1.
         11    1    1    2    0    0  0.95839483800E+01 -0.11559077648E+02  0.22490993085E+02  0.27042727536E+02  0.00000000000E+00 0.  1.
</event>
<event>
 7    1  0.1068210E-005  0.1688125E+03  0.7561462E-02  0.1179092E+00
          2   -1    0    0  501    0  0.00000000000E+00  0.00000000000E+00  0.14230178303E+03  0.14230178303E+03  0.00000000000E+00 0. -1.
         -2   -1    0    0    0  501 -0.00000000000E+00 -0.00000000000E+00 -0.35947700569E+03  0.35947700569E+03  0.00000000000E+00 0.  1.
         23    2    1    2    0    0  0.13564755845E+03  0.58943497028E+02 -0.25870794970E+03  0.32318708560E+03  0.12508194556E+03 0.  0.
          5    1    3    3  502    0  0.14720445022E+03  0.77291378181E+02 -0.19796884535E+03  0.25855800787E+03  0.41800000000E+01 0. -1.
         -5    1    3    3    0  502 -0.11556891774E+02 -0.18347881153E+02 -0.60739104351E+02  0.64629077725E+02  0.41800000000E+01 0. -1.
        -11    1    1    2    0    0 -0.24333473456E+02 -0.19320670682E+02 -0.27717862879E+02  0.41637557188E+02  0.00000000000E+00 0.  1.
         11    1    1    2    0    0 -0.11131408499E+03 -0.39622826346E+02  0.69250589913E+02  0.13695414593E+03  0.00000000000E+00 0. -1.
</event>
<event>
 6    1  0.1068210E-005  0.8701109E+02  0.7561462E-02  0.1310256E+00
          1   -1    0    0  501    0  0.00000000000E+00  0.00000000000E+00  0.35316656440E+03  0.35316656440E+03  0.00000000000E+00 0. -1.
         -1   -1    0    0    0  501 -0.00000000000E+00 -0.00000000000E+00 -0.55453238817E+02  0.55453238817E+02  0.00000000000E+00 0.  1.
          5    1    1    2  502    0 -0.38463108825E+02 -0.22883958064E+02  0.92314459348E+02  0.10267676505E+03  0.41800000000E+01 0. -1.
         -5    1    1    2    0  502  0.33334075050E+02 -0.12600844352E+02 -0.33257763261E+02  0.48923338551E+02  0.41800000000E+01 0.  1.
        -11    1    1    2    0    0 -0.20679165490E+02  0.56336452325E+02  0.12569624913E+03  0.13928736767E+03  0.00000000000E+00 0. -1.
         11    1    1    2    0    0  0.25808199265E+02 -0.20851649909E+02  0.11296038036E+03  0.11773233195E+03  0.00000000000E+00 0.  1.
</event>
<event>
 7    1  0.1068210E-005  0.1656954E+03  0.7561462E-02  0.1182413E+00
          2   -1    0    0  501    0  0.00000000000E+00  0.00000000000E+00  0.28229126596E+02  0.28229126596E+02  0.00000000000E+00 0. -1.
         -2   -1    0    0    0  501 -0.00000000000E+00 -0.00000000000E+00 -0.13442420863E+04  0.13442420863E+04  0.00000000000E+00 0.  1.
         23    2    1    2    0    0  0.10859135976E+03  0.11532589590E+03 -0.79624917795E+03  0.82142841785E+03  0.12505897244E+03 0.  0.
          5    1    3    3  502    0  0.10750048296E+03  0.75508553165E+02 -0.74438631376E+03  0.75590101995E+03  0.41800000000E+01 0. -1.
         -5    1    3    3    0  502  0.10908768006E+01  0.39817342731E+02 -0.51862864183E+02  0.65527397901E+02  0.41800000000E+01 0. -1.
        -11    1    1    2    0    0 -0.68608821530E+02 -0.57040843130E+02 -0.14956152120E+03  0.17415360117E+03  0.00000000000E+00 0. -1.
         11    1    1    2    0    0 -0.39982538235E+02 -0.58285052766E+02 -0.37020226056E+03  0.37688919388E+03  0.00000000000E+00 0.  1.
</event>
<event>
 7    1  0.1068210E-005  0.9590433E+02  0.7561462E-02  0.1289152E+00
          2   -1    0    0  501    0  0.00000000000E+00  0.00000000000E+00  0.44770106195E+03  0.44770106195E+03  0.00000000000E+00 0. -1.
         -2   -1    0    0    0  501 -0.00000000000E+00 -0.00000000000E+00 -0.35916826651E+02  0.35916826651E+02  0.00000000000E+00 0.  1.
         23    2    1    2    0    0 -0.47829316835E+02  0.20824482061E+02  0.15543932299E+03  0.20633934715E+03  0.12527266440E+03 0.  0.
          5    1    3    3  502    0 -0.53206062544E+02  0.57387248528E+02  0.46269795376E+02  0.91008503719E+02  0.41800000000E+01 0.  1.
         -5    1    3    3    0  502  0.53767457092E+01 -0.36562766467E+02  0.10916952762E+03  0.11533084343E+03  0.41800000000E+01 0.  1.
        -11    1    1    2    0    0  0.43721837915E+02  0.10246958577E+02  0.23525276991E+03  0.23950044890E+03  0.00000000000E+00 0. -1.
         11    1    1    2    0    0  0.41074789199E+01 -0.31071440639E+02  0.21092142395E+02  0.37778092557E+02  0.00000000000E+00 0.  1.
</event>
<event>
 7    1  0.1068210E-005  0.1214043E+03  0.7561462E-02  0.1240798E+00
         -1   -1    0    0    0  501 -0.00000000000E+00  0.00000000000E+00  0.31861168624E+03  0.31861168624E+03  0.00000000000E+00 0.  1.
          1   -1    0    0  501    0  0.00000000000E+00 -0.00000000000E+00 -0.55347709630E+02  0.55347709630E+02  0.00000000000E+00 0. -1.
         23    2    1    2    0    0  0.37189597406E+02 -0.53348517769E+02  0.20455676242E+03  0.24843437734E+03  0.12508813009E+03 0.  0.
          5    1    3    3  502    0  0.28172898086E+02 -0.93232616881E+02  0.12159873521E+03  0.15585171748E+03  0.41800000000E+01 0.  1.
         -5    1    3    3    0  502  0.90166993201E+01  0.39884099112E+02  0.82958027204E+02  0.92582659857E+02  0.41800000000E+01 0.  1.
        -11    1    1    2    0    0  0.20809161858E+02  0.39413591944E+02  0.46934987958E+02  0.64725153857E+02  0.00000000000E+00 0.  1.
         11    1    1    2    0    0 -0.57998759264E+02  0.13934925825E+02  0.11772226236E+02  0.60799864674E+02  0.00000000000E+00 0. -1.
</event>
<event>
 7    1  0.1068210E-005  0.1310372E+03  0.7561462E-02  0.1225925E+00
         -2   -1    0    0    0  501 -0.00000000000E+00  0.00000000000E+00  0.59700203501E+03  0.59700203501E+03  0.00000000000E+00 0.  1.
          2   -1    0    0  501    0  0.00000000000E+00 -0.00000000000E+00 -0.46585229273E+02  0.46585229273E+02  0.00000000000E+00 0. -1.
         23    2    1    2    0    0  0.17338566165E+01  0.11224386648E+03  0.40536997741E+03  0.43883272470E+03  0.12509056665E+03 0.  0.
          5    1    3    3  502    0  0.30171939943E+02  0.11490866102E+02  0.17297316871E+02  0.36865370399E+02  0.41800000000E+01 0. -1.
         -5    1    3    3    0  502 -0.28438083327E+02  0.10075300038E+03  0.38807266054E+03  0.40196735430E+03  0.41800000000E+01 0. -1.
        -11    1    1    2    0    0 -0.12171014538E+02 -0.15475275884E+00  0.66212019467E+02  0.67321534929E+02  0.00000000000E+00 0.  1.
         11    1    1    2    0    0  0.10437157921E+02 -0.11208911372E+03  0.78834808864E+02  0.13743300466E+03  0.00000000000E+00 0. -1.
</event>
<event>
 7    1  0.1068210E-005  0.1890955E+03  0.7561462E-02  0.1159280E+00
         -2   -1    0    0    0  501 -0.00000000000E+00  0.00000000000E+00  0.65994849447E+02  0.65994849447E+02  0.00000000000E+00 0.  1.
          2   -1    0    0  501    0  0.00000000000E+00 -0.00000000000E+00 -0.56750339502E+03  0.56750339502E+03  0.00000000000E+00 0. -1.
         23    2    1    2    0    0  0.12184629889E+03  0.88285016897E+02 -0.19321593717E+03  0.27499614590E+03  0.12509882940E+03 0.  0.
          5    1    3    3  502    0  0.39641971442E+02  0.10407325581E+03 -0.10128154304E+03  0.15059266860E+03  0.41800000000E+01 0. -1.
         -5    1    3    3    0  502  0.82204327451E+02 -0.15788238913E+02 -0.91934394135E+02  0.12440347730E+03  0.41800000000E+01 0. -1.
        -11    1    1    2    0    0 -0.38823301319E+02 -0.91970883894E+02 -0.16451283885E+03  0.19243275801E+03  0.00000000000E+00 0. -1.
         11    1    1    2    0    0 -0.83022997574E+02  0.36858669974E+01 -0.14377976956E+03  0.16606934056E+03  0.00000000000E+00 0.  1.
</event>
<event>
 7    1  0.1068210E-005  0.1067797E+03  0.7561462E-02  0.1266652E+00
         -1   -1    0    0    0  501 -0.00000000000E+00  0.00000000000E+00  0.41449046651E+02  0.41449046651E+02  0.00000000000E+00 0.  1.
          1   -1    0    0  501    0  0.00000000000E+00 -0.00000000000E+00 -0.51878358197E+03  0.51878358197E+03  0.00000000000E+00 0. -1.
         23    2    1    2    0    0  0.26294243547E+01  0.84375626483E+02 -0.30700671149E+03  0.34209096263E+03  0.12508775157E+03 0.  0.
          5    1    3    3  502    0  0.37892626086E+01  0.33046729928E+02 -0.28974445233E+01  0.33649850740E+02  0.41800000000E+01 0.  1.
         -5    1    3    3    0  502 -0.11598382539E+01  0.51328896555E+02 -0.30410926697E+03  0.30844111189E+03  0.41800000000E+01 0.  1.
        -11    1    1    2    0    0 -0.16471357171E+02 -0.10356239261E+03 -0.10387295727E+03  0.14760103666E+03  0.00000000000E+00 0.  1.
         11    1    1    2    0    0  0.13841932816E+02  0.19186766125E+02 -0.66454866552E+02  0.70540629334E+02  0.00000000000E+00 0. -1.
</event>
<event>
 7    1  0.1395256E-005  0.1889658E+03  0.7561462E-02  0.1159397E+00
         -2   -1    0    0    0  501 -0.00000000000E+00  0.00000000000E+00  0.38180822737E+02  0.38180822737E+02  0.00000000000E+00 0.  1.
          2   -1    0    0  501    0  0.00000000000E+00 -0.00000000000E+00 -0.13101806256E+04  0.13101806256E+04  0.00000000000E+00 0. -1.
         23    2    1    2    0    0 -0.14574496456E+03 -0.10595765556E+03 -0.43157049895E+03  0.48411680339E+03  0.12508942520E+03 0.  0.
          5    1    3    3  502    0 -0.25588157244E+02  0.58089309014E+01 -0.49807802818E+01  0.27032906643E+02  0.41800000000E+01 0.  1.
         -5    1    3    3    0  502 -0.12015680731E+03 -0.11176658647E+03 -0.42658971867E+03  0.45708389675E+03  0.41800000000E+01 0.  1.
        -11    1    1    2    0    0  0.10378116915E+03  0.10123181881E+03 -0.75676556663E+03  0.77052743951E+03  0.00000000000E+00 0. -1.
         11    1    1    2    0    0  0.41963795403E+02  0.47258367558E+01 -0.83663737314E+02  0.93717205458E+02  0.00000000000E+00 0.  1.
</event>
<event>
 7    1  0.1068210E-005  0.1134956E+03  0.7561462E-02  0.1254230E+00
          1   -1    0    0  501    0  0.00000000000E+00  0.00000000000E+00  0.57757404053E+03  0.57757404053E+03  0.00000000000E+00 0. -1.
         -1   -1    0    0    0  501 -0.00000000000E+00 -0.00000000000E+00 -0.44303861092E+02  0.44303861092E+02  0.00000000000E+00 0.  1.
         23    2    1    2    0    0  0.53675049737E+01  0.68577083187E+02  0.10158732566E+03  0.17521178356E+03  0.12509019912E+03 0.  0.
          5    1    3    3  502    0 -0.59085830063E+02  0.22705617820E+02  0.48422059417E+02  0.79805066462E+02  0.41800000000E+01 0.  1.
         -5    1    3    3    0  502  0.64453335037E+02  0.45871465367E+02  0.53165266239E+02  0.95406717094E+02  0.41800000000E+01 0.  1.
        -11    1    1    2    0    0 -0.92634635452E+01  0.50863880114E+01  0.20732624287E+01  0.10769471526E+02  0.00000000000E+00 0.  1.
         11    1    1    2    0    0  0.38959585714E+01 -0.73663471199E+02  0.42960959135E+03  0.43589664654E+03  0.00000000000E+00 0. -1.
</event>
<event>
 7    1  0.1068210E-005  0.1665682E+03  0.7561462E-02  0.1181475E+00
         -1   -1    0    0    0  501 -0.00000000000E+00  0.00000000000E+00  0.59672613826E+03  0.59672613826E+03  0.00000000000E+00 0.  1.
          1   -1    0    0  501    0  0.00000000000E+00 -0.00000000000E+00 -0.62834870107E+02  0.62834870107E+02  0.00000000000E+00 0. -1.
         23    2    1    2    0    0  0.19689985544E+02 -0.15666393478E+03  0.32245035411E+03  0.38019999426E+03  0.12508605350E+03 0.  0.
          5    1    3    3  502    0  0.29186176089E+02 -0.15934788308E+03  0.32962302802E+03  0.36730422502E+03  0.41800000000E+01 0. -1.
         -5    1    3    3    0  502 -0.94961905444E+01  0.26839483010E+01 -0.71726739100E+01  0.12895769243E+02  0.41800000000E+01 0. -1.
        -11    1    1    2    0    0 -0.19184997418E+02  0.47866084101E+02  0.14002062488E+03  0.14921461565E+03  0.00000000000E+00 0.  1.
         11    1    1    2    0    0 -0.50498812587E+00  0.10879785068E+03  0.71420289167E+02  0.13014639845E+03  0.00000000000E+00 0. -1.
</event>
<event>
 7    1  0.1068210E-005  0.1013582E+03  0.7561462E-02  0.1277465E+00
         -1   -1    0    0    0  501 -0.00000000000E+00  0.00000000000E+00  0.25340320071E+03  0.25340320071E+03  0.00000000000E+00 0.  1.
          1   -1    0    0  501    0  0.00000000000E+00 -0.00000000000E+00 -0.86364557292E+02  0.86364557292E+02  0.00000000000E+00 0. -1.
         23    2    1    2    0    0  0.23646427585E+02 -0.13194087190E+02  0.20043423439E+03  0.23781246562E+03  0.12509056325E+03 0.  0.
          5    1    3    3  502    0  0.52120253157E+02 -0.53661849989E+02  0.92760337484E+02  0.11923953851E+03  0.41800000000E+01 0. -1.
         -5    1    3    3    0  502 -0.28473825572E+02  0.40467762799E+02  0.10767389691E+03  0.11857292711E+03  0.41800000000E+01 0. -1.
        -11    1    1    2    0    0  0.10545699247E+02 -0.24843177331E+02  0.15562259198E+02  0.31154119211E+02  0.00000000000E+00 0.  1.
         11    1    1    2    0    0 -0.34192126832E+02  0.38037264521E+02 -0.48957850169E+02  0.70801173173E+02  0.00000000000E+00 0. -1.
</event>
<event>
 7    1  0.1068210E-005  0.8524827E+02  0.7561462E-02  0.1314785E+00
          3   -1    0    0  501    0  0.00000000000E+00  0.00000000000E+00  0.71467670080E+02  0.71467670080E+02  0.00000000000E+00 0. -1.
         -3   -1    0    0    0  501 -0.00000000000E+00 -0.00000000000E+00 -0.17861485003E+03  0.17861485003E+03  0.00000000000E+00 0.  1.
         23    2    1    2    0    0 -0.26877176333E+02  0.67291684440E+01 -0.83775930701E+02  0.15307948545E+03  0.12508900025E+03 0.  0.
          5    1    3    3  502    0 -0.52538064328E+02 -0.14062606934E+02  0.82948761303E+01  0.55175016875E+02  0.41800000000E+01 0.  1.
         -5    1    3    3    0  502  0.25660887995E+02  0.20791775378E+02 -0.92070806831E+02  0.97904468573E+02  0.41800000000E+01 0.  1.
        -11    1    1    2    0    0  0.18152470740E+02 -0.42301347473E+02 -0.35811673726E+02  0.58321455461E+02  0.00000000000E+00 0.  1.
         11    1    1    2    0    0  0.87247055933E+01  0.35572179029E+02  0.12440424474E+02  0.38681579204E+02  0.00000000000E+00 0. -1.
</event>
<event>
 7    1  0.1068210E-005  0.8398752E+02  0.7561462E-02  0.1318102E+00
         -1   -1    0    0    0  501 -0.00000000000E+00  0.00000000000E+00  0.79187229986E+02  0.79187229986E+02  0.00000000000E+00 0.  1.
          1   -1    0    0  501    0  0.00000000000E+00 -0.00000000000E+00 -0.18230063135E+03  0.18230063135E+03  0.00000000000E+00 0. -1.
         23    2    1    2    0    0  0.30843283556E+01  0.17461936104E+02 -0.61580519894E+01  0.12648722902E+03  0.12508663080E+03 0.  0.
          5    1    3    3  502    0  0.44299854615E+02  0.51508967892E+02  0.13466359753E+02  0.69386354114E+02  0.41800000000E+01 0. -1.
         -5    1    3    3    0  502 -0.41215526259E+02 -0.34047031788E+02 -0.19624411742E+02  0.57100874903E+02  0.41800000000E+01 0. -1.
        -11    1    1    2    0    0  0.19422548961E+02 -0.12912780418E+02 -0.10730750096E+03  0.10981290939E+03  0.00000000000E+00 0. -1.
         11    1    1    2    0    0 -0.22506877317E+02 -0.45491556863E+01  0.10352151584E+02  0.25187722931E+02  0.00000000000E+00 0.  1.
</event>
<event>
 7    1  0.1068210E-005  0.1043605E+03  0.7561462E-02  0.1271385E+00
         -2   -1    0    0    0  501 -0.00000000000E+00  0.00000000000E+00  0.40702502618E+02  0.40702502618E+02  0.00000000000E+00 0.  1.
          2   -1    0    0  501    0  0.00000000000E+00 -0.00000000000E+00 -0.44592436838E+03  0.44592436838E+03  0.00000000000E+00 0. -1.
         23    2    1    2    0    0  0.50943428154E+01  0.63786222491E+02 -0.13536962266E+03  0.19510884567E+03  0.12509153613E+03 0.  0.
          5    1    3    3  502    0 -0.28007893871E+02  0.19377945762E+01 -0.11981839573E+03  0.12313455048E+03  0.41800000000E+01 0.  1.
         -5    1    3    3    0  502  0.33102236687E+02  0.61848427915E+02 -0.15551226936E+02  0.71974295193E+02  0.41800000000E+01 0.  1.
        -11    1    1    2    0    0 -0.46170283279E+02 -0.46403894606E+02 -0.15132908453E+03  0.16488028480E+03  0.00000000000E+00 0.  1.
         11    1    1    2    0    0  0.41075940463E+02 -0.17382327886E+02 -0.11852315857E+03  0.12663774053E+03  0.00000000000E+00 0. -1.
</event>
<event>
 7    1  0.1068210E-005  0.2216050E+03  0.7561462E-02  0.1132692E+00
         -2   -1    0    0    0  501 -0.00000000000E+00  0.00000000000E+00  0.13027690529E+03  0.13027690529E+03  0.00000000000E+00 0.  1.
          2   -1    0    0  501    0  0.00000000000E+00 -0.00000000000E+00 -0.53933559934E+03  0.53933559934E+03  0.00000000000E+00 0. -1.
         23    2    1    2    0    0  0.43452940241E+02  0.21708244221E+03 -0.87940092494E+02  0.26906225818E+03  0.12509234260E+03 0.  0.
          5    1    3    3  502    0  0.29042256559E+02  0.16093926381E+03 -0.11981988697E+03  0.20277864044E+03  0.41800000000E+01 0. -1.
         -5    1    3    3    0  502  0.14410683682E+02  0.56143178399E+02  0.31879794481E+02  0.66283617743E+02  0.41800000000E+01 0. -1.
        -11    1    1    2    0    0 -0.21674150193E+02 -0.12627478291E+03 -0.25732797647E+03  0.28745917460E+03  0.00000000000E+00 0. -1.
         11    1    1    2    0    0 -0.21778790048E+02 -0.90807659303E+02 -0.63790625078E+02  0.11309107185E+03  0.00000000000E+00 0.  1.
</event>
<event>
 7    1  0.1068210E-005  0.1111282E+03  0.7561462E-02  0.1258495E+00
          1   -1    0    0  501    0  0.00000000000E+00  0.00000000000E+00  0.78099433189E+02  0.78099433189E+02  0.00000000000E+00 0. -1.
         -1   -1    0    0    0  501 -0.00000000000E+00 -0.00000000000E+00 -0.58609054795E+03  0.58609054795E+03  0.00000000000E+00 0.  1.
         23    2    1    2    0    0  0.16204346942E+02  0.45160749645E+02 -0.54031413672E+03  0.55667558947E+03  0.12508505667E+03 0.  0.
          5    1    3    3  502    0  0.62722877932E+02  0.41235021110E+02 -0.20997638155E+03  0.22302923484E+03  0.41800000000E+01 0.  1.
         -5    1    3    3    0  502 -0.46518530990E+02  0.39257285350E+01 -0.33033775517E+03  0.33364635463E+03  0.41800000000E+01 0.  1.
        -11    1    1    2    0    0 -0.38175012426E+02 -0.61804084160E+02  0.12861423014E+02  0.73773251213E+02  0.00000000000E+00 0.  1.
         11    1    1    2    0    0  0.21970665484E+02  0.16643334515E+02  0.19461598948E+02  0.33741140455E+02  0.00000000000E+00 0. -1.
</event>
<event>
 7    1  0.1068210E-005  0.1281579E+03  0.7561462E-02  0.1230215E+00
          2   -1    0    0  501    0  0.00000000000E+00  0.00000000000E+00  0.57233163194E+03  0.57233163194E+03  0.00000000000E+00 0.  1.
         -2   -1    0    0    0  501 -0.00000000000E+00 -0.00000000000E+00 -0.34266854960E+02  0.34266854960E+02  0.00000000000E+00 0. -1.
         23    2    1    2    0    0 -0.20928465697E+02  0.73057846820E+02  0.19442718649E+03  0.24335498024E+03  0.12507703987E+03 0.  0.
          5    1    3    3  502    0  0.31458219409E+02  0.80531588174E+02  0.82964600011E+02  0.11989809639E+03  0.41800000000E+01 0. -1.
         -5    1    3    3    0  502 -0.52386685105E+02 -0.74737413535E+01  0.11146258648E+03  0.12345688385E+03  0.41800000000E+01 0. -1.
        -11    1    1    2    0    0 -0.34188777787E+02 -0.39088772215E+02  0.17733841684E+03  0.18478560206E+03  0.00000000000E+00 0.  1.
         11    1    1    2    0    0  0.55117243483E+02 -0.33969074605E+02  0.16629917365E+03  0.17845790460E+03  0.00000000000E+00 0. -1.
</event>
<event>
 7    1  0.1068210E-005  0.9655383E+02  0.7561462E-02  0.1287714E+00
          1   -1    0    0  501    0  0.00000000000E+00  0.00000000000E+00  0.18097808341E+03  0.18097808341E+03  0.00000000000E+00 0. -1.
         -1   -1    0    0    0  501 -0.00000000000E+00 -0.00000000000E+00 -0.74619977604E+02  0.74619977604E+02  0.00000000000E+00 0.  1.
         23    2    1    2    0    0 -0.14992972050E+02  0.12445342499E+02  0.21333296674E+02  0.12838178211E+03  0.12508835545E+03 0.  0.
          5    1    3    3  502    0  0.36077206586E+01  0.67470194059E+02  0.18022815018E+02  0.70053814998E+02  0.41800000000E+01 0. -1.
         -5    1    3    3    0  502 -0.18600692708E+02 -0.55024851560E+02  0.33104816558E+01  0.58327967110E+02  0.41800000000E+01 0. -1.
        -11    1    1    2    0    0 -0.25480626510E+02 -0.62150128879E+01 -0.64366081229E+01  0.27005900034E+02  0.00000000000E+00 0.  1.
         11    1    1    2    0    0  0.40473598559E+02 -0.62303296109E+01  0.91461417258E+02  0.10021037887E+03  0.00000000000E+00 0. -1.
</event>
<event>
 7    1  0.1068210E-005  0.8715127E+02  0.7561462E-02  0.1309901E+00
         -2   -1    0    0    0  501 -0.00000000000E+00  0.00000000000E+00  0.13623623922E+02  0.13623623922E+02  0.00000000000E+00 0.  1.
          2   -1    0    0  501    0  0.00000000000E+00 -0.00000000000E+00 -0.10399194294E+04  0.10399194294E+04  0.00000000000E+00 0. -1.
         23    2    1    2    0    0 -0.21738536467E+02  0.29414673252E+02 -0.44336081794E+03  0.46211913591E+03  0.12508994334E+03 0.  0.
          5    1    3    3  502    0  0.64845409297E+01  0.42428703728E+02 -0.42195015774E+03  0.42414814887E+03  0.41800000000E+01 0. -1.
         -5    1    3    3    0  502 -0.28223077397E+02 -0.13014030476E+02 -0.21410660195E+02  0.37970987043E+02  0.41800000000E+01 0. -1.
        -11    1    1    2    0    0  0.27915528361E+02  0.29480969876E+02 -0.23051380844E+03  0.23406200074E+03  0.00000000000E+00 0.  1.
         11    1    1    2    0    0 -0.61769918937E+01 -0.58895643128E+02 -0.35242117912E+03  0.35736191669E+03  0.00000000000E+00 0. -1.
</event>
<event>
 6    1  0.1068210E-005  0.1134505E+03  0.7561462E-02  0.1254310E+00
         -3   -1    0    0    0  501 -0.00000000000E+00  0.00000000000E+00  0.31667022617E+02  0.31667022617E+02  0.00000000000E+00 0.  1.
          3   -1    0    0  501    0  0.00000000000E+00 -0.00000000000E+00 -0.53854042846E+03  0.53854042846E+03  0.00000000000E+00 0. -1.
          5    1    1    2  502    0 -0.12015157376E+00 -0.86422666858E+02 -0.94140136643E+02  0.12786215042E+03  0.41800000000E+01 0.  1.
         -5    1    1    2    0  502  0.85567297162E+00  0.40942332768E+02 -0.18882165468E+03  0.19325655607E+03  0.41800000000E+01 0. -1.
        -11    1    1    2    0    0 -0.33369535763E+02 -0.10009599760E+02 -0.34474120611E+02  0.49012069904E+02  0.00000000000E+00 0.  1.
         11    1    1    2    0    0  0.32634014365E+02  0.55489933849E+02 -0.18943749391E+03  0.20007667468E+03  0.00000000000E+00 0. -1.
</event>
<event>
 7    1  0.1068210E-005  0.1303968E+03  0.7561462E-02  0.1226868E+00
          1   -1    0    0  501    0  0.00000000000E+00  0.00000000000E+00  0.42108596347E+03  0.42108596347E+03  0.00000000000E+00 0. -1.
         -1   -1    0    0    0  501 -0.00000000000E+00 -0.00000000000E+00 -0.49364855438E+02  0.49364855438E+02  0.00000000000E+00 0.  1.
         23    2    1    2    0    0 -0.95171727391E+02 -0.12650347412E+02  0.19459580027E+03  0.25046469550E+03  0.12508936497E+03 0.  0.
          5    1    3    3  502    0  0.20260317310E+02 -0.18709130861E+02  0.49488241507E+01  0.28327994909E+02  0.41800000000E+01 0.  1.
         -5    1    3    3    0  502 -0.11543204470E+03  0.60587834493E+01  0.18964697612E+03  0.22213670060E+03  0.41800000000E+01 0.  1.
        -11    1    1    2    0    0  0.60156362153E+02  0.40479068759E+02  0.58355613734E+02  0.93073737269E+02  0.00000000000E+00 0.  1.
         11    1    1    2    0    0  0.35015365238E+02 -0.27828721347E+02  0.11876969402E+03  0.12691238613E+03  0.00000000000E+00 0. -1.
</event>
<event>
 7    1  0.1068210E-005  0.9113900E+02  0.7561462E-02  0.1300117E+00
          1   -1    0    0  501    0  0.00000000000E+00  0.00000000000E+00  0.23921061044E+02  0.23921061044E+02  0.00000000000E+00 0. -1.
         -1   -1    0    0    0  501 -0.00000000000E+00 -0.00000000000E+00 -0.62598378215E+03  0.62598378215E+03  0.00000000000E+00 0.  1.
         23    2    1    2    0    0  0.34218490155E+02 -0.29743040759E+02 -0.41538185234E+03  0.43617131059E+03  0.12509106839E+03 0.  0.
          5    1    3    3  502    0 -0.18978211253E+02 -0.11457688933E+02 -0.65843168354E+01  0.23500569487E+02  0.41800000000E+01 0. -1.
         -5    1    3    3    0  502  0.53196701407E+02 -0.18285351826E+02 -0.40879753550E+03  0.41267074110E+03  0.41800000000E+01 0. -1.
        -11    1    1    2    0    0 -0.66209368698E+02  0.25884260491E+02 -0.11593298004E+03  0.13599312962E+03  0.00000000000E+00 0. -1.
         11    1    1    2    0    0  0.31990878544E+02  0.38587802679E+01 -0.70747888732E+02  0.77740402978E+02  0.00000000000E+00 0.  1.
</event>
<event>
 6    1  0.1068210E-005  0.1428626E+03  0.7561462E-02  0.1209528E+00
          1   -1    0    0  501    0  0.00000000000E+00  0.00000000000E+00  0.52242080026E+03  0.52242080026E+03  0.00000000000E+00 0. -1.
         -1   -1    0    0    0  501 -0.00000000000E+00 -0.00000000000E+00 -0.76968183495E+02  0.76968183495E+02  0.00000000000E+00 0.  1.
          5    1    1    2  502    0  0.33662098440E+02 -0.20012892399E+02  0.10151139420E+03  0.10888382932E+03  0.41800000000E+01 0. -1.
         -5    1    1    2    0  502 -0.11791010406E+03 -0.36651371258E+02 -0.94123990913E+00  0.12354947992E+03  0.41800000000E+01 0.  1.
        -11    1    1    2    0    0  0.93071051558E+02  0.62596593899E+02  0.33088204362E+03  0.34937584489E+03  0.00000000000E+00 0. -1.
         11    1    1    2    0    0 -0.88230459337E+01 -0.59323302417E+01  0.14000418849E+02  0.17579829624E+02  0.00000000000E+00 0.  1.
</event>
<event>
 6    1  0.1068210E-005  0.1187923E+03  0.7561462E-02  0.1245103E+00
         -1   -1    0    0    0  501 -0.00000000000E+00  0.00000000000E+00  0.86890339776E+03  0.86890339776E+03  0.00000000000E+00 0.  1.
          1   -1    0    0  501    0  0.00000000000E+00 -0.00000000000E+00 -0.45833174392E+02  0.45833174392E+02  0.00000000000E+00 0. -1.
          5    1    1    2  502    0 -0.46822356413E+02 -0.76909639366E+02  0.64855782321E+03  0.65479168300E+03  0.41800000000E+01 0. -1.
         -5    1    1    2    0  502  0.26550621780E+02  0.58679893779E+02  0.14826149203E+03  0.16170098290E+03  0.41800000000E+01 0.  1.
        -11    1    1    2    0    0  0.24130426333E+02  0.47554408404E+02  0.38969449622E+02  0.66047840521E+02  0.00000000000E+00 0.  1.
         11    1    1    2    0    0 -0.38586917000E+01 -0.29324662817E+02 -0.12718541490E+02  0.32196065731E+02  0.00000000000E+00 0. -1.
</event>
<event>
 7    1  0.1068210E-005  0.1290677E+03  0.7561462E-02  0.1228846E+00
          2   -1    0    0  501    0  0.00000000000E+00  0.00000000000E+00  0.77353131956E+03  0.77353131956E+03  0.00000000000E+00 0. -1.
         -2   -1    0    0    0  501 -0.00000000000E+00 -0.00000000000E+00 -0.52991571006E+02  0.52991571006E+02  0.00000000000E+00 0.  1.
         23    2    1    2    0    0  0.10375700154E+03  0.14095246343E+02  0.10136073241E+03  0.19205601202E+03  0.12508925749E+03 0.  0.
          5    1    3    3  502    0 -0.33350312024E+01  0.12178218130E+02 -0.23802300627E+02  0.27266340882E+02  0.41800000000E+01 0. -1.
         -5    1    3    3    0  502  0.10709203275E+03  0.19170282124E+01  0.12516303304E+03  0.16478967114E+03  0.41800000000E+01 0. -1.
        -11    1    1    2    0    0 -0.63041193161E+02 -0.52223806045E+02  0.33422708423E+03  0.34410646868E+03  0.00000000000E+00 0.  1.
         11    1    1    2    0    0 -0.40715808381E+02  0.38128559702E+02  0.28495193191E+03  0.29036040986E+03  0.00000000000E+00 0. -1.
</event>
<event>
 7    1  0.1068210E-005  0.9042200E+02  0.7561462E-02  0.1301833E+00
         -2   -1    0    0    0  501 -0.00000000000E+00  0.00000000000E+00  0.29860010323E+02  0.29860010323E+02  0.00000000000E+00 0.  1.
          2   -1    0    0  501    0  0.00000000000E+00 -0.00000000000E+00 -0.39772567896E+03  0.39772567896E+03  0.00000000000E+00 0. -1.
         23    2    1    2    0    0 -0.23371923899E+02  0.40508431061E+02 -0.12989267157E+03  0.17745904354E+03  0.11150079009E+03 0.  0.
          5    1    3    3  502    0  0.32161696879E+02 -0.56890090897E+01 -0.87747472532E+02  0.93722094013E+02  0.41800000000E+01 0. -1.
         -5    1    3    3    0  502 -0.55533620778E+02  0.46197440151E+02 -0.42145199042E+02  0.83736949524E+02  0.41800000000E+01 0.  1.
        -11    1    1    2    0    0  0.37413644876E+02 -0.54699648145E+01 -0.94832065333E+02  0.10209222279E+03  0.00000000000E+00 0. -1.
         11    1    1    2    0    0 -0.14041720977E+02 -0.35038466246E+02 -0.14314093173E+03  0.14803442296E+03  0.00000000000E+00 0.  1.
</event>
<event>
 7    1  0.1068210E-005  0.1058693E+03  0.7561462E-02  0.1268416E+00
          1   -1    0    0  501    0  0.00000000000E+00  0.00000000000E+00  0.70493436279E+02  0.70493436279E+02  0.00000000000E+00 0. -1.
         -1   -1    0    0    0  501 -0.00000000000E+00 -0.00000000000E+00 -0.20550966300E+03  0.20550966300E+03  0.00000000000E+00 0.  1.
         23    2    1    2    0    0 -0.37190453268E+02  0.41947542598E+02 -0.67294270979E+02  0.15270754092E+03  0.12509335715E+03 0.  0.
          5    1    3    3  502    0 -0.77447207309E+02  0.22672181035E+02 -0.12267340250E+02  0.81731620256E+02  0.41800000000E+01 0.  1.
         -5    1    3    3    0  502  0.40256754041E+02  0.19275361562E+02 -0.55026930729E+02  0.70975920668E+02  0.41800000000E+01 0.  1.
        -11    1    1    2    0    0 -0.49752905725E+01 -0.43622323146E+02 -0.47858543179E+00  0.43907740057E+02  0.00000000000E+00 0. -1.
         11    1    1    2    0    0  0.42165743840E+02  0.16747805483E+01 -0.67243370315E+02  0.79387818302E+02  0.00000000000E+00 0.  1.
</event>
<event>
 7    1  0.1068210E-005  0.1000110E+03  0.7561462E-02  0.1280273E+00
         -2   -1    0    0    0  501 -0.00000000000E+00  0.00000000000E+00  0.33162886253E+02  0.33162886253E+02  0.00000000000E+00 0.  1.
          2   -1    0    0  501    0  0.00000000000E+00 -0.00000000000E+00 -0.55436405236E+03  0.55436405236E+03  0.00000000000E+00 0. -1.
         23    2    1    2    0    0  0.74281162884E+01 -0.73595877134E+01 -0.11147872435E+03  0.16788367134E+03  0.12509228863E+03 0.  0.
          5    1    3    3  502    0  0.59335288729E+02 -0.36940991499E+01 -0.96765659252E+02  0.11364588892E+03  0.41800000000E+01 0. -1.
         -5    1    3    3    0  502 -0.51907172440E+02 -0.36654885635E+01 -0.14713065099E+02  0.54237782420E+02  0.41800000000E+01 0. -1.
        -11    1    1    2    0    0  0.33084890586E+02 -0.20620547258E+02 -0.13385728691E+03  0.13941875847E+03  0.00000000000E+00 0.  1.
         11    1    1    2    0    0 -0.40513006874E+02  0.27980134972E+02 -0.27586515485E+03  0.28022450881E+03  0.00000000000E+00 0. -1.
</event>
<event>
 7    1  0.1068210E-005  0.2083556E+03  0.7561462E-02  0.1142875E+00
         -2   -1    0    0    0  501 -0.00000000000E+00  0.00000000000E+00  0.10820238600E+03  0.10820238600E+03  0.00000000000E+00 0.  1.
          2   -1    0    0  501    0  0.00000000000E+00 -0.00000000000E+00 -0.47838318080E+03  0.47838318080E+03  0.00000000000E+00 0. -1.
         23    2    1    2    0    0 -0.12270899033E+03  0.15680453792E+03 -0.20644694016E+03  0.31291072382E+03  0.12509045750E+03 0.  0.
          5    1    3    3  502    0 -0.10909566554E+03  0.11477836641E+03 -0.77122404804E+02  0.17618534377E+03  0.41800000000E+01 0.  1.
         -5    1    3    3    0  502 -0.13613324784E+02  0.42026171504E+02 -0.12932453536E+03  0.13672538005E+03  0.41800000000E+01 0.  1.
        -11    1    1    2    0    0  0.65872248750E+01 -0.66501973417E+02 -0.24640526888E+02  0.71225413760E+02  0.00000000000E+00 0. -1.
         11    1    1    2    0    0  0.11612176545E+03 -0.90302564500E+02 -0.13909332775E+03  0.20244942922E+03  0.00000000000E+00 0.  1.
</event>
<event>
 7    1  0.1068210E-005  0.9666826E+02  0.7561462E-02  0.1287462E+00
         -3   -1    0    0    0  501 -0.00000000000E+00  0.00000000000E+00  0.21102594697E+03  0.21102594697E+03  0.00000000000E+00 0.  1.
          3   -1    0    0  501    0  0.00000000000E+00 -0.00000000000E+00 -0.61925783204E+02  0.61925783204E+02  0.00000000000E+00 0. -1.
         23    2    1    2    0    0  0.21878278924E+02 -0.17829115990E+02  0.12043830671E+03  0.17592345424E+03  0.12508852690E+03 0.  0.
          5    1    3    3  502    0 -0.37479435847E+01  0.42437738806E+02  0.97370463339E+02  0.10636488277E+03  0.41800000000E+01 0.  1.
         -5    1    3    3    0  502  0.25626222508E+02 -0.60266854796E+02  0.23067843372E+02  0.69558571469E+02  0.41800000000E+01 0.  1.
        -11    1    1    2    0    0 -0.51159918082E+02  0.10756515365E+01 -0.23212480924E+01  0.51223846372E+02  0.00000000000E+00 0. -1.
         11    1    1    2    0    0  0.29281639159E+02  0.16753464453E+02  0.30983105152E+02  0.45804429565E+02  0.00000000000E+00 0.  1.
</event>
<event>
 7    1  0.1068210E-005  0.1336967E+03  0.7561462E-02  0.1222071E+00
          2   -1    0    0  501    0  0.00000000000E+00  0.00000000000E+00  0.14477940974E+03  0.14477940974E+03  0.00000000000E+00 0. -1.
         -2   -1    0    0    0  501 -0.00000000000E+00 -0.00000000000E+00 -0.15029381107E+03  0.15029381107E+03  0.00000000000E+00 0.  1.
         23    2    1    2    0    0 -0.27715999375E+02  0.84677072502E+02 -0.49539303172E+02  0.16136727248E+03  0.12508745276E+03 0.  0.
          5    1    3    3  502    0 -0.75221999306E+02  0.51904595263E+02 -0.11708554283E+02  0.92233393261E+02  0.41800000000E+01 0.  1.
         -5    1    3    3    0  502  0.47505999931E+02  0.32772477239E+02 -0.37830748889E+02  0.69133879215E+02  0.41800000000E+01 0.  1.
        -11    1    1    2    0    0  0.48018233624E+02 -0.23258751754E+02  0.43781847617E+02  0.69018624111E+02  0.00000000000E+00 0. -1.
         11    1    1    2    0    0 -0.20302234249E+02 -0.61418320748E+02  0.24305422463E+00  0.64687324217E+02  0.00000000000E+00 0.  1.
</event>
<event>
 7    1  0.1068210E-005  0.1304653E+03  0.7561462E-02  0.1226767E+00
         -2   -1    0    0    0  501 -0.00000000000E+00  0.00000000000E+00  0.28324819593E+02  0.28324819593E+02  0.00000000000E+00 0.  1.
          2   -1    0    0  501    0  0.00000000000E+00 -0.00000000000E+00 -0.93714209746E+03  0.93714209746E+03  0.00000000000E+00 0. -1.
         23    2    1    2    0    0 -0.11052570828E+03 -0.97527402197E+01 -0.33564746562E+03  0.37499008881E+03  0.12508915779E+03 0.  0.
          5    1    3    3  502    0 -0.11488181373E+03 -0.32188368357E+01 -0.34404476054E+03  0.36275675279E+03  0.41800000000E+01 0. -1.
         -5    1    3    3    0  502  0.43561054526E+01 -0.65339033841E+01  0.83972949244E+01  0.12233336021E+02  0.41800000000E+01 0. -1.
        -11    1    1    2    0    0  0.45919240394E+02  0.44268590836E+02 -0.34472377291E+03  0.35057490552E+03  0.00000000000E+00 0. -1.
         11    1    1    2    0    0  0.64606467884E+02 -0.34515850617E+02 -0.22844603935E+03  0.23990192273E+03  0.00000000000E+00 0.  1.
</event>
<event>
 7    1  0.1068210E-005  0.1471650E+03  0.7561462E-02  0.1204001E+00
         -1   -1    0    0    0  501 -0.00000000000E+00  0.00000000000E+00  0.39707179483E+02  0.39707179483E+02  0.00000000000E+00 0.  1.
          1   -1    0    0  501    0  0.00000000000E+00 -0.00000000000E+00 -0.61433084050E+03  0.61433084050E+03  0.00000000000E+00 0. -1.
         23    2    1    2    0    0  0.81835469084E+02  0.69791457817E+02 -0.23204775196E+03  0.28471421807E+03  0.12509250656E+03 0.  0.
          5    1    3    3  502    0 -0.15931080286E+02  0.64705112956E+02 -0.86938713303E+02  0.10961917365E+03  0.41800000000E+01 0.  1.
         -5    1    3    3    0  502  0.97766549371E+02  0.50863448611E+01 -0.14510903866E+03  0.17509504442E+03  0.41800000000E+01 0.  1.
        -11    1    1    2    0    0 -0.16702314610E+02 -0.61722676761E+02 -0.23282703636E+03  0.24144789293E+03  0.00000000000E+00 0. -1.
         11    1    1    2    0    0 -0.65133154475E+02 -0.80687810554E+01 -0.10974887269E+03  0.12787590897E+03  0.00000000000E+00 0.  1.
</event>
<event>
 7    1  0.1068210E-005  0.1334705E+03  0.7561462E-02  0.1222395E+00
          1   -1    0    0  501    0  0.00000000000E+00  0.00000000000E+00  0.30533516993E+03  0.30533516993E+03  0.00000000000E+00 0. -1.
         -1   -1    0    0    0  501 -0.00000000000E+00 -0.00000000000E+00 -0.85726071150E+02  0.85726071150E+02  0.00000000000E+00 0.  1.
         23    2    1    2    0    0 -0.22618989862E+02 -0.11834706924E+03  0.11511241705E+03  0.20834443041E+03  0.12505553017E+03 0.  0.
          5    1    3    3  502    0  0.11175220796E+02 -0.10921266308E+03  0.12988647939E+03  0.17011837427E+03  0.41800000000E+01 0. -1.
         -5    1    3    3    0  502 -0.33794210658E+02 -0.91344061608E+01 -0.14774062342E+02  0.38226056140E+02  0.41800000000E+01 0. -1.
        -11    1    1    2    0    0  0.26200323828E+01  0.61587230597E+02 -0.55869658012E+00  0.61645467669E+02  0.00000000000E+00 0.  1.
         11    1    1    2    0    0  0.19998957479E+02  0.56759838644E+02  0.10505537831E+03  0.12107134300E+03  0.00000000000E+00 0. -1.
</event>
<event>
 7    1  0.1068210E-005  0.8360508E+02  0.7561462E-02  0.1319121E+00
          2   -1    0    0  501    0  0.00000000000E+00  0.00000000000E+00  0.41568159507E+02  0.41568159507E+02  0.00000000000E+00 0.  1.
         -2   -1    0    0    0  501 -0.00000000000E+00 -0.00000000000E+00 -0.45652530914E+03  0.45652530914E+03  0.00000000000E+00 0. -1.
         23    2    1    2    0    0  0.21401609969E+01 -0.75210979032E+02 -0.31046473933E+03  0.34306934713E+03  0.12508777286E+03 0.  0.
          5    1    3    3  502    0  0.24056543879E+02 -0.46408684658E+02 -0.30085382600E+03  0.30538988250E+03  0.41800000000E+01 0.  1.
         -5    1    3    3    0  502 -0.21916382882E+02 -0.28802294374E+02 -0.96109133270E+01  0.37679464630E+02  0.41800000000E+01 0.  1.
        -11    1    1    2    0    0  0.97331262642E+01  0.27528154793E+02  0.96518437327E+01  0.30752091647E+02  0.00000000000E+00 0.  1.
         11    1    1    2    0    0 -0.11873287261E+02  0.47682824238E+02 -0.11414425404E+03  0.12427202987E+03  0.00000000000E+00 0. -1.
</event>
<event>
 6    1  0.1068210E-005  0.3562404E+03  0.7561462E-02  0.1060082E+00
         -1   -1    0    0    0  501 -0.00000000000E+00  0.00000000000E+00  0.13776423322E+03  0.13776423322E+03  0.00000000000E+00 0.  1.
          1   -1    0    0  501    0  0.00000000000E+00 -0.00000000000E+00 -0.12929858263E+04  0.12929858263E+04  0.00000000000E+00 0. -1.
          5    1    1    2  502    0 -0.10241815015E+03 -0.16783118839E+03 -0.64087796946E+03  0.67037215740E+03  0.41800000000E+01 0. -1.
         -5    1    1    2    0  502  0.59733632175E+02  0.32495404838E+03 -0.17586146968E+03  0.37430999090E+03  0.41800000000E+01 0.  1.
        -11    1    1    2    0    0 -0.18478757016E+02 -0.10005122108E+03 -0.19634498445E+03  0.22114037220E+03  0.00000000000E+00 0.  1.
         11    1    1    2    0    0  0.61163274989E+02 -0.57071638910E+02 -0.14213716951E+03  0.16492753903E+03  0.00000000000E+00 0. -1.
</event>
<event>
 7    1  0.1068210E-005  0.8068359E+02  0.7561462E-02  0.1327123E+00
         -1   -1    0    0    0  501 -0.00000000000E+00  0.00000000000E+00  0.25890532583E+03  0.25890532583E+03  0.00000000000E+00 0.  1.
          1   -1    0    0  501    0  0.00000000000E+00 -0.00000000000E+00 -0.67690064729E+02  0.67690064729E+02  0.00000000000E+00 0. -1.
         23    2    1    2    0    0 -0.20306923405E+02 -0.39160043381E+02  0.17868220606E+03  0.22252954338E+03  0.12508471841E+03 0.  0.
          5    1    3    3  502    0 -0.29337773526E+02 -0.47016034108E+02  0.13936490170E+02  0.57296689058E+02  0.41800000000E+01 0. -1.
         -5    1    3    3    0  502  0.90308501202E+01  0.78559907275E+01  0.16474571589E+03  0.16523285432E+03  0.41800000000E+01 0. -1.
        -11    1    1    2    0    0  0.26675233093E+02 -0.20169633289E+02 -0.16968449865E+02  0.37500806103E+02  0.00000000000E+00 0. -1.
         11    1    1    2    0    0 -0.63683096875E+01  0.59329676669E+02  0.29501504916E+02  0.66565041082E+02  0.00000000000E+00 0.  1.
</event>
<event>
 7    1  0.1068210E-005  0.1254684E+03  0.7561462E-02  0.1234339E+00
          1   -1    0    0  501    0  0.00000000000E+00  0.00000000000E+00  0.24087580121E+03  0.24087580121E+03  0.00000000000E+00 0. -1.
         -1   -1    0    0    0  501 -0.00000000000E+00 -0.00000000000E+00 -0.66378993197E+02  0.66378993197E+02  0.00000000000E+00 0.  1.
         23    2    1    2    0    0 -0.65187057621E+02 -0.93651324861E+01  0.10495594919E+03  0.17607022656E+03  0.12509162730E+03 0.  0.
          5    1    3    3  502    0 -0.71364447986E+02 -0.57737061300E+02  0.75642267479E+02  0.11901965263E+03  0.41800000000E+01 0. -1.
         -5    1    3    3    0  502  0.61773903649E+01  0.48371928814E+02  0.29313681716E+02  0.57050573920E+02  0.41800000000E+01 0. -1.
        -11    1    1    2    0    0 -0.16857557295E+02 -0.16984706945E+02  0.77714323403E+01  0.25160537923E+02  0.00000000000E+00 0.  1.
         11    1    1    2    0    0  0.82044614917E+02  0.26349839431E+02  0.61769426477E+02  0.10602402993E+03  0.00000000000E+00 0. -1.
</event>
<event>
 7    1  0.1068210E-005  0.1731843E+03  0.7561462E-02  0.1174567E+00
         -2   -1    0    0    0  501 -0.00000000000E+00  0.00000000000E+00  0.38079788992E+02  0.38079788992E+02  0.00000000000E+00 0. -1.
          2   -1    0    0  501    0  0.00000000000E+00 -0.00000000000E+00 -0.10025002066E+04  0.10025002066E+04  0.00000000000E+00 0.  1.
         23    2    1    2    0    0 -0.15999074479E+02 -0.14402366827E+03 -0.31504930711E+03  0.36864904301E+03  0.12508902267E+03 0.  0.
          5    1    3    3  502    0 -0.51083699089E+02 -0.12574116519E+03 -0.29353821823E+03  0.32342316382E+03  0.41800000000E+01 0. -1.
         -5    1    3    3    0  502  0.35084624610E+02 -0.18282503078E+02 -0.21511088880E+02  0.45225879180E+02  0.41800000000E+01 0. -1.
        -11    1    1    2    0    0 -0.28747766355E+02  0.11237026998E+03 -0.48438373601E+03  0.49807741904E+03  0.00000000000E+00 0.  1.
         11    1    1    2    0    0  0.44746840834E+02  0.31653398290E+02 -0.16498737451E+03  0.17385353357E+03  0.00000000000E+00 0. -1.
</event>
<event>
 7    1  0.1068210E-005  0.1371214E+03  0.7561462E-02  0.1217256E+00
         -1   -1    0    0    0  501 -0.00000000000E+00  0.00000000000E+00  0.62879065528E+02  0.62879065528E+02  0.00000000000E+00 0.  1.
          1   -1    0    0  501    0  0.00000000000E+00 -0.00000000000E+00 -0.38648072915E+03  0.38648072915E+03  0.00000000000E+00 0. -1.
         23    2    1    2    0    0 -0.99402118986E+02 -0.49882241733E+01 -0.10030325651E+03  0.18871860798E+03  0.12509318964E+03 0.  0.
          5    1    3    3  502    0  0.76704631771E+01 -0.40510034467E+02 -0.65084591975E+01  0.41949151827E+02  0.41800000000E+01 0.  1.
         -5    1    3    3    0  502 -0.10707258216E+03  0.35521810294E+02 -0.93794797310E+02  0.14676945615E+03  0.41800000000E+01 0.  1.
        -11    1    1    2    0    0  0.95858783578E+02  0.25423526120E+02 -0.12191289651E+03  0.15715602567E+03  0.00000000000E+00 0.  1.
         11    1    1    2    0    0  0.35433354073E+01 -0.20435301947E+02 -0.10138551061E+03  0.10348516102E+03  0.00000000000E+00 0. -1.
</event>
<event>
 7    1  0.1068210E-005  0.1134585E+03  0.7561462E-02  0.1254296E+00
         -2   -1    0    0    0  501 -0.00000000000E+00  0.00000000000E+00  0.88774143064E+02  0.88774143064E+02  0.00000000000E+00 0.  1.
          2   -1    0    0  501    0  0.00000000000E+00 -0.00000000000E+00 -0.16847805756E+03  0.16847805756E+03  0.00000000000E+00 0. -1.
         23    2    1    2    0    0  0.24566413891E+02 -0.42580702431E+02 -0.16730379941E+02  0.13544130781E+03  0.12509123606E+03 0.  0.
          5    1    3    3  502    0  0.74576606690E+02 -0.15546008163E+02 -0.18138016052E+02  0.78420715767E+02  0.41800000000E+01 0.  1.
         -5    1    3    3    0  502 -0.50010192798E+02 -0.27034694268E+02  0.14076361107E+01  0.57020592047E+02  0.41800000000E+01 0.  1.
        -11    1    1    2    0    0  0.22915056905E+02  0.39962015514E+02 -0.42701724919E+01  0.46263342832E+02  0.00000000000E+00 0.  1.
         11    1    1    2    0    0 -0.47481470796E+02  0.26186869172E+01 -0.58703362065E+02  0.75547549980E+02  0.00000000000E+00 0. -1.
</event>
<event>
 7    1  0.1068210E-005  0.1691819E+03  0.7561462E-02  0.1178704E+00
         -2   -1    0    0    0  501 -0.00000000000E+00  0.00000000000E+00  0.85756743264E+02  0.85756743264E+02  0.00000000000E+00 0.  1.
          2   -1    0    0  501    0  0.00000000000E+00 -0.00000000000E+00 -0.50833514381E+03  0.50833514381E+03  0.00000000000E+00 0. -1.
         23    2    1    2    0    0 -0.12181612819E+03 -0.45211152234E+02 -0.47100642898E+02  0.18641068039E+03  0.12508898364E+03 0.  0.
          5    1    3    3  502    0 -0.21868545594E+02 -0.72620958724E+02 -0.27943433001E+02  0.80934200313E+02  0.41800000000E+01 0.  1.
         -5    1    3    3    0  502 -0.99947582597E+02  0.27409806490E+02 -0.19157209897E+02  0.10547648008E+03  0.41800000000E+01 0.  1.
        -11    1    1    2    0    0  0.92320118671E+02 -0.13189621233E+02 -0.21265123667E+03  0.23220146183E+03  0.00000000000E+00 0. -1.
         11    1    1    2    0    0  0.29496009520E+02  0.58400773467E+02 -0.16282652098E+03  0.17547974485E+03  0.00000000000E+00 0.  1.
</event>
<event>
 7    1  0.1068210E-005  0.7010578E+02  0.7561462E-02  0.1359734E+00
          2   -1    0    0  501    0  0.00000000000E+00  0.00000000000E+00  0.26364560704E+03  0.26364560704E+03  0.00000000000E+00 0. -1.
         -2   -1    0    0    0  501 -0.00000000000E+00 -0.00000000000E+00 -0.40329683854E+02  0.40329683854E+02  0.00000000000E+00 0.  1.
         23    2    1    2    0    0 -0.12958946566E+02  0.17561269545E+02  0.88321452659E+02  0.15474223158E+03  0.12517246802E+03 0.  0.
          5    1    3    3  502    0  0.19232159879E+02  0.34998914914E+02  0.10638069061E+03  0.11370630481E+03  0.41800000000E+01 0. -1.
         -5    1    3    3    0  502 -0.32191106445E+02 -0.17437645369E+02 -0.18059237952E+02  0.41035926766E+02  0.41800000000E+01 0.  1.
        -11    1    1    2    0    0  0.32716237468E+02  0.51373459798E+01  0.62277731127E+02  0.70535525178E+02  0.00000000000E+00 0. -1.
         11    1    1    2    0    0 -0.19757290902E+02 -0.22698615525E+02  0.72716739400E+02  0.78697534138E+02  0.00000000000E+00 0.  1.
</event>
<event>
 7    1  0.1068210E-005  0.2328990E+03  0.7561462E-02  0.1124616E+00
         -2   -1    0    0    0  501 -0.00000000000E+00  0.00000000000E+00  0.47775846570E+02  0.47775846570E+02  0.00000000000E+00 0.  1.
          2   -1    0    0  501    0  0.00000000000E+00 -0.00000000000E+00 -0.12729216931E+04  0.12729216931E+04  0.00000000000E+00 0. -1.
         23    2    1    2    0    0  0.25104781754E+02  0.21464267755E+03 -0.48417012206E+03  0.54476582162E+03  0.12508942486E+03 0.  0.
          5    1    3    3  502    0  0.59092643375E+02  0.20602832238E+03 -0.41747705253E+03  0.46930179194E+03  0.41800000000E+01 0. -1.
         -5    1    3    3    0  502 -0.33987861621E+02  0.86143551723E+01 -0.66693069526E+02  0.75464029679E+02  0.41800000000E+01 0. -1.
        -11    1    1    2    0    0 -0.66875123987E+01 -0.51614521208E+02 -0.84308522714E+02  0.99079304720E+02  0.00000000000E+00 0.  1.
         11    1    1    2    0    0 -0.18417269355E+02 -0.16302815634E+03 -0.65666720174E+03  0.67685241331E+03  0.00000000000E+00 0. -1.
</event>
<event>
 7    1  0.1068210E-005  0.3900340E+03  0.7561462E-02  0.1047286E+00
          2   -1    0    0  501    0  0.00000000000E+00  0.00000000000E+00  0.10952386277E+04  0.10952386277E+04  0.00000000000E+00 0. -1.
         -2   -1    0    0    0  501 -0.00000000000E+00 -0.00000000000E+00 -0.15172499787E+03  0.15172499787E+03  0.00000000000E+00 0.  1.
         23    2    1    2    0    0 -0.13787891699E+03 -0.35521143160E+03  0.33121637509E+03  0.52014237696E+03  0.12513212334E+03 0.  0.
          5    1    3    3  502    0 -0.15287327295E+03 -0.29254549767E+03  0.30812974093E+03  0.45156894871E+03  0.41800000000E+01 0.  1.
         -5    1    3    3    0  502  0.14994355954E+02 -0.62665933927E+02  0.23086634159E+02  0.68573428252E+02  0.41800000000E+01 0.  1.
        -11    1    1    2    0    0  0.64765862879E+02  0.94083978777E+02  0.12628268784E+03  0.17027545127E+03  0.00000000000E+00 0.  1.
         11    1    1    2    0    0  0.73113054115E+02  0.26112745282E+03  0.48601456695E+03  0.55654579739E+03  0.00000000000E+00 0. -1.
</event>
<event>
 7    1  0.1068210E-005  0.1295907E+03  0.7561462E-02  0.1228064E+00
          3   -1    0    0  501    0  0.00000000000E+00  0.00000000000E+00  0.11912249129E+03  0.11912249129E+03  0.00000000000E+00 0. -1.
         -3   -1    0    0    0  501 -0.00000000000E+00 -0.00000000000E+00 -0.16733862654E+03  0.16733862654E+03  0.00000000000E+00 0.  1.
         23    2    1    2    0    0 -0.48361597272E+01  0.85983550143E+02 -0.54272897493E+02  0.16126744986E+03  0.12508030879E+03 0.  0.
          5    1    3    3  502    0 -0.63850353770E+02  0.57017372166E+02 -0.25793322977E+02  0.89502046431E+02  0.41800000000E+01 0.  1.
         -5    1    3    3    0  502  0.59014194042E+02  0.28966177978E+02 -0.28479574516E+02  0.71765403432E+02  0.41800000000E+01 0.  1.
        -11    1    1    2    0    0  0.34311762461E+02 -0.55117341435E+02 -0.27888404670E+02  0.70661032295E+02  0.00000000000E+00 0.  1.
         11    1    1    2    0    0 -0.29475602734E+02 -0.30866208709E+02  0.33945166907E+02  0.54532635669E+02  0.00000000000E+00 0. -1.
</event>
<event>
 7    1  0.1068210E-005  0.6900055E+02  0.7561462E-02  0.1363525E+00
          2   -1    0    0  501    0  0.00000000000E+00  0.00000000000E+00  0.18092750074E+03  0.18092750074E+03  0.00000000000E+00 0. -1.
         -2   -1    0    0    0  501 -0.00000000000E+00 -0.00000000000E+00 -0.15778941789E+03  0.15778941789E+03  0.00000000000E+00 0.  1.
         23    2    1    2    0    0  0.18819039791E+01 -0.41534439768E+02 -0.11142919372E+03  0.17260683209E+03  0.12509197425E+03 0.  0.
          5    1    3    3  502    0 -0.55404419746E+01 -0.33590101495E+02  0.20636078680E+02  0.40028884059E+02  0.41800000000E+01 0. -1.
         -5    1    3    3    0  502  0.74223459537E+01 -0.79443382731E+01 -0.13206527240E+03  0.13257794803E+03  0.41800000000E+01 0. -1.
        -11    1    1    2    0    0 -0.41545553514E+02  0.28183860139E+02  0.45729972629E+02  0.67908713622E+02  0.00000000000E+00 0.  1.
         11    1    1    2    0    0  0.39663649535E+02  0.13350579629E+02  0.88837303943E+02  0.98201372916E+02  0.00000000000E+00 0. -1.
</event>
<event>
 7    1  0.1068210E-005  0.2954444E+03  0.7561462E-02  0.1087540E+00
         -1   -1    0    0    0  501 -0.00000000000E+00  0.00000000000E+00  0.80405700331E+03  0.80405700331E+03  0.00000000000E+00 0.  1.
          1   -1    0    0  501    0  0.00000000000E+00 -0.00000000000E+00 -0.11880169574E+03  0.11880169574E+03  0.00000000000E+00 0. -1.
         23    2    1    2    0    0 -0.25895702236E+03  0.11539976363E+03  0.43540538504E+03  0.53441638071E+03  0.12508866362E+03 0.  0.
          5    1    3    3  502    0 -0.16732375701E+03  0.10415371420E+02  0.20194011556E+03  0.26249381382E+03  0.41800000000E+01 0. -1.
         -5    1    3    3    0  502 -0.91633265355E+02  0.10498439221E+03  0.23346526948E+03  0.27192256688E+03  0.41800000000E+01 0. -1.
        -11    1    1    2    0    0  0.18810279338E+03 -0.89807957280E+02  0.12625391996E+03  0.24369690677E+03  0.00000000000E+00 0. -1.
         11    1    1    2    0    0  0.70854228987E+02 -0.25591806355E+02  0.12359600257E+03  0.14474541157E+03  0.00000000000E+00 0.  1.
</event>
<event>
 7    1  0.1068210E-005  0.9216463E+02  0.7561462E-02  0.1297693E+00
         -2   -1    0    0    0  501 -0.00000000000E+00  0.00000000000E+00  0.98222140778E+02  0.98222140778E+02  0.00000000000E+00 0.  1.
          2   -1    0    0  501    0  0.00000000000E+00 -0.00000000000E+00 -0.20635278239E+03  0.20635278239E+03  0.00000000000E+00 0. -1.
         23    2    1    2    0    0 -0.20745959595E+02 -0.79365081630E+02 -0.15996223217E+02  0.15043782076E+03  0.12508576153E+03 0.  0.
          5    1    3    3  502    0 -0.34030082643E+02 -0.59384760419E+02 -0.65776570969E+02  0.95019082205E+02  0.41800000000E+01 0. -1.
         -5    1    3    3    0  502  0.13284123047E+02 -0.19980321211E+02  0.49780347752E+02  0.55418738556E+02  0.41800000000E+01 0. -1.
        -11    1    1    2    0    0 -0.96813731019E+01  0.46713485051E+01  0.15976332410E+02  0.19256003720E+02  0.00000000000E+00 0.  1.
         11    1    1    2    0    0  0.30427332697E+02  0.74693733125E+02 -0.10811075080E+03  0.13488109869E+03  0.00000000000E+00 0. -1.
</event>
<event>
 7    1  0.1068210E-005  0.7893358E+02  0.7561462E-02  0.1332105E+00
          2   -1    0    0  501    0  0.00000000000E+00  0.00000000000E+00  0.76396565061E+02  0.76396565061E+02  0.00000000000E+00 0. -1.
         -2   -1    0    0    0  501 -0.00000000000E+00 -0.00000000000E+00 -0.19064352386E+03  0.19064352386E+03  0.00000000000E+00 0.  1.
         23    2    1    2    0    0  0.34377676923E+02 -0.36860899680E+02 -0.83955470648E+02  0.15886026506E+03  0.12509001626E+03 0.  0.
          5    1    3    3  502    0  0.49821656489E+02 -0.27704007975E+02 -0.11174309930E+03  0.12551375285E+03  0.41800000000E+01 0.  1.
         -5    1    3    3    0  502 -0.15443979566E+02 -0.91568917050E+01  0.27787628653E+02  0.33346512211E+02  0.41800000000E+01 0.  1.
        -11    1    1    2    0    0  0.11471049140E+02 -0.11072255852E+02  0.19538464318E+02  0.25217680423E+02  0.00000000000E+00 0. -1.
         11    1    1    2    0    0 -0.45848726063E+02  0.47933155532E+02 -0.49829952472E+02  0.82962143440E+02  0.00000000000E+00 0.  1.
</event>
<event>
 7    1  0.1068210E-005  0.1136069E+03  0.7561462E-02  0.1254033E+00
         -2   -1    0    0    0  501 -0.00000000000E+00  0.00000000000E+00  0.15400872516E+03  0.15400872516E+03  0.00000000000E+00 0.  1.
          2   -1    0    0  501    0  0.00000000000E+00 -0.00000000000E+00 -0.98066922954E+02  0.98066922954E+02  0.00000000000E+00 0. -1.
         23    2    1    2    0    0 -0.36867219655E+02  0.25679075570E+02  0.75362855803E+02  0.15279189218E+03  0.12508875039E+03 0.  0.
          5    1    3    3  502    0 -0.49299335598E+01  0.74254700329E+02  0.39449041042E+02  0.84331275367E+02  0.41800000000E+01 0. -1.
         -5    1    3    3    0  502 -0.31937286095E+02 -0.48575624759E+02  0.35913814761E+02  0.68460616814E+02  0.41800000000E+01 0. -1.
        -11    1    1    2    0    0  0.46453953770E+02 -0.50001548105E+02 -0.28078798199E+01  0.68308190013E+02  0.00000000000E+00 0.  1.
         11    1    1    2    0    0 -0.95867341152E+01  0.24322472535E+02 -0.16613173776E+02  0.30975565921E+02  0.00000000000E+00 0. -1.
</event>
<event>
 7    1  0.1068210E-005  0.1242291E+03  0.7561462E-02  0.1236279E+00
          2   -1    0    0  501    0  0.00000000000E+00  0.00000000000E+00  0.23412767673E+03  0.23412767673E+03  0.00000000000E+00 0. -1.
         -2   -1    0    0    0  501 -0.00000000000E+00 -0.00000000000E+00 -0.11395139260E+03  0.11395139260E+03  0.00000000000E+00 0.  1.
         23    2    1    2    0    0  0.11505928929E+03  0.28998756360E+02  0.35853445002E+02  0.17610344887E+03  0.12508951699E+03 0.  0.
          5    1    3    3  502    0  0.85237319916E+02  0.40223426592E+02 -0.33137568748E+02  0.99994477927E+02  0.41800000000E+01 0. -1.
         -5    1    3    3    0  502  0.29821969377E+02 -0.11224670232E+02  0.68991013750E+02  0.76108970941E+02  0.41800000000E+01 0. -1.
        -11    1    1    2    0    0 -0.89482843556E+02 -0.98437658051E+01  0.10152232832E+03  0.13568663222E+03  0.00000000000E+00 0.  1.
         11    1    1    2    0    0 -0.25576445738E+02 -0.19154990555E+02 -0.17199489179E+02  0.36288988244E+02  0.00000000000E+00 0. -1.
</event>
<event>
 7    1  0.1068210E-005  0.1186019E+03  0.7561462E-02  0.1245421E+00
          1   -1    0    0  501    0  0.00000000000E+00  0.00000000000E+00  0.18080296523E+03  0.18080296523E+03  0.00000000000E+00 0. -1.
         -1   -1    0    0    0  501 -0.00000000000E+00 -0.00000000000E+00 -0.16115773287E+03  0.16115773287E+03  0.00000000000E+00 0.  1.
         23    2    1    2    0    0 -0.73362592227E+02 -0.36924647234E+02 -0.99465463471E+02  0.17174659782E+03  0.11339319172E+03 0.  0.
          5    1    3    3  502    0 -0.76611600241E+01  0.33695794922E+02 -0.24769053904E+01  0.34895664898E+02  0.41800000000E+01 0. -1.
         -5    1    3    3    0  502 -0.65701432203E+02 -0.70620442156E+02 -0.96988558081E+02  0.13685093292E+03  0.41800000000E+01 0.  1.
        -11    1    1    2    0    0 -0.10218236717E+02 -0.60417782980E+01 -0.63470420626E+01  0.13461069406E+02  0.00000000000E+00 0.  1.
         11    1    1    2    0    0  0.83580828944E+02  0.42966425532E+02  0.12545773789E+03  0.15675303087E+03  0.00000000000E+00 0. -1.
</event>
<event>
 7    1  0.1068210E-005  0.1479483E+03  0.7561462E-02  0.1203017E+00
         -2   -1    0    0    0  501 -0.00000000000E+00  0.00000000000E+00  0.93998683635E+02  0.93998683635E+02  0.00000000000E+00 0.  1.
          2   -1    0    0  501    0  0.00000000000E+00 -0.00000000000E+00 -0.29861228458E+03  0.29861228458E+03  0.00000000000E+00 0. -1.
         23    2    1    2    0    0  0.76801731548E+02  0.94485003261E+02 -0.65215578452E+02  0.18635205045E+03  0.12509233879E+03 0.  0.
          5    1    3    3  502    0 -0.23160106530E+02 -0.11677624948E+02 -0.21833079115E+02  0.34160111278E+02  0.41800000000E+01 0.  1.
         -5    1    3    3    0  502  0.99961838078E+02  0.10616262821E+03 -0.43382499338E+02  0.15219193917E+03  0.41800000000E+01 0.  1.
        -11    1    1    2    0    0 -0.10536148986E+02 -0.27827206862E+02 -0.10001981284E+03  0.10435193740E+03  0.00000000000E+00 0. -1.
         11    1    1    2    0    0 -0.66265582562E+02 -0.66657796399E+02 -0.39378209654E+02  0.10190698037E+03  0.00000000000E+00 0.  1.
</event>
<event>
 7    1  0.1068210E-005  0.1412028E+03  0.7561462E-02  0.1211720E+00
         -2   -1    0    0    0  501 -0.00000000000E+00  0.00000000000E+00  0.63395286636E+02  0.63395286636E+02  0.00000000000E+00 0.  1.
          2   -1    0    0  501    0  0.00000000000E+00 -0.00000000000E+00 -0.35365950289E+03  0.35365950289E+03  0.00000000000E+00 0. -1.
         23    2    1    2    0    0 -0.28600754243E+02 -0.10560633690E+03 -0.19698826351E+03  0.25772488423E+03  0.12508812276E+03 0.  0.
          5    1    3    3  502    0 -0.51504129289E+02 -0.64202032586E+01 -0.24850954922E+02  0.57696938430E+02  0.41800000000E+01 0. -1.
         -5    1    3    3    0  502  0.22903375046E+02 -0.99186133638E+02 -0.17213730859E+03  0.20002794580E+03  0.41800000000E+01 0. -1.
        -11    1    1    2    0    0  0.48892877305E+02  0.53198675326E+02 -0.44068072623E+02  0.84632189694E+02  0.00000000000E+00 0.  1.
         11    1    1    2    0    0 -0.20292123062E+02  0.52407661570E+02 -0.49207880124E+02  0.74697715600E+02  0.00000000000E+00 0. -1.
</event>
<event>
 7    1  0.1068210E-005  0.1088101E+03  0.7561462E-02  0.1262789E+00
          2   -1    0    0  501    0  0.00000000000E+00  0.00000000000E+00  0.11305350866E+03  0.11305350866E+03  0.00000000000E+00 0. -1.
         -2   -1    0    0    0  501 -0.00000000000E+00 -0.00000000000E+00 -0.15343288550E+03  0.15343288550E+03  0.00000000000E+00 0.  1.
         23    2    1    2    0    0  0.18991409677E+02  0.49336015486E+02 -0.76498746700E+02  0.15587094745E+03  0.12509587501E+03 0.  0.
          5    1    3    3  502    0  0.63185154325E+02  0.51473598274E+02 -0.75867988972E+02  0.11142405125E+03  0.41800000000E+01 0. -1.
         -5    1    3    3    0  502 -0.44193744648E+02 -0.21375827886E+01 -0.63075772763E+00  0.44446896196E+02  0.41800000000E+01 0. -1.
        -11    1    1    2    0    0 -0.40596178071E+02 -0.33131187601E+01 -0.10034737833E+02  0.41949045201E+02  0.00000000000E+00 0.  1.
         11    1    1    2    0    0  0.21604768394E+02 -0.46022896726E+02  0.46154107688E+02  0.68666401514E+02  0.00000000000E+00 0. -1.
</event>
<event>
 7    1  0.1068210E-005  0.9546920E+02  0.7561462E-02  0.1290123E+00
         -2   -1    0    0    0  501 -0.00000000000E+00  0.00000000000E+00  0.81951072565E+02  0.81951072565E+02  0.00000000000E+00 0.  1.
          2   -1    0    0  501    0  0.00000000000E+00 -0.00000000000E+00 -0.15557376170E+03  0.15557376170E+03  0.00000000000E+00 0. -1.
         23    2    1    2    0    0 -0.80165631717E+01 -0.28714444962E+02 -0.23592128147E+02  0.13073772577E+03  0.12508788828E+03 0.  0.
          5    1    3    3  502    0 -0.60839437284E+02 -0.28483293021E+02  0.99308167578E+01  0.68035495382E+02  0.41800000000E+01 0. -1.
         -5    1    3    3    0  502  0.52822874113E+02 -0.23115194012E+00 -0.33522944905E+02  0.62702230390E+02  0.41800000000E+01 0. -1.
        -11    1    1    2    0    0 -0.20154833185E+02  0.36254406140E+02 -0.62547122054E+02  0.75051593871E+02  0.00000000000E+00 0. -1.
         11    1    1    2    0    0  0.28171396357E+02 -0.75399611785E+01  0.12516561069E+02  0.31735514621E+02  0.00000000000E+00 0.  1.
</event>
<event>
 7    1  0.1068210E-005  0.8693713E+02  0.7561462E-02  0.1310443E+00
          1   -1    0    0  501    0  0.00000000000E+00  0.00000000000E+00  0.10775100059E+03  0.10775100059E+03  0.00000000000E+00 0. -1.
         -1   -1    0    0    0  501 -0.00000000000E+00 -0.00000000000E+00 -0.12985440947E+03  0.12985440947E+03  0.00000000000E+00 0.  1.
         23    2    1    2    0    0  0.90923145611E+01 -0.43515037334E+02 -0.27370370901E+02  0.13555171666E+03  0.12509557158E+03 0.  0.
          5    1    3    3  502    0  0.52572978064E+02  0.10410303610E+01 -0.46468801593E+02  0.70298105865E+02  0.41800000000E+01 0.  1.
         -5    1    3    3    0  502 -0.43480663503E+02 -0.44556067695E+02  0.19098430693E+02  0.65253610797E+02  0.41800000000E+01 0.  1.
        -11    1    1    2    0    0  0.15078701303E+02  0.19570558714E+02  0.44023403317E+02  0.50482017006E+02  0.00000000000E+00 0. -1.
         11    1    1    2    0    0 -0.24171015864E+02  0.23944478620E+02 -0.38756441295E+02  0.51571676394E+02  0.00000000000E+00 0.  1.
</event>
<event>
 7    1  0.1068210E-005  0.1079570E+03  0.7561462E-02  0.1264401E+00
          1   -1    0    0  501    0  0.00000000000E+00  0.00000000000E+00  0.16553059672E+03  0.16553059672E+03  0.00000000000E+00 0. -1.
         -1   -1    0    0    0  501 -0.00000000000E+00 -0.00000000000E+00 -0.10423418351E+03  0.10423418351E+03  0.00000000000E+00 0.  1.
         23    2    1    2    0    0  0.51671457191E+02 -0.26582388410E+02 -0.15406386283E+02  0.13878456608E+03  0.12508891311E+03 0.  0.
          5    1    3    3  502    0 -0.24163828306E+02  0.10786362474E+02 -0.42212247465E+02  0.49995824324E+02  0.41800000000E+01 0.  1.
         -5    1    3    3    0  502  0.75835285497E+02 -0.37368750885E+02  0.26805861181E+02  0.88788741757E+02  0.41800000000E+01 0.  1.
        -11    1    1    2    0    0 -0.43184661196E+02 -0.26536073370E+02  0.48893651833E+02  0.70424905695E+02  0.00000000000E+00 0. -1.
         11    1    1    2    0    0 -0.84867959956E+01  0.53118461781E+02  0.27809147658E+02  0.60555308452E+02  0.00000000000E+00 0.  1.
</event>
<event>
 7    1  0.1068210E-005  0.1483644E+03  0.7561462E-02  0.1202497E+00
          2   -1    0    0  501    0  0.00000000000E+00  0.00000000000E+00  0.10733149112E+04  0.10733149112E+04  0.00000000000E+00 0. -1.
         -2   -1    0    0    0  501 -0.00000000000E+00 -0.00000000000E+00 -0.23948375820E+02  0.23948375820E+02  0.00000000000E+00 0.  1.
         23    2    1    2    0    0  0.11527684447E+03 -0.22903746011E+01  0.48673340162E+03  0.51560690409E+03  0.12508828323E+03 0.  0.
          5    1    3    3  502    0  0.10831629739E+02  0.42901477616E+02  0.64811341380E+02  0.78586534189E+02  0.41800000000E+01 0. -1.
         -5    1    3    3    0  502  0.10444521473E+03 -0.45191852217E+02  0.42192206024E+03  0.43702036990E+03  0.41800000000E+01 0. -1.
        -11    1    1    2    0    0 -0.65344345286E+02  0.39299569602E+02  0.20624713321E+03  0.21989138135E+03  0.00000000000E+00 0.  1.
         11    1    1    2    0    0 -0.49932499182E+02 -0.37009195001E+02  0.35638600055E+03  0.36176500159E+03  0.00000000000E+00 0. -1.
</event>
<event>
 7    1  0.1068210E-005  0.1336159E+03  0.7561462E-02  0.1222187E+00
         -1   -1    0    0    0  501 -0.00000000000E+00  0.00000000000E+00  0.62620935746E+02  0.62620935746E+02  0.00000000000E+00 0.  1.
          1   -1    0    0  501    0  0.00000000000E+00 -0.00000000000E+00 -0.47895600421E+03  0.47895600421E+03  0.00000000000E+00 0. -1.
         23    2    1    2    0    0 -0.42592598511E+02  0.99609352392E+02 -0.11828719082E+03  0.20340759398E+03  0.12508651903E+03 0.  0.
          5    1    3    3  502    0 -0.17030312482E+02  0.90382564914E+02 -0.14055571521E+03  0.16802506082E+03  0.41800000000E+01 0. -1.
         -5    1    3    3    0  502 -0.25562286029E+02  0.92267874778E+01  0.22268524393E+02  0.35382533161E+02  0.41800000000E+01 0. -1.
        -11    1    1    2    0    0  0.73030535220E+02 -0.89672809449E+02 -0.27612229541E+03  0.29936298010E+03  0.00000000000E+00 0. -1.
         11    1    1    2    0    0 -0.30437936708E+02 -0.99365429430E+01 -0.21925582235E+02  0.38806365883E+02  0.00000000000E+00 0.  1.
</event>
<event>
 7    1  0.1068210E-005  0.1440454E+03  0.7561462E-02  0.1207987E+00
         -2   -1    0    0    0  501 -0.00000000000E+00  0.00000000000E+00  0.24973729215E+03  0.24973729215E+03  0.00000000000E+00 0.  1.
          2   -1    0    0  501    0  0.00000000000E+00 -0.00000000000E+00 -0.11598014052E+03  0.11598014052E+03  0.00000000000E+00 0. -1.
         23    2    1    2    0    0  0.73316378672E+02  0.68752646420E+02  0.16045943586E+03  0.22692435820E+03  0.12508083794E+03 0.  0.
          5    1    3    3  502    0  0.61930750210E+02 -0.24115054675E+02  0.60965312327E+02  0.90283970840E+02  0.41800000000E+01 0.  1.
         -5    1    3    3    0  502  0.11385628462E+02  0.92867701095E+02  0.99494123530E+02  0.13664038736E+03  0.41800000000E+01 0.  1.
        -11    1    1    2    0    0  0.74331666834E+01 -0.42185391500E+02  0.13287732425E+02  0.44848891357E+02  0.00000000000E+00 0.  1.
         11    1    1    2    0    0 -0.80749545356E+02 -0.26567254920E+02 -0.39990016649E+02  0.93944183113E+02  0.00000000000E+00 0. -1.
</event>
<event>
 7    1  0.1068210E-005  0.1415063E+03  0.7561462E-02  0.1211316E+00
          1   -1    0    0  501    0  0.00000000000E+00  0.00000000000E+00  0.17809694476E+03  0.17809694476E+03  0.00000000000E+00 0. -1.
         -1   -1    0    0    0  501 -0.00000000000E+00 -0.00000000000E+00 -0.13065582765E+03  0.13065582765E+03  0.00000000000E+00 0.  1.
         23    2    1    2    0    0 -0.47985739367E+02  0.87476410688E+02 -0.15059179606E+02  0.16071543264E+03  0.12509163756E+03 0.  0.
          5    1    3    3  502    0 -0.78390272057E+02  0.30591451122E+02 -0.37601043734E+02  0.92261489934E+02  0.41800000000E+01 0. -1.
         -5    1    3    3    0  502  0.30404532690E+02  0.56884959566E+02  0.22541864129E+02  0.68453942701E+02  0.41800000000E+01 0. -1.
        -11    1    1    2    0    0  0.53838090100E+02 -0.79950478543E+01  0.22992763368E+02  0.59085767348E+02  0.00000000000E+00 0.  1.
         11    1    1    2    0    0 -0.58523507333E+01 -0.79481362834E+02  0.39507533347E+02  0.88951572432E+02  0.00000000000E+00 0. -1.
</event>
<event>
 7    1  0.1068210E-005  0.9942998E+02  0.7561462E-02  0.1281499E+00
         -2   -1    0    0    0  501 -0.00000000000E+00  0.00000000000E+00  0.49722795286E+02  0.49722795286E+02  0.00000000000E+00 0.  1.
          2   -1    0    0  501    0  0.00000000000E+00 -0.00000000000E+00 -0.37017757345E+03  0.37017757345E+03  0.00000000000E+00 0. -1.
         23    2    1    2    0    0  0.99676877400E+01 -0.38155309997E+02 -0.65627120711E+02  0.14666450843E+03  0.12509347138E+03 0.  0.
          5    1    3    3  502    0  0.23880539222E+02  0.28061970414E+02 -0.69486189345E+02  0.78762664040E+02  0.41800000000E+01 0. -1.
         -5    1    3    3    0  502 -0.13912851483E+02 -0.66217280411E+02  0.38590686344E+01  0.67901844394E+02  0.41800000000E+01 0. -1.
        -11    1    1    2    0    0 -0.11592233386E+02 -0.26700139427E+02 -0.44878521966E+02  0.53491672755E+02  0.00000000000E+00 0.  1.
         11    1    1    2    0    0  0.16245456460E+01  0.64855449424E+02 -0.20994913549E+03  0.21974418755E+03  0.00000000000E+00 0. -1.
</event>
<event>
 7    1  0.1068210E-005  0.1381467E+03  0.7561462E-02  0.1215845E+00
         -1   -1    0    0    0  501 -0.00000000000E+00  0.00000000000E+00  0.16578818799E+02  0.16578818799E+02  0.00000000000E+00 0.  1.
          1   -1    0    0  501    0  0.00000000000E+00 -0.00000000000E+00 -0.12169632078E+04  0.12169632078E+04  0.00000000000E+00 0. -1.
         23    2    1    2    0    0  0.79105728337E+02 -0.30566346292E+02 -0.79247071194E+03  0.80675234695E+03  0.12508997655E+03 0.  0.
          5    1    3    3  502    0  0.80609442955E+02  0.33063708927E+02 -0.47322599154E+03  0.48119788301E+03  0.41800000000E+01 0. -1.
         -5    1    3    3    0  502 -0.15037146179E+01 -0.63630055218E+02 -0.31924472040E+03  0.32555446394E+03  0.41800000000E+01 0. -1.
        -11    1    1    2    0    0 -0.23209727585E+02  0.58396869673E+02 -0.21782149377E+03  0.22670484995E+03  0.00000000000E+00 0.  1.
         11    1    1    2    0    0 -0.55896000752E+02 -0.27830523381E+02 -0.19009218332E+03  0.20008482974E+03  0.00000000000E+00 0. -1.
</event>
<event>
 7    1  0.1068210E-005  0.9819854E+02  0.7561462E-02  0.1284130E+00
          4   -1    0    0  501    0  0.00000000000E+00  0.00000000000E+00  0.48811856536E+03  0.48811856536E+03  0.00000000000E+00 0. -1.
         -4   -1    0    0    0  501 -0.00000000000E+00 -0.00000000000E+00 -0.30988926038E+02  0.30988926038E+02  0.00000000000E+00 0.  1.
         23    2    1    2    0    0 -0.57775361720E+02  0.97756390362E+01  0.25351072530E+03  0.28870015598E+03  0.12508611705E+03 0.  0.
          5    1    3    3  502    0 -0.25386382934E+02  0.38824449811E+02  0.23770111351E+03  0.24222117601E+03  0.41800000000E+01 0. -1.
         -5    1    3    3    0  502 -0.32388978786E+02 -0.29048810775E+02  0.15809611788E+02  0.46478979971E+02  0.41800000000E+01 0. -1.
        -11    1    1    2    0    0 -0.14326508782E+02 -0.28256882057E+02  0.80868273910E+02  0.86852622083E+02  0.00000000000E+00 0. -1.
         11    1    1    2    0    0  0.72101870502E+02  0.18481243020E+02  0.12275064011E+03  0.14355471334E+03  0.00000000000E+00 0.  1.
</event>
<event>
 7    1  0.1319891E-005  0.1343505E+03  0.7561462E-02  0.1221140E+00
         -1   -1    0    0    0  501 -0.00000000000E+00  0.00000000000E+00  0.50006257965E+02  0.50006257965E+02  0.00000000000E+00 0.  1.
          1   -1    0    0  501    0  0.00000000000E+00 -0.00000000000E+00 -0.42531887769E+03  0.42531887769E+03  0.00000000000E+00 0. -1.
         23    2    1    2    0    0  0.42279742178E+02 -0.78745586740E+02 -0.14519123367E+03  0.21146236034E+03  0.12508953384E+03 0.  0.
          5    1    3    3  502    0  0.26586401785E+01 -0.97402196382E+02 -0.57143537649E+02  0.11303589042E+03  0.41800000000E+01 0.  1.
         -5    1    3    3    0  502  0.39621102000E+02  0.18656609642E+02 -0.88047696018E+02  0.98426469921E+02  0.41800000000E+01 0.  1.
        -11    1    1    2    0    0 -0.53791463359E+02  0.66845017704E+01 -0.76133930937E+02  0.93458972464E+02  0.00000000000E+00 0.  1.
         11    1    1    2    0    0  0.11511721181E+02  0.72061084970E+02 -0.15398745512E+03  0.17040380285E+03  0.00000000000E+00 0. -1.
</event>
<event>
 7    1  0.1068210E-005  0.1170855E+03  0.7561462E-02  0.1247984E+00
         -2   -1    0    0    0  501 -0.00000000000E+00  0.00000000000E+00  0.42712568675E+02  0.42712568675E+02  0.00000000000E+00 0.  1.
          2   -1    0    0  501    0  0.00000000000E+00 -0.00000000000E+00 -0.61858976937E+03  0.61858976937E+03  0.00000000000E+00 0. -1.
         23    2    1    2    0    0 -0.87121069555E+02 -0.86520139141E+01 -0.13794810211E+03  0.20576897729E+03  0.12508499124E+03 0.  0.
          5    1    3    3  502    0  0.13517233660E+02 -0.12801354904E+02  0.13827616190E+02  0.23564075681E+02  0.41800000000E+01 0.  1.
         -5    1    3    3    0  502 -0.10063830321E+03  0.41493409903E+01 -0.15177571830E+03  0.18220490161E+03  0.41800000000E+01 0.  1.
        -11    1    1    2    0    0  0.45186508041E+02  0.41236348121E+02 -0.13817264853E+03  0.15110902593E+03  0.00000000000E+00 0.  1.
         11    1    1    2    0    0  0.41934561514E+02 -0.32584334207E+02 -0.29975645006E+03  0.30442433483E+03  0.00000000000E+00 0. -1.
</event>
<event>
 7    1  0.1068210E-005  0.9302610E+02  0.7561462E-02  0.1295685E+00
         -1   -1    0    0    0  501 -0.00000000000E+00  0.00000000000E+00  0.35393482196E+02  0.35393482196E+02  0.00000000000E+00 0.  1.
          1   -1    0    0  501    0  0.00000000000E+00 -0.00000000000E+00 -0.55049519511E+03  0.55049519511E+03  0.00000000000E+00 0. -1.
         23    2    1    2    0    0 -0.75400992680E+01 -0.87251495217E+02 -0.28883700236E+03  0.32671577119E+03  0.12508678866E+03 0.  0.
          5    1    3    3  502    0  0.60550190027E+01 -0.39345688152E+00 -0.20509638516E+03  0.20522869602E+03  0.41800000000E+01 0. -1.
         -5    1    3    3    0  502 -0.13595118271E+02 -0.86858038335E+02 -0.83740617197E+02  0.12148707517E+03  0.41800000000E+01 0. -1.
        -11    1    1    2    0    0  0.15716073360E+02  0.67231701154E+02 -0.22726828862E+03  0.23752467580E+03  0.00000000000E+00 0. -1.
         11    1    1    2    0    0 -0.81759740919E+01  0.20019794063E+02  0.10035780712E+01  0.21648230311E+02  0.00000000000E+00 0.  1.
</event>
<event>
 7    1  0.1068210E-005  0.1314483E+03  0.7561462E-02  0.1225322E+00
         -2   -1    0    0    0  501 -0.00000000000E+00  0.00000000000E+00  0.10544272542E+03  0.10544272542E+03  0.00000000000E+00 0.  1.
          2   -1    0    0  501    0  0.00000000000E+00 -0.00000000000E+00 -0.16739133566E+03  0.16739133566E+03  0.00000000000E+00 0. -1.
         23    2    1    2    0    0 -0.74967060248E+02 -0.98427474515E+01 -0.20195740333E+02  0.14756212162E+03  0.12509904879E+03 0.  0.
          5    1    3    3  502    0 -0.10966864934E+03 -0.82991188062E+01 -0.23084863106E+02  0.11245653082E+03  0.41800000000E+01 0.  1.
         -5    1    3    3    0  502  0.34701589087E+02 -0.15436286453E+01  0.28891227726E+01  0.35105590793E+02  0.41800000000E+01 0.  1.
        -11    1    1    2    0    0 -0.49313386722E+01  0.34017353443E+02 -0.15998706180E+02  0.37913810621E+02  0.00000000000E+00 0. -1.
         11    1    1    2    0    0  0.79898398920E+02 -0.24174605991E+02 -0.25754163726E+02  0.87358128838E+02  0.00000000000E+00 0.  1.
</event>
<event>
 7    1  0.1068210E-005  0.1419519E+03  0.7561462E-02  0.1210726E+00
         -2   -1    0    0    0  501 -0.00000000000E+00  0.00000000000E+00  0.71029796693E+02  0.71029796693E+02  0.00000000000E+00 0. -1.
          2   -1    0    0  501    0  0.00000000000E+00 -0.00000000000E+00 -0.41399996590E+03  0.41399996590E+03  0.00000000000E+00 0.  1.
         23    2    1    2    0    0  0.84667096712E+02 -0.94824496903E+02 -0.13027569930E+03  0.22086240326E+03  0.12509292894E+03 0.  0.
          5    1    3    3  502    0  0.22237145931E+02 -0.22575508439E+02 -0.12063879774E+03  0.12480118653E+03  0.41800000000E+01 0.  1.
         -5    1    3    3    0  502  0.62429950781E+02 -0.72248988464E+02 -0.96369015608E+01  0.96061216733E+02  0.41800000000E+01 0.  1.
        -11    1    1    2    0    0 -0.10426469422E+03  0.84542903779E+02 -0.18805334350E+03  0.23104694121E+03  0.00000000000E+00 0. -1.
         11    1    1    2    0    0  0.19597597513E+02  0.10281593124E+02 -0.24641126407E+02  0.33120418114E+02  0.00000000000E+00 0.  1.
</event>
<event>
 7    1  0.1068210E-005  0.1105048E+03  0.7561462E-02  0.1259638E+00
          2   -1    0    0  501    0  0.00000000000E+00  0.00000000000E+00  0.47689622933E+03  0.47689622933E+03  0.00000000000E+00 0. -1.
         -2   -1    0    0    0  501 -0.00000000000E+00 -0.00000000000E+00 -0.31466292384E+02  0.31466292384E+02  0.00000000000E+00 0.  1.
         23    2    1    2    0    0  0.41593147666E+02  0.31551615784E+02  0.20243273843E+03  0.24362189722E+03  0.12508845201E+03 0.  0.
          5    1    3    3  502    0 -0.40809911375E+02  0.19435718128E+02  0.37798153013E+02  0.59070879262E+02  0.41800000000E+01 0.  1.
         -5    1    3    3    0  502  0.82403059041E+02  0.12115897657E+02  0.16463458542E+03  0.18455101796E+03  0.41800000000E+01 0.  1.
        -11    1    1    2    0    0  0.78404261938E+01  0.19585577337E+02  0.14942732103E+02  0.25852511778E+02  0.00000000000E+00 0.  1.
         11    1    1    2    0    0 -0.49433573860E+02 -0.51137193121E+02  0.22805446641E+03  0.23888811271E+03  0.00000000000E+00 0. -1.
</event>
<event>
 7    1  0.1068210E-005  0.1118891E+03  0.7561462E-02  0.1257111E+00
         -1   -1    0    0    0  501 -0.00000000000E+00  0.00000000000E+00  0.74410730753E+02  0.74410730753E+02  0.00000000000E+00 0.  1.
          1   -1    0    0  501    0  0.00000000000E+00 -0.00000000000E+00 -0.22282507328E+03  0.22282507328E+03  0.00000000000E+00 0. -1.
         23    2    1    2    0    0 -0.33987453310E+02  0.24906703849E+02 -0.18169290044E+02  0.13323756211E+03  0.12508650597E+03 0.  0.
          5    1    3    3  502    0 -0.50957367926E+01  0.74264773020E+02 -0.78099626936E+01  0.74964598061E+02  0.41800000000E+01 0.  1.
         -5    1    3    3    0  502 -0.28891716518E+02 -0.49358069170E+02 -0.10359327350E+02  0.58272964046E+02  0.41800000000E+01 0.  1.
        -11    1    1    2    0    0 -0.24633603771E+02  0.63560986252E+01 -0.11472821922E+02  0.27907706236E+02  0.00000000000E+00 0.  1.
         11    1    1    2    0    0  0.58621057081E+02 -0.31262802474E+02 -0.11877223056E+03  0.13609053569E+03  0.00000000000E+00 0. -1.
</event>
<event>
 7    1  0.1068210E-005  0.9580425E+02  0.7561462E-02  0.1289375E+00
          2   -1    0    0  501    0  0.00000000000E+00  0.00000000000E+00  0.86398424129E+02  0.86398424129E+02  0.00000000000E+00 0. -1.
         -2   -1    0    0    0  501 -0.00000000000E+00 -0.00000000000E+00 -0.15850866806E+03  0.15850866806E+03  0.00000000000E+00 0.  1.
         23    2    1    2    0    0 -0.27544866964E+02 -0.23620168507E+02 -0.67590126099E+02  0.14674550613E+03  0.12509670806E+03 0.  0.
          5    1    3    3  502    0 -0.64997287001E+02 -0.75112733425E+01 -0.80458860643E+02  0.10378905145E+03  0.41800000000E+01 0.  1.
         -5    1    3    3    0  502  0.37452420038E+02 -0.16108895165E+02  0.12868734544E+02  0.42956454682E+02  0.41800000000E+01 0.  1.
        -11    1    1    2    0    0  0.13777402358E+02  0.51852359732E+02  0.21076229103E+02  0.57642791906E+02  0.00000000000E+00 0. -1.
         11    1    1    2    0    0  0.13767464606E+02 -0.28232191225E+02 -0.25596346938E+02  0.40518794154E+02  0.00000000000E+00 0.  1.
</event>
<event>
 7    1  0.1068210E-005  0.1603043E+03  0.7561462E-02  0.1188354E+00
          3   -1    0    0  501    0  0.00000000000E+00  0.00000000000E+00  0.40776054366E+03  0.40776054366E+03  0.00000000000E+00 0. -1.
         -3   -1    0    0    0  501 -0.00000000000E+00 -0.00000000000E+00 -0.10417240230E+03  0.10417240230E+03  0.00000000000E+00 0.  1.
         23    2    1    2    0    0 -0.64701036276E+02 -0.12642535881E+03  0.31711462451E+02  0.19189140324E+03  0.12508836213E+03 0.  0.
          5    1    3    3  502    0 -0.36592101149E+02  0.36256481970E+01  0.44824129942E+02  0.58127465250E+02  0.41800000000E+01 0. -1.
         -5    1    3    3    0  502 -0.28108935127E+02 -0.13005100701E+03 -0.13112667491E+02  0.13376393799E+03  0.41800000000E+01 0. -1.
        -11    1    1    2    0    0  0.58947487189E+02  0.61090459118E+02  0.22189482507E+03  0.23757980519E+03  0.00000000000E+00 0.  1.
         11    1    1    2    0    0  0.57535490870E+01  0.65334899691E+02  0.49981853843E+02  0.82461737541E+02  0.00000000000E+00 0. -1.
</event>
<event>
 7    1  0.1068210E-005  0.1214060E+03  0.7561462E-02  0.1240796E+00
         -2   -1    0    0    0  501 -0.00000000000E+00  0.00000000000E+00  0.22319078649E+02  0.22319078649E+02  0.00000000000E+00 0.  1.
          2   -1    0    0  501    0  0.00000000000E+00 -0.00000000000E+00 -0.85053111207E+03  0.85053111207E+03  0.00000000000E+00 0. -1.
         23    2    1    2    0    0  0.57432506729E+02  0.58212694983E+02 -0.52357152037E+03  0.54448269591E+03  0.12508820297E+03 0.  0.
          5    1    3    3  502    0  0.47447601082E+02  0.81779320424E+02 -0.21604310262E+03  0.23586272848E+03  0.41800000000E+01 0.  1.
         -5    1    3    3    0  502  0.99849056471E+01 -0.23566625441E+02 -0.30752841774E+03  0.30861996743E+03  0.41800000000E+01 0.  1.
        -11    1    1    2    0    0 -0.24043378284E+02  0.23713525479E+02 -0.95031626424E+02  0.10085348457E+03  0.00000000000E+00 0. -1.
         11    1    1    2    0    0 -0.33389128445E+02 -0.81926220462E+02 -0.20960888663E+03  0.22751401023E+03  0.00000000000E+00 0.  1.
</event>
<event>
 7    1  0.1068210E-005  0.1061495E+03  0.7561462E-02  0.1267871E+00
         -2   -1    0    0    0  501 -0.00000000000E+00  0.00000000000E+00  0.10231038688E+03  0.10231038688E+03  0.00000000000E+00 0. -1.
          2   -1    0    0  501    0  0.00000000000E+00 -0.00000000000E+00 -0.18831263916E+03  0.18831263916E+03  0.00000000000E+00 0.  1.
         23    2    1    2    0    0 -0.42475521107E+02  0.19733850850E+02  0.28561852978E+02  0.13663708314E+03  0.12514119338E+03 0.  0.
          5    1    3    3  502    0  0.33842739553E+02  0.54734521979E+01 -0.24640679104E+02  0.42425524936E+02  0.41800000000E+01 0. -1.
         -5    1    3    3    0  502 -0.76318260660E+02  0.14260398652E+02  0.53202532083E+02  0.94211558208E+02  0.41800000000E+01 0. -1.
        -11    1    1    2    0    0 -0.15471551118E+02 -0.36536289284E+02 -0.63827097690E+02  0.75154292813E+02  0.00000000000E+00 0.  1.
         11    1    1    2    0    0  0.57947072225E+02  0.16802438434E+02 -0.50737007566E+02  0.78831650075E+02  0.00000000000E+00 0. -1.
</event>
<event>
 7    1  0.1068210E-005  0.1517561E+03  0.7561462E-02  0.1198332E+00
         -1   -1    0    0    0  501 -0.00000000000E+00  0.00000000000E+00  0.10171064004E+03  0.10171064004E+03  0.00000000000E+00 0.  1.
          1   -1    0    0  501    0  0.00000000000E+00 -0.00000000000E+00 -0.25493810877E+03  0.25493810877E+03  0.00000000000E+00 0. -1.
         23    2    1    2    0    0 -0.58911699935E+02 -0.10252935602E+03 -0.88113351394E+02  0.19337586971E+03  0.12508959611E+03 0.  0.
          5    1    3    3  502    0 -0.23332040158E+02 -0.11861150253E+03 -0.94623495787E+02  0.15357132215E+03  0.41800000000E+01 0.  1.
         -5    1    3    3    0  502 -0.35579659777E+02  0.16082146511E+02  0.65101443929E+01  0.39804547557E+02  0.41800000000E+01 0.  1.
        -11    1    1    2    0    0  0.37998326637E+01  0.85527649709E+02 -0.15101114771E+02  0.86933660111E+02  0.00000000000E+00 0. -1.
         11    1    1    2    0    0  0.55111867272E+02  0.17001706315E+02 -0.50013002567E+02  0.76339219000E+02  0.00000000000E+00 0.  1.
</event>
<event>
 7    1  0.1068210E-005  0.1061964E+03  0.7561462E-02  0.1267780E+00
          1   -1    0    0  501    0  0.00000000000E+00  0.00000000000E+00  0.18853486953E+03  0.18853486953E+03  0.00000000000E+00 0. -1.
         -1   -1    0    0    0  501 -0.00000000000E+00 -0.00000000000E+00 -0.87870973832E+02  0.87870973832E+02  0.00000000000E+00 0.  1.
         23    2    1    2    0    0  0.68762940363E+02 -0.62802188965E+01  0.32846360278E+02  0.14660713060E+03  0.12508790606E+03 0.  0.
          5    1    3    3  502    0  0.72297955987E+02 -0.44285090171E+02 -0.14002942758E+02  0.86033240421E+02  0.41800000000E+01 0.  1.
         -5    1    3    3    0  502 -0.35350156247E+01  0.38004871274E+02  0.46849303036E+02  0.60573890176E+02  0.41800000000E+01 0.  1.
        -11    1    1    2    0    0 -0.96406089523E+01 -0.21666758626E+02  0.59281748283E+02  0.63849161700E+02  0.00000000000E+00 0. -1.
         11    1    1    2    0    0 -0.59122331411E+02  0.27946977522E+02  0.85357871390E+01  0.65949551068E+02  0.00000000000E+00 0.  1.
</event>
<event>
 7    1  0.1068210E-005  0.1330416E+03  0.7561462E-02  0.1223011E+00
         -1   -1    0    0    0  501 -0.00000000000E+00  0.00000000000E+00  0.12508942259E+03  0.12508942259E+03  0.00000000000E+00 0. -1.
          1   -1    0    0  501    0  0.00000000000E+00 -0.00000000000E+00 -0.19885652083E+03  0.19885652083E+03  0.00000000000E+00 0.  1.
         23    2    1    2    0    0 -0.56320169512E+02  0.92139459021E+02 -0.19759458543E+01  0.16527312321E+03  0.12509859907E+03 0.  0.
          5    1    3    3  502    0 -0.88585967668E+02  0.84440257443E+02 -0.24603721472E+02  0.12490174641E+03  0.41800000000E+01 0.  1.
         -5    1    3    3    0  502  0.32265798156E+02  0.76992015776E+01  0.22627775618E+02  0.40371376803E+02  0.41800000000E+01 0.  1.
        -11    1    1    2    0    0  0.13175872289E+02 -0.42151051913E+02 -0.80748154770E+02  0.92035750047E+02  0.00000000000E+00 0.  1.
         11    1    1    2    0    0  0.43144297223E+02 -0.49988407108E+02  0.89570023864E+01  0.66637070163E+02  0.00000000000E+00 0. -1.
</event>
<event>
 6    1  0.1068210E-005  0.2475787E+03  0.7561462E-02  0.1114845E+00
         -1   -1    0    0    0  501 -0.00000000000E+00  0.00000000000E+00  0.11038698558E+04  0.11038698558E+04  0.00000000000E+00 0.  1.
          1   -1    0    0  501    0  0.00000000000E+00 -0.00000000000E+00 -0.91218442885E+02  0.91218442885E+02  0.00000000000E+00 0. -1.
          5    1    1    2  502    0  0.18432048145E+02 -0.11288093316E+03  0.21587190554E+03  0.24433582928E+03  0.41800000000E+01 0. -1.
         -5    1    1    2    0  502 -0.17840380469E+03  0.85580732593E+02  0.72453941410E+03  0.75108375984E+03  0.41800000000E+01 0.  1.
        -11    1    1    2    0    0  0.17157854009E+02 -0.25326014379E+02  0.27221401567E+02  0.40948793167E+02  0.00000000000E+00 0.  1.
         11    1    1    2    0    0  0.14281390253E+03  0.52626214942E+02  0.45018691708E+02  0.15871991639E+03  0.00000000000E+00 0. -1.
</event>
<event>
 7    1  0.1068210E-005  0.8827782E+02  0.7561462E-02  0.1307077E+00
         -2   -1    0    0    0  501 -0.00000000000E+00  0.00000000000E+00  0.19130290071E+03  0.19130290071E+03  0.00000000000E+00 0. -1.
          2   -1    0    0  501    0  0.00000000000E+00 -0.00000000000E+00 -0.14364874683E+03  0.14364874683E+03  0.00000000000E+00 0.  1.
         23    2    1    2    0    0 -0.96936455940E+01  0.72989678907E+02  0.13025211666E+03  0.19502728858E+03  0.12509424210E+03 0.  0.
          5    1    3    3  502    0 -0.23012166527E+02  0.48118353997E+02  0.15071212890E+03  0.15992671446E+03  0.41800000000E+01 0.  1.
         -5    1    3    3    0  502  0.13318520933E+02  0.24871324910E+02 -0.20460012246E+02  0.35100574122E+02  0.41800000000E+01 0.  1.
        -11    1    1    2    0    0 -0.22749877314E+02 -0.12664823955E+02 -0.63780881854E+02  0.68890896160E+02  0.00000000000E+00 0.  1.
         11    1    1    2    0    0  0.32443522908E+02 -0.60324854952E+02 -0.18817080921E+02  0.71033462805E+02  0.00000000000E+00 0. -1.
</event>
<event>
 7    1  0.1068210E-005  0.1101123E+03  0.7561462E-02  0.1260362E+00
         -1   -1    0    0    0  501 -0.00000000000E+00  0.00000000000E+00  0.54226800023E+03  0.54226800023E+03  0.00000000000E+00 0.  1.
          1   -1    0    0  501    0  0.00000000000E+00 -0.00000000000E+00 -0.34316421799E+02  0.34316421799E+02  0.00000000000E+00 0. -1.
         23    2    1    2    0    0  0.19586794634E+02 -0.78071396789E+02  0.24362781436E+03  0.28544813564E+03  0.12508933082E+03 0.  0.
          5    1    3    3  502    0 -0.38925226531E+02 -0.48177914530E+02  0.46347704752E+02  0.77471716418E+02  0.41800000000E+01 0.  1.
         -5    1    3    3    0  502  0.58512021165E+02 -0.29893482259E+02  0.19728010961E+03  0.20797641922E+03  0.41800000000E+01 0.  1.
        -11    1    1    2    0    0 -0.30400154621E+01  0.75500600714E+02  0.26377235081E+03  0.27438191532E+03  0.00000000000E+00 0.  1.
         11    1    1    2    0    0 -0.16546779172E+02  0.25707960752E+01  0.55141325389E+00  0.16754371071E+02  0.00000000000E+00 0. -1.
</event>
<event>
 7    1  0.1068210E-005  0.1184784E+03  0.7561462E-02  0.1245629E+00
         -1   -1    0    0    0  501 -0.00000000000E+00  0.00000000000E+00  0.65208343967E+02  0.65208343967E+02  0.00000000000E+00 0.  1.
          1   -1    0    0  501    0  0.00000000000E+00 -0.00000000000E+00 -0.30363181154E+03  0.30363181154E+03  0.00000000000E+00 0. -1.
         23    2    1    2    0    0  0.74263752822E+02 -0.29467273387E+02 -0.75445578112E+02  0.16650280962E+03  0.12509086766E+03 0.  0.
          5    1    3    3  502    0  0.94307376835E+02 -0.59552351367E+02 -0.62199850603E+02  0.12777581028E+03  0.41800000000E+01 0.  1.
         -5    1    3    3    0  502 -0.20043624013E+02  0.30085077980E+02 -0.13245727509E+02  0.38726999340E+02  0.41800000000E+01 0.  1.
        -11    1    1    2    0    0 -0.27465023493E+02 -0.84322875232E+01 -0.15047581198E+00  0.28730708855E+02  0.00000000000E+00 0.  1.
         11    1    1    2    0    0 -0.46798729328E+02  0.37899560910E+02 -0.16282741365E+03  0.17360663703E+03  0.00000000000E+00 0. -1.
</event>
<event>
 7    1  0.1068210E-005  0.1210422E+03  0.7561462E-02  0.1241388E+00
         -1   -1    0    0    0  501 -0.00000000000E+00  0.00000000000E+00  0.89217325376E+02  0.89217325376E+02  0.00000000000E+00 0.  1.
          1   -1    0    0  501    0  0.00000000000E+00 -0.00000000000E+00 -0.19796191558E+03  0.19796191558E+03  0.00000000000E+00 0. -1.
         23    2    1    2    0    0 -0.51592571589E+02 -0.40257491822E+02 -0.18905143985E+02  0.14244529738E+03  0.12510315418E+03 0.  0.
          5    1    3    3  502    0 -0.78834764941E+02 -0.59443824350E+02 -0.35476134383E+02  0.10499769963E+03  0.41800000000E+01 0. -1.
         -5    1    3    3    0  502  0.27242193353E+02  0.19186332528E+02  0.16570990398E+02  0.37447597751E+02  0.41800000000E+01 0. -1.
        -11    1    1    2    0    0  0.32518745391E+02  0.68368913359E+02 -0.78148625801E+02  0.10880709917E+03  0.00000000000E+00 0. -1.
         11    1    1    2    0    0  0.19073826198E+02 -0.28111421537E+02 -0.11690820414E+02  0.35926844401E+02  0.00000000000E+00 0.  1.
</event>
<event>
 7    1  0.1068210E-005  0.2708343E+03  0.7561462E-02  0.1100803E+00
         -2   -1    0    0    0  501 -0.00000000000E+00  0.00000000000E+00  0.30053608968E+03  0.30053608968E+03  0.00000000000E+00 0.  1.
          2   -1    0    0  501    0  0.00000000000E+00 -0.00000000000E+00 -0.28408281580E+03  0.28408281580E+03  0.00000000000E+00 0. -1.
         23    2    1    2    0    0  0.14730733857E+03 -0.21848709414E+03  0.69650767021E+02  0.29989238603E+03  0.12509257194E+03 0.  0.
          5    1    3    3  502    0  0.97873322274E+02 -0.72481301555E+02  0.79292172530E+02  0.14538723229E+03  0.41800000000E+01 0. -1.
         -5    1    3    3    0  502  0.49434016293E+02 -0.14600579258E+03 -0.96414055086E+01  0.15450515375E+03  0.41800000000E+01 0. -1.
        -11    1    1    2    0    0 -0.14338599418E+03  0.19640651700E+03 -0.19114275976E+02  0.24392707680E+03  0.00000000000E+00 0.  1.
         11    1    1    2    0    0 -0.39213443820E+01  0.22080577136E+02 -0.34083217162E+02  0.40799442650E+02  0.00000000000E+00 0. -1.
</event>
<event>
 7    1  0.1068210E-005  0.8305861E+02  0.7561462E-02  0.1320589E+00
          2   -1    0    0  501    0  0.00000000000E+00  0.00000000000E+00  0.51292912876E+02  0.51292912876E+02  0.00000000000E+00 0. -1.
         -2   -1    0    0    0  501 -0.00000000000E+00 -0.00000000000E+00 -0.24358670460E+03  0.24358670460E+03  0.00000000000E+00 0.  1.
         23    2    1    2    0    0  0.11895834603E+02  0.23780521640E+02 -0.12942575313E+03  0.18194642915E+03  0.12508578423E+03 0.  0.
          5    1    3    3  502    0  0.30694852164E+02 -0.29339778262E+02 -0.11638247078E+03  0.12395704273E+03  0.41800000000E+01 0.  1.
         -5    1    3    3    0  502 -0.18799017561E+02  0.53120299902E+02 -0.13043282356E+02  0.57989386421E+02  0.41800000000E+01 0.  1.
        -11    1    1    2    0    0 -0.12119422962E-01 -0.43727858430E+02  0.22638021649E+01  0.43786419698E+02  0.00000000000E+00 0. -1.
         11    1    1    2    0    0 -0.11883715180E+02  0.19947336790E+02 -0.65131840753E+02  0.69146768625E+02  0.00000000000E+00 0.  1.
</event>
<event>
 7    1  0.1068210E-005  0.1033385E+03  0.7561462E-02  0.1273428E+00
          1   -1    0    0  501    0  0.00000000000E+00  0.00000000000E+00  0.44230944394E+02  0.44230944394E+02  0.00000000000E+00 0. -1.
         -1   -1    0    0    0  501 -0.00000000000E+00 -0.00000000000E+00 -0.29180603865E+03  0.29180603865E+03  0.00000000000E+00 0.  1.
         23    2    1    2    0    0 -0.10651674118E+02 -0.12601655757E+02 -0.18819921848E+03  0.22658122019E+03  0.12509134110E+03 0.  0.
          5    1    3    3  502    0  0.18701603528E+02  0.46631348475E+02 -0.40358083171E+02  0.64579252956E+02  0.41800000000E+01 0. -1.
         -5    1    3    3    0  502 -0.29353277646E+02 -0.59233004232E+02 -0.14784113531E+03  0.16200196724E+03  0.41800000000E+01 0. -1.
        -11    1    1    2    0    0 -0.13052985791E+02  0.46702327455E+02 -0.43007684323E+02  0.64816269089E+02  0.00000000000E+00 0.  1.
         11    1    1    2    0    0  0.23704659909E+02 -0.34100671698E+02 -0.16368191449E+02  0.44639493758E+02  0.00000000000E+00 0. -1.
</event>
<event>
 7    1  0.1068210E-005  0.1896734E+03  0.7561462E-02  0.1158756E+00
          2   -1    0    0  501    0  0.00000000000E+00  0.00000000000E+00  0.14534433431E+03  0.14534433431E+03  0.00000000000E+00 0. -1.
         -2   -1    0    0    0  501 -0.00000000000E+00 -0.00000000000E+00 -0.35813185632E+03  0.35813185632E+03  0.00000000000E+00 0.  1.
         23    2    1    2    0    0 -0.14144850308E+03  0.92007385028E+02 -0.23155172604E+03  0.31255470478E+03  0.12490477863E+03 0.  0.
          5    1    3    3  502    0 -0.10508385405E+03  0.12268380079E+03 -0.18820925264E+03  0.24806073155E+03  0.41800000000E+01 0.  1.
         -5    1    3    3    0  502 -0.36364649029E+02 -0.30676415758E+02 -0.43342473395E+02  0.64493973228E+02  0.41800000000E+01 0.  1.
        -11    1    1    2    0    0  0.20064859380E+02 -0.50792537689E+01 -0.27681511090E+02  0.34563903961E+02  0.00000000000E+00 0.  1.
         11    1    1    2    0    0  0.12138364370E+03 -0.86928131259E+02  0.46445715118E+02  0.15635758189E+03  0.00000000000E+00 0. -1.
</event>
<event>
 7    1  0.1068210E-005  0.1408160E+03  0.7561462E-02  0.1212235E+00
          3   -1    0    0  501    0  0.00000000000E+00  0.00000000000E+00  0.12378077989E+03  0.12378077989E+03  0.00000000000E+00 0. -1.
         -3   -1    0    0    0  501 -0.00000000000E+00 -0.00000000000E+00 -0.21457297584E+03  0.21457297584E+03  0.00000000000E+00 0.  1.
         23    2    1    2    0    0 -0.10340786516E+02 -0.89345216865E+02 -0.13320727475E+03  0.20366758254E+03  0.12508719555E+03 0.  0.
          5    1    3    3  502    0  0.14899601590E+02 -0.11596571588E+03 -0.10503256538E+03  0.15722390905E+03  0.41800000000E+01 0.  1.
         -5    1    3    3    0  502 -0.25240388106E+02  0.26620499015E+02 -0.28174709366E+02  0.46443673492E+02  0.41800000000E+01 0.  1.
        -11    1    1    2    0    0  0.19440828179E+01 -0.18973680625E+02  0.84104788086E+01  0.20845051409E+02  0.00000000000E+00 0. -1.
         11    1    1    2    0    0  0.83967036978E+01  0.10831889749E+03  0.34004599997E+02  0.11384112178E+03  0.00000000000E+00 0.  1.
</event>
<event>
 7    1  0.1068210E-005  0.2339522E+03  0.7561462E-02  0.1123889E+00
          1   -1    0    0  501    0  0.00000000000E+00  0.00000000000E+00  0.10752057681E+04  0.10752057681E+04  0.00000000000E+00 0. -1.
         -1   -1    0    0    0  501 -0.00000000000E+00 -0.00000000000E+00 -0.61581970064E+02  0.61581970064E+02  0.00000000000E+00 0.  1.
         23    2    1    2    0    0 -0.17602139141E+03  0.12482931980E+03  0.32785075475E+03  0.41194677657E+03  0.12509252582E+03 0.  0.
          5    1    3    3  502    0 -0.51409755000E+02  0.94679386868E+02  0.84978378046E+02  0.13728053883E+03  0.41800000000E+01 0. -1.
         -5    1    3    3    0  502 -0.12461163641E+03  0.30149932936E+02  0.24287237671E+03  0.27466623774E+03  0.41800000000E+01 0. -1.
        -11    1    1    2    0    0  0.90282171584E+02 -0.11395683375E+03  0.48329856389E+03  0.50469251264E+03  0.00000000000E+00 0.  1.
         11    1    1    2    0    0  0.85739219825E+02 -0.10872486050E+02  0.20247447941E+03  0.22014844897E+03  0.00000000000E+00 0. -1.
</event>
<event>
 7    1  0.1068210E-005  0.2937267E+03  0.7561462E-02  0.1088419E+00
         -2   -1    0    0    0  501 -0.00000000000E+00  0.00000000000E+00  0.33523330036E+03  0.33523330036E+03  0.00000000000E+00 0.  1.
          2   -1    0    0  501    0  0.00000000000E+00 -0.00000000000E+00 -0.32523700363E+03  0.32523700363E+03  0.00000000000E+00 0. -1.
         23    2    1    2    0    0 -0.41396289255E+01 -0.28066757228E+03  0.14116407404E+03  0.33818063577E+03  0.12508966365E+03 0.  0.
          5    1    3    3  502    0 -0.53154182263E+02 -0.19709906364E+03  0.63160109940E+02  0.21372898696E+03  0.41800000000E+01 0.  1.
         -5    1    3    3    0  502  0.49014553338E+02 -0.83568508640E+02  0.78003964099E+02  0.12445164881E+03  0.41800000000E+01 0.  1.
        -11    1    1    2    0    0 -0.25555269522E+02  0.16013200297E+03 -0.11103024953E+03  0.19652747005E+03  0.00000000000E+00 0.  1.
         11    1    1    2    0    0  0.29694898448E+02  0.12053556931E+03 -0.20137527783E+02  0.12576219817E+03  0.00000000000E+00 0. -1.
</event>
<event>
 7    1  0.1068210E-005  0.1654479E+03  0.7561462E-02  0.1182680E+00
         -1   -1    0    0    0  501 -0.00000000000E+00  0.00000000000E+00  0.32915879246E+02  0.32915879246E+02  0.00000000000E+00 0.  1.
          1   -1    0    0  501    0  0.00000000000E+00 -0.00000000000E+00 -0.10757127758E+04  0.10757127758E+04  0.00000000000E+00 0. -1.
         23    2    1    2    0    0 -0.91672646212E+02 -0.12349915704E+03 -0.53468479313E+03  0.57024923618E+03  0.12506177476E+03 0.  0.
          5    1    3    3  502    0 -0.80271801775E+02 -0.12420118110E+03 -0.53773042754E+03  0.55771048103E+03  0.41800000000E+01 0.  1.
         -5    1    3    3    0  502 -0.11400844437E+02  0.70202405855E+00  0.30456344151E+01  0.12538755147E+02  0.41800000000E+01 0.  1.
        -11    1    1    2    0    0  0.89003738475E+02  0.60237155726E+02 -0.24120200737E+03  0.26406171391E+03  0.00000000000E+00 0.  1.
         11    1    1    2    0    0  0.26689077369E+01  0.63262001312E+02 -0.26691009609E+03  0.27431770500E+03  0.00000000000E+00 0. -1.
</event>
<event>
 7    1  0.1068210E-005  0.1668281E+03  0.7561462E-02  0.1181197E+00
         -1   -1    0    0    0  501 -0.00000000000E+00  0.00000000000E+00  0.39289244021E+02  0.39289244021E+02  0.00000000000E+00 0.  1.
          1   -1    0    0  501    0  0.00000000000E+00 -0.00000000000E+00 -0.78723569821E+03  0.78723569821E+03  0.00000000000E+00 0. -1.
         23    2    1    2    0    0  0.10846452178E+03  0.82419279126E+02 -0.46367119135E+03  0.49919613850E+03  0.12509324902E+03 0.  0.
          5    1    3    3  502    0 -0.16922801898E+02  0.52931277314E+02 -0.12632687714E+03  0.13807263896E+03  0.41800000000E+01 0.  1.
         -5    1    3    3    0  502  0.12538732368E+03  0.29488001811E+02 -0.33734431421E+03  0.36112349954E+03  0.41800000000E+01 0.  1.
        -11    1    1    2    0    0 -0.67435436638E+02 -0.84332095928E+02 -0.25491265583E+03  0.27683912769E+03  0.00000000000E+00 0. -1.
         11    1    1    2    0    0 -0.41029085145E+02  0.19128168023E+01 -0.29362607009E+02  0.50489676037E+02  0.00000000000E+00 0.  1.
</event>
<event>
 7    1  0.1068210E-005  0.3178599E+03  0.7561462E-02  0.1076638E+00
         -2   -1    0    0    0  501 -0.00000000000E+00  0.00000000000E+00  0.80036874230E+02  0.80036874230E+02  0.00000000000E+00 0.  1.
          2   -1    0    0  501    0  0.00000000000E+00 -0.00000000000E+00 -0.14372094147E+04  0.14372094147E+04  0.00000000000E+00 0. -1.
         23    2    1    2    0    0  0.15483166234E+03  0.25512386647E+03 -0.42589722516E+03  0.53488792056E+03  0.12512238111E+03 0.  0.
          5    1    3    3  502    0 -0.37135342598E+01  0.10356183003E+03 -0.15100868279E+03  0.18319371620E+03  0.41800000000E+01 0. -1.
         -5    1    3    3    0  502  0.15854519660E+03  0.15156203643E+03 -0.27488854237E+03  0.35169420436E+03  0.41800000000E+01 0. -1.
        -11    1    1    2    0    0 -0.40488012377E+02 -0.93374551026E+01 -0.11969050554E+03  0.12669760981E+03  0.00000000000E+00 0. -1.
         11    1    1    2    0    0 -0.11434364997E+03 -0.24578641136E+03 -0.81158480972E+03  0.85566075852E+03  0.00000000000E+00 0.  1.
</event>
<event>
 7    1  0.1068210E-005  0.1085478E+03  0.7561462E-02  0.1263283E+00
          2   -1    0    0  501    0  0.00000000000E+00  0.00000000000E+00  0.18303911096E+03  0.18303911096E+03  0.00000000000E+00 0. -1.
         -2   -1    0    0    0  501 -0.00000000000E+00 -0.00000000000E+00 -0.86055010941E+02  0.86055010941E+02  0.00000000000E+00 0.  1.
         23    2    1    2    0    0 -0.43249892736E+02  0.22340757542E+02  0.91493396433E+01  0.13453744234E+03  0.12508777041E+03 0.  0.
          5    1    3    3  502    0 -0.62171931736E+02  0.56944353712E+02  0.30181025924E+02  0.89645832259E+02  0.41800000000E+01 0. -1.
         -5    1    3    3    0  502  0.18922039000E+02 -0.34603596170E+02 -0.21031686281E+02  0.44891610080E+02  0.41800000000E+01 0. -1.
        -11    1    1    2    0    0  0.70645497081E+01  0.29203114261E+02  0.57004319381E+02  0.64437738735E+02  0.00000000000E+00 0. -1.
         11    1    1    2    0    0  0.36185343028E+02 -0.51543871804E+02  0.30830440992E+02  0.70118940825E+02  0.00000000000E+00 0.  1.
</event>
<event>
 7    1  0.1068210E-005  0.8559512E+02  0.7561462E-02  0.1313884E+00
          4   -1    0    0  501    0  0.00000000000E+00  0.00000000000E+00  0.85104419721E+02  0.85104419721E+02  0.00000000000E+00 0. -1.
         -4   -1    0    0    0  501 -0.00000000000E+00 -0.00000000000E+00 -0.21406481986E+03  0.21406481986E+03  0.00000000000E+00 0.  1.
         23    2    1    2    0    0 -0.48708481968E+02  0.52000712534E+02 -0.12860839098E+03  0.19303888707E+03  0.12508918167E+03 0.  0.
          5    1    3    3  502    0 -0.31230495221E+02  0.18250992288E+02 -0.14640411493E+03  0.15086444187E+03  0.41800000000E+01 0. -1.
         -5    1    3    3    0  502 -0.17477986747E+02  0.33749720246E+02  0.17795723947E+02  0.42174445203E+02  0.41800000000E+01 0. -1.
        -11    1    1    2    0    0  0.31185723212E+01 -0.50840850262E+02 -0.22198057753E+02  0.55563219100E+02  0.00000000000E+00 0.  1.
         11    1    1    2    0    0  0.45589909647E+02 -0.11598622718E+01  0.21846048598E+02  0.50567133411E+02  0.00000000000E+00 0. -1.
</event>
<event>
 7    1  0.1068210E-005  0.1630959E+03  0.7561462E-02  0.1185245E+00
         -2   -1    0    0    0  501 -0.00000000000E+00  0.00000000000E+00  0.83922446777E+02  0.83922446777E+02  0.00000000000E+00 0. -1.
          2   -1    0    0  501    0  0.00000000000E+00 -0.00000000000E+00 -0.42556640194E+03  0.42556640194E+03  0.00000000000E+00 0.  1.
         23    2    1    2    0    0 -0.11919103960E+03 -0.96301305331E+02 -0.20182853317E+03  0.28259958429E+03  0.12508925977E+03 0.  0.
          5    1    3    3  502    0 -0.96362278014E+02 -0.91725307509E+02 -0.21694803474E+03  0.25452532848E+03  0.41800000000E+01 0.  1.
         -5    1    3    3    0  502 -0.22828761590E+02 -0.45759978219E+01  0.15119501564E+02  0.28074255811E+02  0.41800000000E+01 0.  1.
        -11    1    1    2    0    0  0.52506435691E+02  0.25582813782E+00 -0.12392857417E+02  0.53949737275E+02  0.00000000000E+00 0.  1.
         11    1    1    2    0    0  0.66684603912E+02  0.96045477193E+02 -0.12742256457E+03  0.17293952715E+03  0.00000000000E+00 0. -1.
</event>
<event>
 7    1  0.1068210E-005  0.8842065E+02  0.7561462E-02  0.1306722E+00
         -2   -1    0    0    0  501 -0.00000000000E+00  0.00000000000E+00  0.29736566105E+03  0.29736566105E+03  0.00000000000E+00 0.  1.
          2   -1    0    0  501    0  0.00000000000E+00 -0.00000000000E+00 -0.55620371482E+02  0.55620371482E+02  0.00000000000E+00 0. -1.
         23    2    1    2    0    0  0.21199244053E+02 -0.41503595688E+02  0.20580786785E+03  0.24531008080E+03  0.12509276906E+03 0.  0.
          5    1    3    3  502    0  0.18568747156E+02 -0.83655962729E+02  0.10277083745E+03  0.13387470225E+03  0.41800000000E+01 0.  1.
         -5    1    3    3    0  502  0.26304968962E+01  0.42152367041E+02  0.10303703040E+03  0.11143537856E+03  0.41800000000E+01 0.  1.
        -11    1    1    2    0    0 -0.88609580725E+01  0.31500052648E+02 -0.27212345456E+02  0.42559154597E+02  0.00000000000E+00 0. -1.
         11    1    1    2    0    0 -0.12338285980E+02  0.10003543040E+02  0.63149767177E+02  0.65116797133E+02  0.00000000000E+00 0.  1.
</event>
<event>
 6    1  0.1068210E-005  0.2031290E+03  0.7561462E-02  0.1147126E+00
          2   -1    0    0  501    0  0.00000000000E+00  0.00000000000E+00  0.10121773844E+04  0.10121773844E+04  0.00000000000E+00 0. -1.
         -2   -1    0    0    0  501 -0.00000000000E+00 -0.00000000000E+00 -0.74287672671E+02  0.74287672671E+02  0.00000000000E+00 0.  1.
          5    1    1    2  502    0  0.10246314943E+02 -0.31795281124E+02  0.11339573851E+03  0.11828775416E+03  0.41800000000E+01 0. -1.
         -5    1    1    2    0  502 -0.78478774811E+02 -0.13944597836E+03  0.54570504079E+02  0.16911390035E+03  0.41800000000E+01 0.  1.
        -11    1    1    2    0    0  0.78260061503E+02  0.54532129216E+02  0.30230436323E+03  0.31699577028E+03  0.00000000000E+00 0.  1.
         11    1    1    2    0    0 -0.10027601635E+02  0.11670913027E+03  0.46761910588E+03  0.48206763225E+03  0.00000000000E+00 0. -1.
</event>
<event>
 7    1  0.1068210E-005  0.1066581E+03  0.7561462E-02  0.1266887E+00
          1   -1    0    0  501    0  0.00000000000E+00  0.00000000000E+00  0.12236775147E+03  0.12236775147E+03  0.00000000000E+00 0. -1.
         -1   -1    0    0    0  501 -0.00000000000E+00 -0.00000000000E+00 -0.13684689078E+03  0.13684689078E+03  0.00000000000E+00 0.  1.
         23    2    1    2    0    0 -0.70152852296E+02  0.37187517485E+01 -0.52717411893E+02  0.15284655776E+03  0.12509073867E+03 0.  0.
          5    1    3    3  502    0 -0.10557475754E+03 -0.19517454958E+01 -0.28801162995E+02  0.10952998736E+03  0.41800000000E+01 0.  1.
         -5    1    3    3    0  502  0.35421905245E+02  0.56704972443E+01 -0.23916248898E+02  0.43316570403E+02  0.41800000000E+01 0.  1.
        -11    1    1    2    0    0  0.21160096377E+02 -0.73443493702E+01  0.50922021803E+02  0.55630400420E+02  0.00000000000E+00 0. -1.
         11    1    1    2    0    0  0.48992755919E+02  0.36255976217E+01 -0.12683749213E+02  0.50737684069E+02  0.00000000000E+00 0.  1.
</event>
<event>
 7    1  0.1068210E-005  0.2501384E+03  0.7561462E-02  0.1113217E+00
          2   -1    0    0  501    0  0.00000000000E+00  0.00000000000E+00  0.47890462815E+03  0.47890462815E+03  0.00000000000E+00 0. -1.
         -2   -1    0    0    0  501 -0.00000000000E+00 -0.00000000000E+00 -0.14539138147E+03  0.14539138147E+03  0.00000000000E+00 0.  1.
         23    2    1    2    0    0  0.23291346828E+03  0.57099219912E+02  0.17358405655E+03  0.32138422626E+03  0.12508953425E+03 0.  0.
          5    1    3    3  502    0  0.84114789453E+02  0.65981233881E+02  0.22948577484E+02  0.10942088757E+03  0.41800000000E+01 0. -1.
         -5    1    3    3    0  502  0.14879867883E+03 -0.88820139688E+01  0.15063547907E+03  0.21196333869E+03  0.41800000000E+01 0. -1.
        -11    1    1    2    0    0 -0.16749495039E+03 -0.19273226198E+02  0.62953147177E+02  0.17996975967E+03  0.00000000000E+00 0. -1.
         11    1    1    2    0    0 -0.65418517891E+02 -0.37825993714E+02  0.96976042943E+02  0.12294202369E+03  0.00000000000E+00 0.  1.
</event>
<event>
 7    1  0.1068210E-005  0.1193578E+03  0.7561462E-02  0.1244160E+00
         -2   -1    0    0    0  501 -0.00000000000E+00  0.00000000000E+00  0.19459535882E+02  0.19459535882E+02  0.00000000000E+00 0.  1.
          2   -1    0    0  501    0  0.00000000000E+00 -0.00000000000E+00 -0.79480604080E+03  0.79480604080E+03  0.00000000000E+00 0. -1.
         23    2    1    2    0    0  0.52031887542E+02  0.29046821022E+02 -0.41107694768E+03  0.43380009704E+03  0.12508889697E+03 0.  0.
          5    1    3    3  502    0 -0.33937673164E+02 -0.18727507281E+02 -0.93089924714E+02  0.10092418775E+03  0.41800000000E+01 0. -1.
         -5    1    3    3    0  502  0.85969560707E+02  0.47774328304E+02 -0.31798702297E+03  0.33287590929E+03  0.41800000000E+01 0. -1.
        -11    1    1    2    0    0 -0.36698589491E+02 -0.57936452375E+02 -0.16750144087E+03  0.18099765655E+03  0.00000000000E+00 0.  1.
         11    1    1    2    0    0 -0.15333298051E+02  0.28889631353E+02 -0.19676811637E+03  0.19946782309E+03  0.00000000000E+00 0. -1.
</event>
<event>
 7    1  0.1068210E-005  0.9366990E+02  0.7561462E-02  0.1294200E+00
         -2   -1    0    0    0  501 -0.00000000000E+00  0.00000000000E+00  0.33054685632E+02  0.33054685632E+02  0.00000000000E+00 0.  1.
          2   -1    0    0  501    0  0.00000000000E+00 -0.00000000000E+00 -0.35698184183E+03  0.35698184183E+03  0.00000000000E+00 0. -1.
         23    2    1    2    0    0 -0.94844541813E+01  0.61307173135E+01 -0.17832131591E+03  0.21815266048E+03  0.12515810401E+03 0.  0.
          5    1    3    3  502    0  0.52352249564E+02 -0.22205044707E+02 -0.71630295192E+02  0.91554320674E+02  0.41800000000E+01 0.  1.
         -5    1    3    3    0  502 -0.61836703745E+02  0.28335762020E+02 -0.10669102072E+03  0.12659833981E+03  0.41800000000E+01 0.  1.
        -11    1    1    2    0    0  0.28542646341E+01  0.27624390201E+02 -0.13200169517E+03  0.13489144261E+03  0.00000000000E+00 0. -1.
         11    1    1    2    0    0  0.66301895472E+01 -0.33755107515E+02 -0.13604145113E+02  0.36992424373E+02  0.00000000000E+00 0.  1.
</event>
<event>
 7    1  0.1068210E-005  0.1042186E+03  0.7561462E-02  0.1271667E+00
          3   -1    0    0  501    0  0.00000000000E+00  0.00000000000E+00  0.14448431362E+03  0.14448431362E+03  0.00000000000E+00 0. -1.
         -3   -1    0    0    0  501 -0.00000000000E+00 -0.00000000000E+00 -0.10986631260E+03  0.10986631260E+03  0.00000000000E+00 0.  1.
         23    2    1    2    0    0  0.26208518233E+02 -0.30246905819E+02 -0.32485789389E+02  0.13528782605E+03  0.12508280307E+03 0.  0.
          5    1    3    3  502    0  0.49091143609E+02 -0.68949499569E+02 -0.30581705261E+02  0.90092657682E+02  0.41800000000E+01 0.  1.
         -5    1    3    3    0  502 -0.22882625375E+02  0.38702593750E+02 -0.19040841281E+01  0.45195168364E+02  0.41800000000E+01 0.  1.
        -11    1    1    2    0    0  0.18962944436E+02  0.27341589362E+02  0.65851604705E+02  0.73780685906E+02  0.00000000000E+00 0. -1.
         11    1    1    2    0    0 -0.45171462670E+02  0.29053164568E+01  0.12521857126E+01  0.45282114267E+02  0.00000000000E+00 0.  1.
</event>
<event>
 7    1  0.1068210E-005  0.1977564E+03  0.7561462E-02  0.1151646E+00
         -2   -1    0    0    0  501 -0.00000000000E+00  0.00000000000E+00  0.40268183612E+02  0.40268183612E+02  0.00000000000E+00 0. -1.
          2   -1    0    0  501    0  0.00000000000E+00 -0.00000000000E+00 -0.12377005549E+04  0.12377005549E+04  0.00000000000E+00 0.  1.
         23    2    1    2    0    0  0.35776441332E+02  0.19002158521E+03 -0.54674733837E+03  0.59326905106E+03  0.12508940135E+03 0.  0.
          5    1    3    3  502    0  0.13120838431E+02  0.54665073951E+02 -0.34283661630E+03  0.34744041876E+03  0.41800000000E+01 0.  1.
         -5    1    3    3    0  502  0.22655602901E+02  0.13535651126E+03 -0.20391072207E+03  0.24582863230E+03  0.41800000000E+01 0.  1.
        -11    1    1    2    0    0  0.15101692183E+02 -0.67550845024E+02 -0.33865260447E+03  0.34565411076E+03  0.00000000000E+00 0.  1.
         11    1    1    2    0    0 -0.50878133515E+02 -0.12247074019E+03 -0.31203242846E+03  0.33904557671E+03  0.00000000000E+00 0. -1.
</event>
<event>
 7    1  0.1068210E-005  0.1520354E+03  0.7561462E-02  0.1197994E+00
          4   -1    0    0  501    0  0.00000000000E+00  0.00000000000E+00  0.35351381981E+03  0.35351381981E+03  0.00000000000E+00 0. -1.
         -4   -1    0    0    0  501 -0.00000000000E+00 -0.00000000000E+00 -0.79680265214E+02  0.79680265214E+02  0.00000000000E+00 0.  1.
         23    2    1    2    0    0 -0.90329012571E+02 -0.89121179068E+02  0.16354522777E+03  0.24186026215E+03  0.12508968707E+03 0.  0.
          5    1    3    3  502    0 -0.56640612522E+02 -0.11788993112E+03  0.10200333549E+03  0.16591668903E+03  0.41800000000E+01 0. -1.
         -5    1    3    3    0  502 -0.33688400049E+02  0.28768752056E+02  0.61541892284E+02  0.75943573123E+02  0.41800000000E+01 0. -1.
        -11    1    1    2    0    0  0.10587687618E+02  0.23046193830E+01  0.63645040703E+02  0.64560836470E+02  0.00000000000E+00 0. -1.
         11    1    1    2    0    0  0.79741324953E+02  0.86816559685E+02  0.46643286116E+02  0.12677298640E+03  0.00000000000E+00 0.  1.
</event>
<event>
 7    1  0.1068210E-005  0.2058867E+03  0.7561462E-02  0.1144865E+00
         -1   -1    0    0    0  501 -0.00000000000E+00  0.00000000000E+00  0.29958928732E+02  0.29958928732E+02  0.00000000000E+00 0.  1.
          1   -1    0    0  501    0  0.00000000000E+00 -0.00000000000E+00 -0.14596867522E+04  0.14596867522E+04  0.00000000000E+00 0. -1.
         23    2    1    2    0    0  0.16039977641E+03  0.72763017886E+02 -0.69634518239E+03  0.72908591851E+03  0.12508844266E+03 0.  0.
          5    1    3    3  502    0  0.90990445088E+02 -0.25136849968E+02 -0.34920808688E+03  0.36176633711E+03  0.41800000000E+01 0. -1.
         -5    1    3    3    0  502  0.69409331324E+02  0.97899867854E+02 -0.34713709552E+03  0.36731958141E+03  0.41800000000E+01 0. -1.
        -11    1    1    2    0    0 -0.15504140313E+02 -0.47696332421E+02 -0.12563352895E+03  0.13527417378E+03  0.00000000000E+00 0.  1.
         11    1    1    2    0    0 -0.14489563610E+03 -0.25066685465E+02 -0.60774911208E+03  0.62528558860E+03  0.00000000000E+00 0. -1.
</event>
<event>
 7    1  0.1068210E-005  0.1516960E+03  0.7561462E-02  0.1198404E+00
         -1   -1    0    0    0  501 -0.00000000000E+00  0.00000000000E+00  0.48369560103E+03  0.48369560103E+03  0.00000000000E+00 0.  1.
          1   -1    0    0  501    0  0.00000000000E+00 -0.00000000000E+00 -0.65036150297E+02  0.65036150297E+02  0.00000000000E+00 0. -1.
         23    2    1    2    0    0  0.13375208507E+03 -0.33636153471E+01  0.27524527093E+03  0.33061857385E+03  0.12509095906E+03 0.  0.
          5    1    3    3  502    0  0.67453659238E+02  0.50137652224E+02  0.19959333900E+03  0.21660737219E+03  0.41800000000E+01 0. -1.
         -5    1    3    3    0  502  0.66298425828E+02 -0.53501267572E+02  0.75651931930E+02  0.11401120166E+03  0.41800000000E+01 0. -1.
        -11    1    1    2    0    0 -0.11365972486E+03  0.51371620730E+01  0.53069075340E+02  0.12554381804E+03  0.00000000000E+00 0. -1.
         11    1    1    2    0    0 -0.20092360205E+02 -0.17735467259E+01  0.90345104469E+02  0.92569359445E+02  0.00000000000E+00 0.  1.
</event>
<event>
 7    1  0.1068210E-005  0.1794517E+03  0.7561462E-02  0.1168335E+00
          1   -1    0    0  501    0  0.00000000000E+00  0.00000000000E+00  0.26998976262E+03  0.26998976262E+03  0.00000000000E+00 0. -1.
         -1   -1    0    0    0  501 -0.00000000000E+00 -0.00000000000E+00 -0.17280761584E+03  0.17280761584E+03  0.00000000000E+00 0.  1.
         23    2    1    2    0    0  0.35130057150E+02 -0.16136477635E+03 -0.38338546430E+02  0.21068980653E+03  0.12509052110E+03 0.  0.
          5    1    3    3  502    0 -0.25660533138E+01 -0.12597509583E+03 -0.75435658497E+02  0.14691603170E+03  0.41800000000E+01 0. -1.
         -5    1    3    3    0  502  0.37696110464E+02 -0.35389680524E+02  0.37097112068E+02  0.63773774825E+02  0.41800000000E+01 0. -1.
        -11    1    1    2    0    0  0.21103689947E+02  0.74900563447E+02  0.26941574910E+02  0.82348701221E+02  0.00000000000E+00 0. -1.
         11    1    1    2    0    0 -0.56233747097E+02  0.86464212903E+02  0.10857911830E+03  0.14975887071E+03  0.00000000000E+00 0.  1.
</event>
<event>
 6    1  0.1068210E-005  0.1012183E+03  0.7561462E-02  0.1277755E+00
         -2   -1    0    0    0  501 -0.00000000000E+00  0.00000000000E+00  0.51620502370E+03  0.51620502370E+03  0.00000000000E+00 0.  1.
          2   -1    0    0  501    0  0.00000000000E+00 -0.00000000000E+00 -0.23984349091E+02  0.23984349091E+02  0.00000000000E+00 0. -1.
          5    1    1    2  502    0 -0.21819462763E+02  0.82534083127E+02  0.32285294656E+03  0.33397524060E+03  0.41800000000E+01 0. -1.
         -5    1    1    2    0  502  0.43100721216E+02 -0.26915713230E+02  0.63637475497E+02  0.81543414667E+02  0.41800000000E+01 0.  1.
        -11    1    1    2    0    0  0.63618734488E+01 -0.19398153155E+02  0.35625403294E+02  0.41060091810E+02  0.00000000000E+00 0. -1.
         11    1    1    2    0    0 -0.27643131902E+02 -0.36220216742E+02  0.70104849254E+02  0.83610625707E+02  0.00000000000E+00 0.  1.
</event>
<event>
 7    1  0.1068210E-005  0.1579954E+03  0.7561462E-02  0.1190979E+00
         -2   -1    0    0    0  501 -0.00000000000E+00  0.00000000000E+00  0.92602443567E+03  0.92602443567E+03  0.00000000000E+00 0.  1.
          2   -1    0    0  501    0  0.00000000000E+00 -0.00000000000E+00 -0.39770737749E+02  0.39770737749E+02  0.00000000000E+00 0. -1.
         23    2    1    2    0    0  0.13065697481E+03 -0.86933023471E+02  0.51465795329E+03  0.55240248011E+03  0.12508835082E+03 0.  0.
          5    1    3    3  502    0  0.43212372219E+02 -0.25168960925E+02  0.36451281086E+03  0.36795087632E+03  0.41800000000E+01 0.  1.
         -5    1    3    3    0  502  0.87444602586E+02 -0.61764062546E+02  0.15014514244E+03  0.18445160379E+03  0.41800000000E+01 0.  1.
        -11    1    1    2    0    0 -0.64927172175E+02  0.29224888215E+02  0.71881481479E+02  0.10117598113E+03  0.00000000000E+00 0. -1.
         11    1    1    2    0    0 -0.65729802630E+02  0.57708135256E+02  0.29971426315E+03  0.31221671218E+03  0.00000000000E+00 0.  1.
</event>
<event>
 7    1  0.1068210E-005  0.6127023E+02  0.7561462E-02  0.1392577E+00
         -3   -1    0    0    0  501 -0.00000000000E+00  0.00000000000E+00  0.20828758483E+03  0.20828758483E+03  0.00000000000E+00 0.  1.
          3   -1    0    0  501    0  0.00000000000E+00 -0.00000000000E+00 -0.67685737697E+02  0.67685737697E+02  0.00000000000E+00 0. -1.
         23    2    1    2    0    0 -0.30948487992E+02 -0.12678636478E+02  0.84502463549E+02  0.15461860863E+03  0.12509073130E+03 0.  0.
          5    1    3    3  502    0  0.43209103460E+01 -0.31757824937E+02  0.10466459263E+03  0.10954167728E+03  0.41800000000E+01 0.  1.
         -5    1    3    3    0  502 -0.35269398338E+02  0.19079188459E+02 -0.20162129080E+02  0.45076931356E+02  0.41800000000E+01 0.  1.
        -11    1    1    2    0    0  0.25247864626E+02  0.25491368748E+02 -0.21946809574E+02  0.42058613854E+02  0.00000000000E+00 0. -1.
         11    1    1    2    0    0  0.57006233659E+01 -0.12812732270E+02  0.78046193161E+02  0.79296100042E+02  0.00000000000E+00 0.  1.
</event>
<event>
 7    1  0.1068210E-005  0.7965886E+02  0.7561462E-02  0.1330022E+00
         -2   -1    0    0    0  501 -0.00000000000E+00  0.00000000000E+00  0.60844498995E+02  0.60844498995E+02  0.00000000000E+00 0.  1.
          2   -1    0    0  501    0  0.00000000000E+00 -0.00000000000E+00 -0.22883192527E+03  0.22883192527E+03  0.00000000000E+00 0. -1.
         23    2    1    2    0    0  0.17500849890E+01 -0.17290520895E+02 -0.19728315383E+02  0.11509158044E+03  0.11204838486E+03 0.  0.
          5    1    3    3  502    0  0.21659700033E+02  0.25047851415E+02 -0.49336832304E+02  0.59566205921E+02  0.41800000000E+01 0. -1.
         -5    1    3    3    0  502 -0.19909615044E+02 -0.42338372310E+02  0.29608516921E+02  0.55525374517E+02  0.41800000000E+01 0.  1.
        -11    1    1    2    0    0  0.34271910584E+01  0.47850536193E+02 -0.13009698747E+03  0.13866018030E+03  0.00000000000E+00 0. -1.
         11    1    1    2    0    0 -0.51772760474E+01 -0.30560015298E+02 -0.18162123423E+02  0.35924663527E+02  0.00000000000E+00 0.  1.
</event>
<event>
 7    1  0.1068210E-005  0.1531419E+03  0.7561462E-02  0.1196665E+00
         -2   -1    0    0    0  501 -0.00000000000E+00  0.00000000000E+00  0.36574061516E+03  0.36574061516E+03  0.00000000000E+00 0.  1.
          2   -1    0    0  501    0  0.00000000000E+00 -0.00000000000E+00 -0.97752191226E+02  0.97752191226E+02  0.00000000000E+00 0. -1.
         23    2    1    2    0    0 -0.41850005644E+02  0.13117294274E+03  0.22762636066E+03  0.29395270502E+03  0.12504666665E+03 0.  0.
          5    1    3    3  502    0 -0.44803695324E+02  0.46131754468E+02  0.19034378214E+03  0.20095705433E+03  0.41800000000E+01 0. -1.
         -5    1    3    3    0  502  0.29536896807E+01  0.85041188275E+02  0.37282578520E+02  0.92995650690E+02  0.41800000000E+01 0. -1.
        -11    1    1    2    0    0 -0.36596523068E+01 -0.10311800065E+03  0.50891771804E+02  0.11505080422E+03  0.00000000000E+00 0.  1.
         11    1    1    2    0    0  0.45509657950E+02 -0.28054942093E+02 -0.10529708529E+02  0.54489297154E+02  0.00000000000E+00 0. -1.
</event>
<event>
 7    1  0.1068210E-005  0.1584957E+03  0.7561462E-02  0.1190406E+00
         -1   -1    0    0    0  501 -0.00000000000E+00  0.00000000000E+00  0.14415156601E+03  0.14415156601E+03  0.00000000000E+00 0.  1.
          1   -1    0    0  501    0  0.00000000000E+00 -0.00000000000E+00 -0.22934855090E+03  0.22934855090E+03  0.00000000000E+00 0. -1.
         23    2    1    2    0    0  0.67629750182E+02  0.10908068959E+03  0.25100020613E+02  0.18097026583E+03  0.12509135113E+03 0.  0.
          5    1    3    3  502    0  0.42642938161E+02  0.12907794544E+03 -0.60180930519E+01  0.13613679156E+03  0.41800000000E+01 0. -1.
         -5    1    3    3    0  502  0.24986812022E+02 -0.19997255850E+02  0.31118113665E+02  0.44833474264E+02  0.41800000000E+01 0. -1.
        -11    1    1    2    0    0  0.14364290245E+02 -0.36440887771E+02 -0.60796896681E+02  0.72322429314E+02  0.00000000000E+00 0.  1.
         11    1    1    2    0    0 -0.81994040427E+02 -0.72639801817E+02 -0.49500108826E+02  0.12020742177E+03  0.00000000000E+00 0. -1.
</event>
<event>
 6    1  0.1068210E-005  0.1248721E+03  0.7561462E-02  0.1235269E+00
          1   -1    0    0  501    0  0.00000000000E+00  0.00000000000E+00  0.39823933881E+02  0.39823933881E+02  0.00000000000E+00 0. -1.
         -1   -1    0    0    0  501 -0.00000000000E+00 -0.00000000000E+00 -0.44007322474E+03  0.44007322474E+03  0.00000000000E+00 0.  1.
          5    1    1    2  502    0  0.49977640208E+02  0.64181588618E+02 -0.95786993066E+02  0.12573647553E+03  0.41800000000E+01 0. -1.
         -5    1    1    2    0  502  0.20080974142E+02 -0.58765926011E+02 -0.12358347983E+03  0.13837278803E+03  0.41800000000E+01 0.  1.
        -11    1    1    2    0    0 -0.80635996749E+02 -0.24460206187E+02 -0.17333900650E+03  0.19273525062E+03  0.00000000000E+00 0.  1.
         11    1    1    2    0    0  0.10577382399E+02  0.19044543580E+02 -0.75398114725E+01  0.23052644439E+02  0.00000000000E+00 0. -1.
</event>
<event>
 7    1  0.1068210E-005  0.1244615E+03  0.7561462E-02  0.1235913E+00
          2   -1    0    0  501    0  0.00000000000E+00  0.00000000000E+00  0.36846380658E+03  0.36846380658E+03  0.00000000000E+00 0. -1.
         -2   -1    0    0    0  501 -0.00000000000E+00 -0.00000000000E+00 -0.53802012284E+02  0.53802012284E+02  0.00000000000E+00 0.  1.
         23    2    1    2    0    0  0.35855989411E+02  0.73686032706E+02  0.17132780020E+03  0.22739626823E+03  0.12506224167E+03 0.  0.
          5    1    3    3  502    0 -0.33612361588E+01  0.81619708107E+02  0.16821368783E+03  0.18704649645E+03  0.41800000000E+01 0. -1.
         -5    1    3    3    0  502  0.39217225570E+02 -0.79336754004E+01  0.31141123640E+01  0.40349771778E+02  0.41800000000E+01 0. -1.
        -11    1    1    2    0    0 -0.44578208587E+02 -0.94414319571E+02  0.13549017159E+03  0.17105223477E+03  0.00000000000E+00 0.  1.
         11    1    1    2    0    0  0.87222191759E+01  0.20728286865E+02  0.78438225088E+01  0.23817315870E+02  0.00000000000E+00 0. -1.
</event>
<event>
 7    1  0.1068210E-005  0.1092287E+03  0.7561462E-02  0.1262005E+00
          2   -1    0    0  501    0  0.00000000000E+00  0.00000000000E+00  0.24885269073E+03  0.24885269073E+03  0.00000000000E+00 0. -1.
         -2   -1    0    0    0  501 -0.00000000000E+00 -0.00000000000E+00 -0.71551330721E+02  0.71551330721E+02  0.00000000000E+00 0.  1.
         23    2    1    2    0    0  0.19041886087E+01  0.76358858518E+02  0.77337927429E+02  0.16574113035E+03  0.12511860798E+03 0.  0.
          5    1    3    3  502    0  0.39661696374E+02  0.91600277707E+02  0.32567562484E+02  0.10507987229E+03  0.41800000000E+01 0.  1.
         -5    1    3    3    0  502 -0.37757507765E+02 -0.15241419189E+02  0.44770364945E+02  0.60661258055E+02  0.41800000000E+01 0.  1.
        -11    1    1    2    0    0  0.47747319823E+01 -0.11990776879E+02 -0.16788119947E+02  0.21175877007E+02  0.00000000000E+00 0.  1.
         11    1    1    2    0    0 -0.66789205911E+01 -0.64368081639E+02  0.11675155253E+03  0.13348701409E+03  0.00000000000E+00 0. -1.
</event>
<event>
 7    1  0.1068210E-005  0.1114563E+03  0.7561462E-02  0.1257897E+00
          2   -1    0    0  501    0  0.00000000000E+00  0.00000000000E+00  0.19214028393E+02  0.19214028393E+02  0.00000000000E+00 0. -1.
         -2   -1    0    0    0  501 -0.00000000000E+00 -0.00000000000E+00 -0.72824807511E+03  0.72824807511E+03  0.00000000000E+00 0.  1.
         23    2    1    2    0    0 -0.42760280171E+02 -0.13170412072E+02 -0.36693950548E+03  0.39024841308E+03  0.12508925579E+03 0.  0.
          5    1    3    3  502    0 -0.84394182392E+02  0.70989442371E+00 -0.28420949290E+03  0.29650529545E+03  0.41800000000E+01 0.  1.
         -5    1    3    3    0  502  0.41633902221E+02 -0.13880306495E+02 -0.82730012574E+02  0.93743117630E+02  0.41800000000E+01 0.  1.
        -11    1    1    2    0    0  0.81355638523E+01  0.45939295493E+02 -0.24058860233E+03  0.24507036100E+03  0.00000000000E+00 0.  1.
         11    1    1    2    0    0  0.34624716319E+02 -0.32768883421E+02 -0.10150593891E+03  0.11214332942E+03  0.00000000000E+00 0. -1.
</event>
<event>
 7    1  0.1068210E-005  0.1685403E+03  0.7561462E-02  0.1179379E+00
          2   -1    0    0  501    0  0.00000000000E+00  0.00000000000E+00  0.81215618362E+03  0.81215618362E+03  0.00000000000E+00 0. -1.
         -2   -1    0    0    0  501 -0.00000000000E+00 -0.00000000000E+00 -0.49527467781E+02  0.49527467781E+02  0.00000000000E+00 0.  1.
         23    2    1    2    0    0  0.40269077286E+02  0.13972113064E+03  0.21711790840E+03  0.28970958154E+03  0.12509141679E+03 0.  0.
          5    1    3    3  502    0  0.70102838100E+02  0.14252967558E+03  0.16250771919E+03  0.22727812813E+03  0.41800000000E+01 0. -1.
         -5    1    3    3    0  502 -0.29833760815E+02 -0.28085449361E+01  0.54610189208E+02  0.62431453405E+02  0.41800000000E+01 0. -1.
        -11    1    1    2    0    0 -0.39431899136E+02 -0.90651688351E+02  0.48025257301E+03  0.49032146308E+03  0.00000000000E+00 0. -1.
         11    1    1    2    0    0 -0.83717814983E+00 -0.49069442293E+02  0.65258234427E+02  0.81652606785E+02  0.00000000000E+00 0.  1.
</event>
<event>
 7    1  0.1068210E-005  0.1371961E+03  0.7561462E-02  0.1217152E+00
          1   -1    0    0  501    0  0.00000000000E+00  0.00000000000E+00  0.64558816558E+03  0.64558816558E+03  0.00000000000E+00 0. -1.
         -1   -1    0    0    0  501 -0.00000000000E+00 -0.00000000000E+00 -0.38618256868E+02  0.38618256868E+02  0.00000000000E+00 0.  1.
         23    2    1    2    0    0 -0.47573017001E+01 -0.11071699601E+03  0.37386746996E+03  0.40951729890E+03  0.12508656154E+03 0.  0.
          5    1    3    3  502    0 -0.55010443902E+02 -0.96467730178E+02  0.29071113283E+03  0.31122758081E+03  0.41800000000E+01 0.  1.
         -5    1    3    3    0  502  0.50253142202E+02 -0.14249265832E+02  0.83156337134E+02  0.98289718096E+02  0.41800000000E+01 0.  1.
        -11    1    1    2    0    0  0.94434291593E+00  0.57813310970E+02  0.30727118544E+02  0.65478443192E+02  0.00000000000E+00 0.  1.
         11    1    1    2    0    0  0.38129587842E+01  0.52903685040E+02  0.20237532021E+03  0.20921068035E+03  0.00000000000E+00 0. -1.
</event>
<event>
 7    1  0.1068210E-005  0.1367980E+03  0.7561462E-02  0.1217704E+00
         -2   -1    0    0    0  501 -0.00000000000E+00  0.00000000000E+00  0.13492171218E+03  0.13492171218E+03  0.00000000000E+00 0.  1.
          2   -1    0    0  501    0  0.00000000000E+00 -0.00000000000E+00 -0.19217900801E+03  0.19217900801E+03  0.00000000000E+00 0. -1.
         23    2    1    2    0    0 -0.96370050025E+02  0.64884461788E+02 -0.10231820496E+02  0.17102554113E+03  0.12509142914E+03 0.  0.
          5    1    3    3  502    0  0.21160516147E+02  0.22611544285E+02 -0.31370208758E+02  0.44278796010E+02  0.41800000000E+01 0. -1.
         -5    1    3    3    0  502 -0.11753056617E+03  0.42272917502E+02  0.21138388262E+02  0.12674674511E+03  0.41800000000E+01 0. -1.
        -11    1    1    2    0    0  0.38066415980E+02 -0.35646816644E+02  0.25907277922E+02  0.58231732001E+02  0.00000000000E+00 0.  1.
         11    1    1    2    0    0  0.58303634045E+02 -0.29237645144E+02 -0.72932753254E+02  0.97843447065E+02  0.00000000000E+00 0. -1.
</event>
<event>
 7    1  0.1068210E-005  0.1039761E+03  0.7561462E-02  0.1272150E+00
          1   -1    0    0  501    0  0.00000000000E+00  0.00000000000E+00  0.19377535370E+03  0.19377535370E+03  0.00000000000E+00 0. -1.
         -1   -1    0    0    0  501 -0.00000000000E+00 -0.00000000000E+00 -0.10297457666E+03  0.10297457666E+03  0.00000000000E+00 0.  1.
         23    2    1    2    0    0  0.62219331846E+01 -0.25950514973E+02 -0.36685815997E+02  0.13337462116E+03  0.12542248122E+03 0.  0.
          5    1    3    3  502    0 -0.20014628411E+02  0.37735418657E+02  0.16777712369E+02  0.46081571197E+02  0.41800000000E+01 0. -1.
         -5    1    3    3    0  502  0.26236561596E+02 -0.63685933630E+02 -0.53463528366E+02  0.87293049964E+02  0.41800000000E+01 0.  1.
        -11    1    1    2    0    0  0.36836806235E+02 -0.11886596716E+02  0.25400223341E+02  0.46297006608E+02  0.00000000000E+00 0.  1.
         11    1    1    2    0    0 -0.43058739419E+02  0.37837111688E+02  0.10208636969E+03  0.11707830259E+03  0.00000000000E+00 0. -1.
</event>
<event>
 7    1  0.1068210E-005  0.8205565E+02  0.7561462E-02  0.1323317E+00
          3   -1    0    0  501    0  0.00000000000E+00  0.00000000000E+00  0.32970284639E+03  0.32970284639E+03  0.00000000000E+00 0. -1.
         -3   -1    0    0    0  501 -0.00000000000E+00 -0.00000000000E+00 -0.43452718780E+02  0.43452718780E+02  0.00000000000E+00 0.  1.
         23    2    1    2    0    0 -0.10101652607E+02  0.42341883564E+02  0.11845716940E+03  0.17769282126E+03  0.12509100390E+03 0.  0.
          5    1    3    3  502    0  0.28395194824E+02  0.42287482604E+02 -0.20179145891E+01  0.51147459892E+02  0.41800000000E+01 0.  1.
         -5    1    3    3    0  502 -0.38496847431E+02  0.54400959687E-01  0.12047508399E+03  0.12654536137E+03  0.41800000000E+01 0.  1.
        -11    1    1    2    0    0 -0.23134522747E+02 -0.31972124932E+02  0.21212040790E+02  0.44803722946E+02  0.00000000000E+00 0.  1.
         11    1    1    2    0    0  0.33236175354E+02 -0.10369758632E+02  0.14658091742E+03  0.15065902097E+03  0.00000000000E+00 0. -1.
</event>
<event>
 7    1  0.1068210E-005  0.1305128E+03  0.7561462E-02  0.1226697E+00
         -2   -1    0    0    0  501 -0.00000000000E+00  0.00000000000E+00  0.11815536319E+03  0.11815536319E+03  0.00000000000E+00 0.  1.
          2   -1    0    0  501    0  0.00000000000E+00 -0.00000000000E+00 -0.17680677233E+03  0.17680677233E+03  0.00000000000E+00 0. -1.
         23    2    1    2    0    0  0.12763841143E+02  0.75743022315E+02  0.25029604292E+02  0.15016373127E+03  0.12658097815E+03 0.  0.
          5    1    3    3  502    0  0.58093111614E+02 -0.12614276147E+00  0.11021433018E+00  0.58243541069E+02  0.41800000000E+01 0. -1.
         -5    1    3    3    0  502 -0.45329270471E+02  0.75869165076E+02  0.24919389961E+02  0.91920190203E+02  0.41800000000E+01 0.  1.
        -11    1    1    2    0    0 -0.32126038233E+02  0.38812072198E+01 -0.81872754145E+01  0.33379298686E+02  0.00000000000E+00 0.  1.
         11    1    1    2    0    0  0.19362197090E+02 -0.79624229535E+02 -0.75493738015E+02  0.11141910556E+03  0.00000000000E+00 0. -1.
</event>
<event>
 7    1  0.1068210E-005  0.1131739E+03  0.7561462E-02  0.1254803E+00
         -2   -1    0    0    0  501 -0.00000000000E+00  0.00000000000E+00  0.19025213308E+03  0.19025213308E+03  0.00000000000E+00 0.  1.
          2   -1    0    0  501    0  0.00000000000E+00 -0.00000000000E+00 -0.10596100782E+03  0.10596100782E+03  0.00000000000E+00 0. -1.
         23    2    1    2    0    0 -0.10902412142E+02  0.82658503691E+02  0.84323489262E+02  0.17236285495E+03  0.12508881685E+03 0.  0.
          5    1    3    3  502    0 -0.33621706486E+02  0.10170349456E+03  0.31646093691E+02  0.11177194460E+03  0.41800000000E+01 0.  1.
         -5    1    3    3    0  502  0.22719294344E+02 -0.19044990872E+02  0.52677395571E+02  0.60590910350E+02  0.41800000000E+01 0.  1.
        -11    1    1    2    0    0  0.20708744833E+02 -0.71089662168E+02  0.37768421015E+02  0.83120670147E+02  0.00000000000E+00 0.  1.
         11    1    1    2    0    0 -0.98063326911E+01 -0.11568841523E+02 -0.37800785022E+02  0.40729615801E+02  0.00000000000E+00 0. -1.
</event>
<event>
 7    1  0.1068210E-005  0.1066485E+03  0.7561462E-02  0.1266905E+00
         -1   -1    0    0    0  501 -0.00000000000E+00  0.00000000000E+00  0.38833633022E+03  0.38833633022E+03  0.00000000000E+00 0.  1.
          1   -1    0    0  501    0  0.00000000000E+00 -0.00000000000E+00 -0.47822284482E+02  0.47822284482E+02  0.00000000000E+00 0. -1.
         23    2    1    2    0    0 -0.73815973763E+02 -0.44625206012E+01  0.24024097676E+03  0.28076949340E+03  0.12508824659E+03 0.  0.
          5    1    3    3  502    0 -0.54864650453E+02  0.24996430094E+02  0.23785422505E+03  0.24541201307E+03  0.41800000000E+01 0.  1.
         -5    1    3    3    0  502 -0.18951323309E+02 -0.29458950696E+02  0.23867517141E+01  0.35357480326E+02  0.41800000000E+01 0.  1.
        -11    1    1    2    0    0  0.65832100177E+02  0.42736215834E+02  0.76665232844E+02  0.10971694256E+03  0.00000000000E+00 0. -1.
         11    1    1    2    0    0  0.79838735854E+01 -0.38273695233E+02  0.23607836128E+02  0.45672178740E+02  0.00000000000E+00 0.  1.
</event>
<event>
 7    1  0.1068210E-005  0.1211696E+03  0.7561462E-02  0.1241180E+00
          2   -1    0    0  501    0  0.00000000000E+00  0.00000000000E+00  0.13692060991E+04  0.13692060991E+04  0.00000000000E+00 0. -1.
         -2   -1    0    0    0  501 -0.00000000000E+00 -0.00000000000E+00 -0.13574911009E+02  0.13574911009E+02  0.00000000000E+00 0.  1.
         23    2    1    2    0    0 -0.81943062040E+02 -0.68816690577E+01  0.77592416306E+03  0.79023326684E+03  0.12509311096E+03 0.  0.
          5    1    3    3  502    0  0.14531410048E+01 -0.33917536280E+02  0.60948788825E+02  0.69890901735E+02  0.41800000000E+01 0. -1.
         -5    1    3    3    0  502 -0.83396203045E+02  0.27035867222E+02  0.71497537424E+03  0.72034236511E+03  0.41800000000E+01 0. -1.
        -11    1    1    2    0    0  0.44487502136E+01  0.36968705219E+02  0.13025946071E+03  0.13547694878E+03  0.00000000000E+00 0.  1.
         11    1    1    2    0    0  0.77494311826E+02 -0.30087036161E+02  0.44944756427E+03  0.45707079445E+03  0.00000000000E+00 0. -1.
</event>
<event>
 7    1  0.1068210E-005  0.1139352E+03  0.7561462E-02  0.1253451E+00
         -1   -1    0    0    0  501 -0.00000000000E+00  0.00000000000E+00  0.87370810323E+03  0.87370810323E+03  0.00000000000E+00 0.  1.
          1   -1    0    0  501    0  0.00000000000E+00 -0.00000000000E+00 -0.23893929024E+02  0.23893929024E+02  0.00000000000E+00 0. -1.
         23    2    1    2    0    0  0.56912141780E+02 -0.18853885043E+01  0.55991029094E+03  0.57653246705E+03  0.12509038766E+03 0.  0.
          5    1    3    3  502    0  0.51823929638E+02  0.51415955139E+02  0.20648585784E+03  0.21905068366E+03  0.41800000000E+01 0.  1.
         -5    1    3    3    0  502  0.50882121420E+01 -0.53301343643E+02  0.35342443310E+03  0.35748178339E+03  0.41800000000E+01 0.  1.
        -11    1    1    2    0    0 -0.44299127737E+02 -0.38525848964E+02  0.26610614605E+03  0.27250529302E+03  0.00000000000E+00 0.  1.
         11    1    1    2    0    0 -0.12613014044E+02  0.40411237468E+02  0.23797737216E+02  0.48564272192E+02  0.00000000000E+00 0. -1.
</event>
<event>
 7    1  0.1068210E-005  0.6989644E+02  0.7561462E-02  0.1360446E+00
          4   -1    0    0  501    0  0.00000000000E+00  0.00000000000E+00  0.45622704573E+02  0.45622704573E+02  0.00000000000E+00 0. -1.
         -4   -1    0    0    0  501 -0.00000000000E+00 -0.00000000000E+00 -0.27937959843E+03  0.27937959843E+03  0.00000000000E+00 0.  1.
         23    2    1    2    0    0 -0.78826991121E+01 -0.25378234658E+02 -0.15285889775E+03  0.19930332071E+03  0.12509907787E+03 0.  0.
          5    1    3    3  502    0 -0.26048650253E+02  0.13819245370E+02 -0.15302772923E+03  0.15589888401E+03  0.41800000000E+01 0. -1.
         -5    1    3    3    0  502  0.18165951141E+02 -0.39197480027E+02  0.16883147632E+00  0.43404436702E+02  0.41800000000E+01 0. -1.
        -11    1    1    2    0    0 -0.52886917104E+01  0.43712695967E+02 -0.90903410034E+02  0.10100594044E+03  0.00000000000E+00 0.  1.
         11    1    1    2    0    0  0.13171390823E+02 -0.18334461309E+02  0.10005413933E+02  0.24693041847E+02  0.00000000000E+00 0. -1.
</event>
<event>
 6    1  0.1068210E-005  0.1304099E+03  0.7561462E-02  0.1226849E+00
          2   -1    0    0  501    0  0.00000000000E+00  0.00000000000E+00  0.12583443726E+04  0.12583443726E+04  0.00000000000E+00 0. -1.
         -2   -1    0    0    0  501 -0.00000000000E+00 -0.00000000000E+00 -0.18576721891E+02  0.18576721891E+02  0.00000000000E+00 0.  1.
          5    1    1    2  502    0 -0.58376203904E+02 -0.60275244301E+02  0.64377895221E+03  0.64923778230E+03  0.41800000000E+01 0. -1.
         -5    1    1    2    0  502 -0.23538302858E+02  0.47073793921E+02  0.72637927620E+02  0.89798300120E+02  0.41800000000E+01 0.  1.
        -11    1    1    2    0    0  0.87794796418E+02 -0.20204594900E+02  0.36675705445E+03  0.37765975285E+03  0.00000000000E+00 0.  1.
         11    1    1    2    0    0 -0.58802896559E+01  0.33406045280E+02  0.15659371643E+03  0.16022525922E+03  0.00000000000E+00 0. -1.
</event>
<event>
 7    1  0.1068210E-005  0.1636998E+03  0.7561462E-02  0.1184582E+00
          2   -1    0    0  501    0  0.00000000000E+00  0.00000000000E+00  0.43393672757E+03  0.43393672757E+03  0.00000000000E+00 0. -1.
         -2   -1    0    0    0  501 -0.00000000000E+00 -0.00000000000E+00 -0.81379696172E+02  0.81379696172E+02  0.00000000000E+00 0.  1.
         23    2    1    2    0    0  0.85261955646E+02  0.96222454933E+02  0.74498375168E+02  0.19423062594E+03  0.12508863352E+03 0.  0.
          5    1    3    3  502    0  0.11372641171E+03  0.48938869702E+02  0.55105997778E+02  0.13558338054E+03  0.41800000000E+01 0. -1.
         -5    1    3    3    0  502 -0.28464456065E+02  0.47283585231E+02  0.19392377391E+02  0.58647245393E+02  0.41800000000E+01 0. -1.
        -11    1    1    2    0    0 -0.44159039994E+02 -0.97515820046E+02  0.13532546859E+03  0.17254662681E+03  0.00000000000E+00 0.  1.
         11    1    1    2    0    0 -0.41102915653E+02  0.12933651133E+01  0.14273318764E+03  0.14853917100E+03  0.00000000000E+00 0. -1.
</event>
<event>
 7    1  0.1068210E-005  0.1209861E+03  0.7561462E-02  0.1241479E+00
         -1   -1    0    0    0  501 -0.00000000000E+00  0.00000000000E+00  0.52669858878E+03  0.52669858878E+03  0.00000000000E+00 0.  1.
          1   -1    0    0  501    0  0.00000000000E+00 -0.00000000000E+00 -0.38317607595E+02  0.38317607595E+02  0.00000000000E+00 0. -1.
         23    2    1    2    0    0 -0.51203881409E+02 -0.69987240238E+02  0.32442329730E+03  0.35835468941E+03  0.12509019275E+03 0.  0.
          5    1    3    3  502    0  0.41481406828E+02 -0.15174245415E+02  0.89383100747E+02  0.99788656346E+02  0.41800000000E+01 0.  1.
         -5    1    3    3    0  502 -0.92685288237E+02 -0.54812994822E+02  0.23504019656E+03  0.25856603306E+03  0.41800000000E+01 0.  1.
        -11    1    1    2    0    0  0.28023195124E+02  0.19064471520E+02  0.50402896859E+00  0.33897014389E+02  0.00000000000E+00 0.  1.
         11    1    1    2    0    0  0.23180686285E+02  0.50922768717E+02  0.16345365491E+03  0.17276449257E+03  0.00000000000E+00 0. -1.
</event>
<event>
 6    1  0.1068210E-005  0.2307925E+03  0.7561462E-02  0.1126083E+00
          4   -1    0    0  501    0  0.00000000000E+00  0.00000000000E+00  0.10107606044E+03  0.10107606044E+03  0.00000000000E+00 0. -1.
         -4   -1    0    0    0  501 -0.00000000000E+00 -0.00000000000E+00 -0.89584033705E+03  0.89584033705E+03  0.00000000000E+00 0.  1.
          5    1    1    2  502    0  0.80971481524E+02 -0.13306666837E+03 -0.26993928655E+03  0.31168543417E+03  0.41800000000E+01 0. -1.
         -5    1    1    2    0  502 -0.32551421788E+02 -0.70747533649E+02 -0.43107570464E+03  0.43807367429E+03  0.41800000000E+01 0.  1.
        -11    1    1    2    0    0 -0.32129465265E+02  0.20839022075E+03 -0.92314469163E+02  0.23017547189E+03  0.00000000000E+00 0. -1.
         11    1    1    2    0    0 -0.16290594470E+02 -0.45760187360E+01 -0.14348162644E+01  0.16981817140E+02  0.00000000000E+00 0.  1.
</event>
<event>
 7    1  0.1068210E-005  0.1176911E+03  0.7561462E-02  0.1246955E+00
          1   -1    0    0  501    0  0.00000000000E+00  0.00000000000E+00  0.19981602055E+03  0.19981602055E+03  0.00000000000E+00 0. -1.
         -1   -1    0    0    0  501 -0.00000000000E+00 -0.00000000000E+00 -0.11110485326E+03  0.11110485326E+03  0.00000000000E+00 0.  1.
         23    2    1    2    0    0 -0.67184628384E+02 -0.16409554762E+02 -0.40834234037E+02  0.13756097465E+03  0.11168052337E+03 0.  0.
          5    1    3    3  502    0  0.25817327721E+02 -0.13412631150E+02 -0.32843238083E+02  0.44074752101E+02  0.41800000000E+01 0. -1.
         -5    1    3    3    0  502 -0.93001956105E+02 -0.29969236124E+01 -0.79909959535E+01  0.93486222551E+02  0.41800000000E+01 0.  1.
        -11    1    1    2    0    0 -0.63816031410E+01  0.36124365107E+02  0.26642808928E+02  0.45337995992E+02  0.00000000000E+00 0.  1.
         11    1    1    2    0    0  0.73566231525E+02 -0.19714810344E+02  0.10290259240E+03  0.12802190317E+03  0.00000000000E+00 0. -1.
</event>
<event>
 7    1  0.1068210E-005  0.1044667E+03  0.7561462E-02  0.1271174E+00
         -1   -1    0    0    0  501 -0.00000000000E+00  0.00000000000E+00  0.14113352620E+03  0.14113352620E+03  0.00000000000E+00 0.  1.
          1   -1    0    0  501    0  0.00000000000E+00 -0.00000000000E+00 -0.11206764914E+03  0.11206764914E+03  0.00000000000E+00 0. -1.
         23    2    1    2    0    0 -0.36878643284E+02 -0.50268905202E+02  0.26373531999E+02  0.14223389787E+03  0.12509165181E+03 0.  0.
          5    1    3    3  502    0 -0.37343585284E+02  0.11381269606E+02 -0.36836426241E+02  0.53837453115E+02  0.41800000000E+01 0. -1.
         -5    1    3    3    0  502  0.46494199948E+00 -0.61650174808E+02  0.63209958240E+02  0.88396444757E+02  0.41800000000E+01 0. -1.
        -11    1    1    2    0    0 -0.29120638799E+02  0.19586500821E+02 -0.11265009089E+02  0.36858418961E+02  0.00000000000E+00 0. -1.
         11    1    1    2    0    0  0.65999282084E+02  0.30682404380E+02  0.13957354156E+02  0.74108858507E+02  0.00000000000E+00 0.  1.
</event>
<event>
 7    1  0.1068210E-005  0.9725656E+02  0.7561462E-02  0.1286173E+00
         -3   -1    0    0    0  501 -0.00000000000E+00  0.00000000000E+00  0.10270379586E+03  0.10270379586E+03  0.00000000000E+00 0.  1.
          3   -1    0    0  501    0  0.00000000000E+00 -0.00000000000E+00 -0.15569508309E+03  0.15569508309E+03  0.00000000000E+00 0. -1.
         23    2    1    2    0    0  0.10592061204E+01 -0.55022826676E+02  0.70624851738E+01  0.13684229020E+03  0.12508916946E+03 0.  0.
          5    1    3    3  502    0 -0.35179579206E+02 -0.33820244522E+02  0.54554308716E+02  0.73314778402E+02  0.41800000000E+01 0. -1.
         -5    1    3    3    0  502  0.36238785327E+02 -0.21202582153E+02 -0.47491823542E+02  0.63527511798E+02  0.41800000000E+01 0. -1.
        -11    1    1    2    0    0  0.42891363654E+02  0.33387304272E+02 -0.18803088946E+02  0.57514670447E+02  0.00000000000E+00 0. -1.
         11    1    1    2    0    0 -0.43950569774E+02  0.21635522404E+02 -0.41250683458E+02  0.64041918295E+02  0.00000000000E+00 0.  1.
</event>
<event>
 7    1  0.1068210E-005  0.1798975E+03  0.7561462E-02  0.1167902E+00
         -2   -1    0    0    0  501 -0.00000000000E+00  0.00000000000E+00  0.18545332042E+04  0.18545332042E+04  0.00000000000E+00 0.  1.
          2   -1    0    0  501    0  0.00000000000E+00 -0.00000000000E+00 -0.20444648022E+02  0.20444648022E+02  0.00000000000E+00 0. -1.
         23    2    1    2    0    0 -0.14515820632E+03  0.62807101504E+02  0.11164519189E+04  0.11345179848E+04  0.12510209342E+03 0.  0.
          5    1    3    3  502    0  0.77348468253E+01 -0.24132546653E+02  0.15009884280E+03  0.15228047371E+03  0.41800000000E+01 0.  1.
         -5    1    3    3    0  502 -0.15289305315E+03  0.86939648157E+02  0.96635307608E+03  0.98223751108E+03  0.41800000000E+01 0.  1.
        -11    1    1    2    0    0  0.12016478638E+03 -0.51094309106E+02  0.68668074740E+03  0.69898544560E+03  0.00000000000E+00 0.  1.
         11    1    1    2    0    0  0.24993419937E+02 -0.11712792398E+02  0.30955889842E+02  0.41474421778E+02  0.00000000000E+00 0. -1.
</event>
<event>
 7    1  0.1068210E-005  0.9527130E+02  0.7561462E-02  0.1290566E+00
          1   -1    0    0  501    0  0.00000000000E+00  0.00000000000E+00  0.15610855237E+03  0.15610855237E+03  0.00000000000E+00 0. -1.
         -1   -1    0    0    0  501 -0.00000000000E+00 -0.00000000000E+00 -0.95718529696E+02  0.95718529696E+02  0.00000000000E+00 0.  1.
         23    2    1    2    0    0  0.16160356099E+01 -0.11222961463E+02 -0.20987537812E+02  0.12925885704E+03  0.12703861202E+03 0.  0.
          5    1    3    3  502    0 -0.11921852947E+02 -0.65430195202E+02  0.63057412493E+01  0.66936356299E+02  0.41800000000E+01 0. -1.
         -5    1    3    3    0  502  0.13537888557E+02  0.54207233739E+02 -0.27293279061E+02  0.62322500737E+02  0.41800000000E+01 0.  1.
        -11    1    1    2    0    0  0.17787971193E+02 -0.22673360316E+02  0.78247527098E+02  0.83385662342E+02  0.00000000000E+00 0. -1.
         11    1    1    2    0    0 -0.19404006803E+02  0.33896321780E+02  0.31300333917E+01  0.39182562694E+02  0.00000000000E+00 0.  1.
</event>
<event>
 7    1  0.1068210E-005  0.2150887E+03  0.7561462E-02  0.1137599E+00
          2   -1    0    0  501    0  0.00000000000E+00  0.00000000000E+00  0.19682337554E+04  0.19682337554E+04  0.00000000000E+00 0. -1.
         -2   -1    0    0    0  501 -0.00000000000E+00 -0.00000000000E+00 -0.27057024826E+02  0.27057024826E+02  0.00000000000E+00 0.  1.
         23    2    1    2    0    0  0.17753519649E+03 -0.92744135476E+02  0.10079355324E+04  0.10352300470E+04  0.12508793756E+03 0.  0.
          5    1    3    3  502    0  0.74648745857E+02 -0.62720200354E+02  0.74337837346E+03  0.74975671876E+03  0.41800000000E+01 0.  1.
         -5    1    3    3    0  502  0.10288645063E+03 -0.30023935122E+02  0.26455715891E+03  0.28547332824E+03  0.41800000000E+01 0.  1.
        -11    1    1    2    0    0 -0.92648864501E+02  0.10447185398E+03  0.58272230443E+03  0.59921904547E+03  0.00000000000E+00 0.  1.
         11    1    1    2    0    0 -0.84886331987E+02 -0.11727718507E+02  0.35051889379E+03  0.36084168779E+03  0.00000000000E+00 0. -1.
</event>
<event>
 7    1  0.1068210E-005  0.1313388E+03  0.7561462E-02  0.1225483E+00
          2   -1    0    0  501    0  0.00000000000E+00  0.00000000000E+00  0.59024294229E+03  0.59024294229E+03  0.00000000000E+00 0. -1.
         -2   -1    0    0    0  501 -0.00000000000E+00 -0.00000000000E+00 -0.39897089411E+02  0.39897089411E+02  0.00000000000E+00 0.  1.
         23    2    1    2    0    0  0.97441123524E+02  0.43805774930E+02  0.29241940512E+03  0.33551856422E+03  0.12509948032E+03 0.  0.
          5    1    3    3  502    0  0.53020367318E+02  0.58080315915E+02  0.61569866489E+02  0.99964010058E+02  0.41800000000E+01 0.  1.
         -5    1    3    3    0  502  0.44420756206E+02 -0.14274540985E+02  0.23084953863E+03  0.23555455416E+03  0.41800000000E+01 0.  1.
        -11    1    1    2    0    0 -0.14349929459E+02 -0.51662598422E+02  0.14192074529E+03  0.15171170850E+03  0.00000000000E+00 0.  1.
         11    1    1    2    0    0 -0.83091194066E+02  0.78568234916E+01  0.11600570247E+03  0.14290975898E+03  0.00000000000E+00 0. -1.
</event>
<event>
 7    1  0.1068210E-005  0.9519692E+02  0.7561462E-02  0.1290733E+00
         -2   -1    0    0    0  501 -0.00000000000E+00  0.00000000000E+00  0.18269931361E+03  0.18269931361E+03  0.00000000000E+00 0. -1.
          2   -1    0    0  501    0  0.00000000000E+00 -0.00000000000E+00 -0.10645864899E+03  0.10645864899E+03  0.00000000000E+00 0.  1.
         23    2    1    2    0    0  0.17979425783E+02 -0.70684451648E+02  0.90973334701E+02  0.17100479573E+03  0.12508773353E+03 0.  0.
          5    1    3    3  502    0  0.46908519447E+02 -0.27340460628E+02  0.10376309838E+03  0.11718431196E+03  0.41800000000E+01 0.  1.
         -5    1    3    3    0  502 -0.28929093664E+02 -0.43343991019E+02 -0.12789763682E+02  0.53820483765E+02  0.41800000000E+01 0.  1.
        -11    1    1    2    0    0 -0.16949026839E+01  0.66925620437E+02  0.27773453122E+02  0.72479487197E+02  0.00000000000E+00 0. -1.
         11    1    1    2    0    0 -0.16284523099E+02  0.37588312106E+01 -0.42506123211E+02  0.45673679675E+02  0.00000000000E+00 0.  1.
</event>
<event>
 7    1  0.1068210E-005  0.8552334E+02  0.7561462E-02  0.1314070E+00
         -1   -1    0    0    0  501 -0.00000000000E+00  0.00000000000E+00  0.13050975367E+03  0.13050975367E+03  0.00000000000E+00 0.  1.
          1   -1    0    0  501    0  0.00000000000E+00 -0.00000000000E+00 -0.10340162741E+03  0.10340162741E+03  0.00000000000E+00 0. -1.
         23    2    1    2    0    0  0.74440721648E+01 -0.35811932061E+02  0.37516616138E+02  0.13561884203E+03  0.12508822941E+03 0.  0.
          5    1    3    3  502    0 -0.37302489612E+02 -0.17882555499E+02  0.67076834970E+02  0.78917904889E+02  0.41800000000E+01 0.  1.
         -5    1    3    3    0  502  0.44746561777E+02 -0.17929376562E+02 -0.29560218831E+02  0.56700937136E+02  0.41800000000E+01 0.  1.
        -11    1    1    2    0    0  0.29600058901E+02  0.32394622556E+02 -0.32878021325E+02  0.54831919023E+02  0.00000000000E+00 0. -1.
         11    1    1    2    0    0 -0.37044131066E+02  0.34173095055E+01  0.22469531447E+02  0.43460620038E+02  0.00000000000E+00 0.  1.
</event>
<event>
 7    1  0.1068210E-005  0.1889479E+03  0.7561462E-02  0.1159414E+00
         -2   -1    0    0    0  501 -0.00000000000E+00  0.00000000000E+00  0.29555245915E+02  0.29555245915E+02  0.00000000000E+00 0.  1.
          2   -1    0    0  501    0  0.00000000000E+00 -0.00000000000E+00 -0.13485331612E+04  0.13485331612E+04  0.00000000000E+00 0. -1.
         23    2    1    2    0    0 -0.29838114095E+02 -0.16406397240E+03 -0.68031320821E+03  0.71153410908E+03  0.12508967593E+03 0.  0.
          5    1    3    3  502    0 -0.62816815661E+02 -0.90951800258E+02 -0.52672131695E+03  0.53821092560E+03  0.41800000000E+01 0.  1.
         -5    1    3    3    0  502  0.32978701566E+02 -0.73112172141E+02 -0.15359189126E+03  0.17332318348E+03  0.41800000000E+01 0.  1.
        -11    1    1    2    0    0  0.59122335714E+02  0.94244474034E+02 -0.44287986851E+03  0.45663995598E+03  0.00000000000E+00 0. -1.
         11    1    1    2    0    0 -0.29284221619E+02  0.69819498365E+02 -0.19578483851E+03  0.20991434200E+03  0.00000000000E+00 0.  1.
</event>
<event>
 7    1  0.1068210E-005  0.1077226E+03  0.7561462E-02  0.1264846E+00
         -3   -1    0    0    0  501 -0.00000000000E+00  0.00000000000E+00  0.26078609299E+02  0.26078609299E+02  0.00000000000E+00 0.  1.
          3   -1    0    0  501    0  0.00000000000E+00 -0.00000000000E+00 -0.72045181062E+03  0.72045181062E+03  0.00000000000E+00 0. -1.
         23    2    1    2    0    0  0.76254750601E+02 -0.23307014766E+02 -0.31707504931E+03  0.35006056451E+03  0.12509119874E+03 0.  0.
          5    1    3    3  502    0 -0.27003335270E+02  0.61673656180E+01 -0.14120635722E+03  0.14395806414E+03  0.41800000000E+01 0. -1.
         -5    1    3    3    0  502  0.10325808587E+03 -0.29474380384E+02 -0.17586869210E+03  0.20610250037E+03  0.41800000000E+01 0. -1.
        -11    1    1    2    0    0 -0.15855667261E+02  0.23016257720E+01 -0.24522091221E+01  0.16208423583E+02  0.00000000000E+00 0.  1.
         11    1    1    2    0    0 -0.60399083340E+02  0.21005388994E+02 -0.37484594289E+03  0.38026143183E+03  0.00000000000E+00 0. -1.
</event>
<event>
 6    1  0.1068210E-005  0.9079551E+02  0.7561462E-02  0.1300937E+00
          2   -1    0    0  501    0  0.00000000000E+00  0.00000000000E+00  0.18540983173E+03  0.18540983173E+03  0.00000000000E+00 0. -1.
         -2   -1    0    0    0  501 -0.00000000000E+00 -0.00000000000E+00 -0.11263685063E+03  0.11263685063E+03  0.00000000000E+00 0.  1.
          5    1    1    2  502    0 -0.22700765017E-01 -0.24202891840E+01  0.64120311140E+02  0.64301982984E+02  0.41800000000E+01 0. -1.
         -5    1    1    2    0  502 -0.64627330504E+02  0.27124496135E+02 -0.64872890895E+02  0.95594950242E+02  0.41800000000E+01 0.  1.
        -11    1    1    2    0    0  0.22407512399E+02  0.29992008219E+02  0.55118879601E+02  0.66631134295E+02  0.00000000000E+00 0. -1.
         11    1    1    2    0    0  0.42242518870E+02 -0.54696215171E+02  0.18406681250E+02  0.71518614843E+02  0.00000000000E+00 0.  1.
</event>
<event>
 7    1  0.1068210E-005  0.1276746E+03  0.7561462E-02  0.1230948E+00
         -2   -1    0    0    0  501 -0.00000000000E+00  0.00000000000E+00  0.12105579812E+03  0.12105579812E+03  0.00000000000E+00 0.  1.
          2   -1    0    0  501    0  0.00000000000E+00 -0.00000000000E+00 -0.21491243916E+03  0.21491243916E+03  0.00000000000E+00 0. -1.
         23    2    1    2    0    0 -0.87787710477E+02  0.57614260048E+02  0.12754376546E+02  0.16381659264E+03  0.12508843605E+03 0.  0.
          5    1    3    3  502    0 -0.13543981709E+00 -0.11579418311E+02  0.45685265623E+02  0.47315083932E+02  0.41800000000E+01 0.  1.
         -5    1    3    3    0  502 -0.87652270660E+02  0.69193678360E+02 -0.32930889077E+02  0.11650150871E+03  0.41800000000E+01 0.  1.
        -11    1    1    2    0    0  0.10496146122E+02  0.19475037791E+02 -0.35631078263E+02  0.41940671413E+02  0.00000000000E+00 0. -1.
         11    1    1    2    0    0  0.77291564355E+02 -0.77089297839E+02 -0.70979939319E+02  0.13021097322E+03  0.00000000000E+00 0.  1.
</event>
<event>
 6    1  0.1068210E-005  0.2345179E+03  0.7561462E-02  0.1123500E+00
         -2   -1    0    0    0  501 -0.00000000000E+00  0.00000000000E+00  0.16646984455E+03  0.16646984455E+03  0.00000000000E+00 0.  1.
          2   -1    0    0  501    0  0.00000000000E+00 -0.00000000000E+00 -0.34222487274E+03  0.34222487274E+03  0.00000000000E+00 0. -1.
          5    1    1    2  502    0  0.63414493702E+02  0.14221877428E+01 -0.26184532600E+02  0.68749711105E+02  0.41800000000E+01 0. -1.
         -5    1    1    2    0  502 -0.73004720590E+02 -0.11700263266E+03 -0.10282116063E+02  0.13835642229E+03  0.41800000000E+01 0.  1.
        -11    1    1    2    0    0 -0.87654745346E+02 -0.29805510520E+02 -0.48836192323E+02  0.10467424000E+03  0.00000000000E+00 0.  1.
         11    1    1    2    0    0  0.97244972234E+02  0.14538595544E+03 -0.90452187205E+02  0.19691434390E+03  0.00000000000E+00 0. -1.
</event>
<event>
 7    1  0.1068210E-005  0.8660575E+02  0.7561462E-02  0.1311286E+00
          3   -1    0    0  501    0  0.00000000000E+00  0.00000000000E+00  0.98667127715E+02  0.98667127715E+02  0.00000000000E+00 0. -1.
         -3   -1    0    0    0  501 -0.00000000000E+00 -0.00000000000E+00 -0.13146035603E+03  0.13146035603E+03  0.00000000000E+00 0.  1.
         23    2    1    2    0    0 -0.24882672051E+02  0.12849462567E+02  0.41555343104E+01  0.12825373434E+03  0.12508995103E+03 0.  0.
          5    1    3    3  502    0 -0.63402714476E+02  0.32257475363E+02  0.30529307145E+02  0.77523931237E+02  0.41800000000E+01 0.  1.
         -5    1    3    3    0  502  0.38520042425E+02 -0.19408012795E+02 -0.26373772834E+02  0.50729803100E+02  0.41800000000E+01 0.  1.
        -11    1    1    2    0    0 -0.55637475686E+01  0.15836474197E+02  0.23183707490E+02  0.28622255239E+02  0.00000000000E+00 0. -1.
         11    1    1    2    0    0  0.30446419620E+02 -0.28685936765E+02 -0.60132470117E+02  0.73251494169E+02  0.00000000000E+00 0.  1.
</event>
<event>
 7    1  0.1068210E-005  0.2080102E+03  0.7561462E-02  0.1143151E+00
         -2   -1    0    0    0  501 -0.00000000000E+00  0.00000000000E+00  0.57655572511E+02  0.57655572511E+02  0.00000000000E+00 0.  1.
          2   -1    0    0  501    0  0.00000000000E+00 -0.00000000000E+00 -0.10906035614E+04  0.10906035614E+04  0.00000000000E+00 0. -1.
         23    2    1    2    0    0  0.18779228346E+03 -0.58853797536E+02 -0.28235697653E+03  0.36619798801E+03  0.12508314440E+03 0.  0.
          5    1    3    3  502    0  0.15076264439E+03 -0.46551602425E+02 -0.11760583633E+03  0.19683757713E+03  0.41800000000E+01 0.  1.
         -5    1    3    3    0  502  0.37029639067E+02 -0.12302195111E+02 -0.16475114020E+03  0.16936041088E+03  0.41800000000E+01 0.  1.
        -11    1    1    2    0    0 -0.54348107962E+02 -0.26566485834E+02 -0.23602844049E+03  0.24365738185E+03  0.00000000000E+00 0.  1.
         11    1    1    2    0    0 -0.13344417550E+03  0.85420283370E+02 -0.51456257191E+03  0.53840376410E+03  0.00000000000E+00 0. -1.
</event>
<event>
 7    1  0.1068210E-005  0.8241414E+02  0.7561462E-02  0.1322337E+00
         -2   -1    0    0    0  501 -0.00000000000E+00  0.00000000000E+00  0.84225514557E+02  0.84225514557E+02  0.00000000000E+00 0. -1.
          2   -1    0    0  501    0  0.00000000000E+00 -0.00000000000E+00 -0.22948189427E+03  0.22948189427E+03  0.00000000000E+00 0.  1.
         23    2    1    2    0    0  0.46757996441E+02  0.99717109286E+01  0.14248860118E+01  0.13392047676E+03  0.12508764345E+03 0.  0.
          5    1    3    3  502    0 -0.30214075564E+02  0.15769225921E+02 -0.34501897059E+02  0.48676607822E+02  0.41800000000E+01 0. -1.
         -5    1    3    3    0  502  0.76972072006E+02 -0.57975149927E+01  0.35926783071E+02  0.85243868934E+02  0.41800000000E+01 0. -1.
        -11    1    1    2    0    0 -0.12068897285E+02  0.76404289399E+01  0.10586020957E+02  0.17779152841E+02  0.00000000000E+00 0.  1.
         11    1    1    2    0    0 -0.34689099157E+02 -0.17612139868E+02 -0.15726728668E+03  0.16200777923E+03  0.00000000000E+00 0. -1.
</event>
<event>
 7    1  0.1068210E-005  0.1692991E+03  0.7561462E-02  0.1178581E+00
          2   -1    0    0  501    0  0.00000000000E+00  0.00000000000E+00  0.16116240836E+03  0.16116240836E+03  0.00000000000E+00 0. -1.
         -2   -1    0    0    0  501 -0.00000000000E+00 -0.00000000000E+00 -0.23026931376E+03  0.23026931376E+03  0.00000000000E+00 0.  1.
         23    2    1    2    0    0  0.26325552148E+01  0.13379808526E+03 -0.11888760896E+03  0.21838091406E+03  0.12508837713E+03 0.  0.
          5    1    3    3  502    0 -0.33053845166E+02  0.13672004458E+03 -0.11572391366E+03  0.18219336943E+03  0.41800000000E+01 0.  1.
         -5    1    3    3    0  502  0.35686400380E+02 -0.29219593195E+01 -0.31636953018E+01  0.36187544630E+02  0.41800000000E+01 0.  1.
        -11    1    1    2    0    0 -0.46002495334E+02 -0.84162984107E+02  0.10919725038E+02  0.96534335164E+02  0.00000000000E+00 0.  1.
         11    1    1    2    0    0  0.43369940119E+02 -0.49635101153E+02  0.38860978525E+02  0.76516472895E+02  0.00000000000E+00 0. -1.
</event>
<event>
 7    1  0.1068210E-005  0.1054017E+03  0.7561462E-02  0.1269330E+00
          2   -1    0    0  501    0  0.00000000000E+00  0.00000000000E+00  0.30964389346E+03  0.30964389346E+03  0.00000000000E+00 0. -1.
         -2   -1    0    0    0  501 -0.00000000000E+00 -0.00000000000E+00 -0.53118685456E+02  0.53118685456E+02  0.00000000000E+00 0.  1.
         23    2    1    2    0    0 -0.16416438305E+02 -0.57669753966E+02  0.94601615548E+02  0.16791001236E+03  0.12509598962E+03 0.  0.
          5    1    3    3  502    0 -0.43303834509E+02  0.64158517857E+01  0.87495728703E+02  0.97925278547E+02  0.41800000000E+01 0. -1.
         -5    1    3    3    0  502  0.26887396204E+02 -0.64085605752E+02  0.71058868451E+01  0.69984733814E+02  0.41800000000E+01 0. -1.
        -11    1    1    2    0    0 -0.22919120582E+02 -0.47674495383E+01  0.90470771414E+01  0.25097096807E+02  0.00000000000E+00 0.  1.
         11    1    1    2    0    0  0.39335558886E+02  0.62437203504E+02  0.15287651531E+03  0.16975546975E+03  0.00000000000E+00 0. -1.
</event>
<event>
 7    1  0.1068210E-005  0.1062047E+03  0.7561462E-02  0.1267764E+00
         -4   -1    0    0    0  501 -0.00000000000E+00  0.00000000000E+00  0.36793532999E+03  0.36793532999E+03  0.00000000000E+00 0.  1.
          4   -1    0    0  501    0  0.00000000000E+00 -0.00000000000E+00 -0.34456439983E+02  0.34456439983E+02  0.00000000000E+00 0. -1.
         23    2    1    2    0    0  0.46675159788E+01  0.18097956421E+02  0.23409207842E+03  0.26607527818E+03  0.12509049024E+03 0.  0.
          5    1    3    3  502    0  0.59395869092E+02  0.25072668728E+02  0.16731079426E+03  0.17935128173E+03  0.41800000000E+01 0. -1.
         -5    1    3    3    0  502 -0.54728353113E+02 -0.69747123076E+01  0.66781284160E+02  0.86723996450E+02  0.41800000000E+01 0. -1.
        -11    1    1    2    0    0 -0.47657668388E+02 -0.10849510073E+02  0.43458754747E+02  0.65403582388E+02  0.00000000000E+00 0.  1.
         11    1    1    2    0    0  0.42990152409E+02 -0.72484463480E+01  0.55928056846E+02  0.70912909411E+02  0.00000000000E+00 0. -1.
</event>
<event>
 7    1  0.1068210E-005  0.8448087E+02  0.7561462E-02  0.1316796E+00
         -1   -1    0    0    0  501 -0.00000000000E+00  0.00000000000E+00  0.24617324000E+03  0.24617324000E+03  0.00000000000E+00 0.  1.
          1   -1    0    0  501    0  0.00000000000E+00 -0.00000000000E+00 -0.10115282222E+03  0.10115282222E+03  0.00000000000E+00 0. -1.
         23    2    1    2    0    0  0.19434585094E+02 -0.38890737081E+02  0.19414976345E+03  0.23501124191E+03  0.12508381449E+03 0.  0.
          5    1    3    3  502    0  0.15005344186E+02  0.41677179944E+02  0.10848330818E+03  0.11725292421E+03  0.41800000000E+01 0.  1.
         -5    1    3    3    0  502  0.44292409084E+01 -0.80567917024E+02  0.85666455268E+02  0.11775831770E+03  0.41800000000E+01 0.  1.
        -11    1    1    2    0    0 -0.38774245289E+01  0.11924056696E+02 -0.72380245774E+02  0.73458270653E+02  0.00000000000E+00 0. -1.
         11    1    1    2    0    0 -0.15557160566E+02  0.26966680385E+02  0.23250900109E+02  0.38856549663E+02  0.00000000000E+00 0.  1.
</event>
<event>
 7    1  0.1068210E-005  0.1027181E+03  0.7561462E-02  0.1274682E+00
         -3   -1    0    0    0  501 -0.00000000000E+00  0.00000000000E+00  0.32009092439E+02  0.32009092439E+02  0.00000000000E+00 0.  1.
          3   -1    0    0  501    0  0.00000000000E+00 -0.00000000000E+00 -0.42240720875E+03  0.42240720875E+03  0.00000000000E+00 0. -1.
         23    2    1    2    0    0  0.21308643127E+02 -0.50585735428E+02 -0.20364638729E+03  0.24522418455E+03  0.12510025872E+03 0.  0.
          5    1    3    3  502    0  0.42735849846E+02 -0.82144548328E+02 -0.17240011232E+03  0.19573796466E+03  0.41800000000E+01 0. -1.
         -5    1    3    3    0  502 -0.21427206720E+02  0.31558812900E+02 -0.31246274970E+02  0.49486219890E+02  0.41800000000E+01 0. -1.
        -11    1    1    2    0    0 -0.67423118959E+01 -0.99993892324E+01  0.26991956099E+00  0.12063142679E+02  0.00000000000E+00 0.  1.
         11    1    1    2    0    0 -0.14566331231E+02  0.60585124661E+02 -0.18702164859E+03  0.19712897397E+03  0.00000000000E+00 0. -1.
</event>
<event>
 7    1  0.1068210E-005  0.8358091E+02  0.7561462E-02  0.1319186E+00
          2   -1    0    0  501    0  0.00000000000E+00  0.00000000000E+00  0.41334135743E+03  0.41334135743E+03  0.00000000000E+00 0. -1.
         -2   -1    0    0    0  501 -0.00000000000E+00 -0.00000000000E+00 -0.33194271111E+02  0.33194271111E+02  0.00000000000E+00 0.  1.
         23    2    1    2    0    0 -0.37207402218E+02  0.90827490885E+01  0.17065109968E+03  0.21502672907E+03  0.12509120387E+03 0.  0.
          5    1    3    3  502    0 -0.50504364128E+02 -0.90306174149E+01  0.96012082887E+01  0.52363140161E+02  0.41800000000E+01 0.  1.
         -5    1    3    3    0  502  0.13296961910E+02  0.18113366503E+02  0.16104989139E+03  0.16266358891E+03  0.41800000000E+01 0.  1.
        -11    1    1    2    0    0 -0.27463931222E+02  0.40748473442E+00  0.30981158748E+02  0.41403692581E+02  0.00000000000E+00 0.  1.
         11    1    1    2    0    0  0.64671333440E+02 -0.94902338229E+01  0.17851482789E+03  0.19010520688E+03  0.00000000000E+00 0. -1.
</event>
<event>
 7    1  0.1068210E-005  0.3045347E+03  0.7561462E-02  0.1082995E+00
         -2   -1    0    0    0  501 -0.00000000000E+00  0.00000000000E+00  0.25663335944E+03  0.25663335944E+03  0.00000000000E+00 0. -1.
          2   -1    0    0  501    0  0.00000000000E+00 -0.00000000000E+00 -0.44163250528E+03  0.44163250528E+03  0.00000000000E+00 0.  1.
         23    2    1    2    0    0 -0.14261546244E+03 -0.25557806969E+03  0.36011188438E+02  0.32030521440E+03  0.12505720629E+03 0.  0.
          5    1    3    3  502    0 -0.23932663529E+02  0.65041314047E+01  0.19989403813E+02  0.32126698768E+02  0.41800000000E+01 0.  1.
         -5    1    3    3    0  502 -0.11868279891E+03 -0.26208220110E+03  0.16021784625E+02  0.28817851563E+03  0.41800000000E+01 0.  1.
        -11    1    1    2    0    0  0.12622932698E+03  0.18657705357E+03 -0.20645461042E+03  0.30556234401E+03  0.00000000000E+00 0. -1.
         11    1    1    2    0    0  0.16386135451E+02  0.69001016121E+02 -0.14555723854E+02  0.72398306317E+02  0.00000000000E+00 0.  1.
</event>
<event>
 7    1  0.1068210E-005  0.1001535E+03  0.7561462E-02  0.1279973E+00
         -2   -1    0    0    0  501 -0.00000000000E+00  0.00000000000E+00  0.32582522393E+02  0.32582522393E+02  0.00000000000E+00 0.  1.
          2   -1    0    0  501    0  0.00000000000E+00 -0.00000000000E+00 -0.54048916984E+03  0.54048916984E+03  0.00000000000E+00 0. -1.
         23    2    1    2    0    0 -0.67343567605E+02 -0.25196329019E+02 -0.29861238494E+03  0.33165803003E+03  0.12513065712E+03 0.  0.
          5    1    3    3  502    0  0.10879205680E+02 -0.25224812442E+01  0.80174619842E+01  0.14369137918E+02  0.41800000000E+01 0.  1.
         -5    1    3    3    0  502 -0.78222773284E+02 -0.22673847775E+02 -0.30662984692E+03  0.31728889211E+03  0.41800000000E+01 0.  1.
        -11    1    1    2    0    0  0.57634580675E+02  0.52433580251E+02 -0.91777095826E+02  0.12039128102E+03  0.00000000000E+00 0.  1.
         11    1    1    2    0    0  0.97089869297E+01 -0.27237251232E+02 -0.11751716668E+03  0.12102238118E+03  0.00000000000E+00 0. -1.
</event>
<event>
 7    1  0.1068210E-005  0.3268222E+03  0.7561462E-02  0.1072552E+00
         -1   -1    0    0    0  501 -0.00000000000E+00  0.00000000000E+00  0.34442333461E+03  0.34442333461E+03  0.00000000000E+00 0.  1.
          1   -1    0    0  501    0  0.00000000000E+00 -0.00000000000E+00 -0.33656537635E+03  0.33656537635E+03  0.00000000000E+00 0. -1.
         23    2    1    2    0    0  0.14251954169E+03 -0.28403100110E+03  0.54265879827E+02  0.34580274907E+03  0.12509726697E+03 0.  0.
          5    1    3    3  502    0 -0.46219461882E+01 -0.55218731388E+02  0.48361618862E+02  0.73666744611E+02  0.41800000000E+01 0. -1.
         -5    1    3    3    0  502  0.14714148788E+03 -0.22881226971E+03  0.59042609649E+01  0.27213600446E+03  0.41800000000E+01 0. -1.
        -11    1    1    2    0    0  0.79672538273E+01  0.27082117795E+02  0.13744124587E+02  0.31397757857E+02  0.00000000000E+00 0.  1.
         11    1    1    2    0    0 -0.15048679552E+03  0.25694888330E+03 -0.60152046154E+02  0.30378820404E+03  0.00000000000E+00 0. -1.
</event>
<event>
 7    1  0.1068210E-005  0.1100942E+03  0.7561462E-02  0.1260395E+00
          2   -1    0    0  501    0  0.00000000000E+00  0.00000000000E+00  0.26846438561E+03  0.26846438561E+03  0.00000000000E+00 0. -1.
         -2   -1    0    0    0  501 -0.00000000000E+00 -0.00000000000E+00 -0.51966437153E+02  0.51966437153E+02  0.00000000000E+00 0.  1.
         23    2    1    2    0    0 -0.11977805957E+02  0.42373489919E+02  0.10595966273E+03  0.16974601609E+03  0.12508908574E+03 0.  0.
          5    1    3    3  502    0 -0.13516175417E+02 -0.43536426545E+02  0.28072149972E+02  0.53699398863E+02  0.41800000000E+01 0.  1.
         -5    1    3    3    0  502  0.15383694600E+01  0.85909916463E+02  0.77887512756E+02  0.11604661723E+03  0.41800000000E+01 0.  1.
        -11    1    1    2    0    0 -0.22647925687E+02  0.10674309335E+02  0.72713206685E+02  0.76903054842E+02  0.00000000000E+00 0. -1.
         11    1    1    2    0    0  0.34625731644E+02 -0.53047799254E+02  0.37825079040E+02  0.73781751822E+02  0.00000000000E+00 0.  1.
</event>
<event>
 7    1  0.1068210E-005  0.1120151E+03  0.7561462E-02  0.1256883E+00
         -1   -1    0    0    0  501 -0.00000000000E+00  0.00000000000E+00  0.13084261584E+03  0.13084261584E+03  0.00000000000E+00 0. -1.
          1   -1    0    0  501    0  0.00000000000E+00 -0.00000000000E+00 -0.12326143658E+03  0.12326143658E+03  0.00000000000E+00 0.  1.
         23    2    1    2    0    0 -0.43873855424E+02 -0.15919839801E+02  0.50993435122E+02  0.14291935436E+03  0.12508898807E+03 0.  0.
          5    1    3    3  502    0 -0.60465372031E+01  0.52119576524E+02  0.61791839745E+01  0.52996845036E+02  0.41800000000E+01 0. -1.
         -5    1    3    3    0  502 -0.37827318221E+02 -0.68039416325E+02  0.44814251147E+02  0.89922509326E+02  0.41800000000E+01 0. -1.
        -11    1    1    2    0    0 -0.51101005811E+00 -0.29747526462E+02 -0.36557050804E+02  0.47133792818E+02  0.00000000000E+00 0.  1.
         11    1    1    2    0    0  0.44384865482E+02  0.45667366263E+02 -0.68552050619E+01  0.64050905238E+02  0.00000000000E+00 0. -1.
</event>
<event>
 7    1  0.1068210E-005  0.1114451E+03  0.7561462E-02  0.1257917E+00
          1   -1    0    0  501    0  0.00000000000E+00  0.00000000000E+00  0.19952793515E+02  0.19952793515E+02  0.00000000000E+00 0. -1.
         -1   -1    0    0    0  501 -0.00000000000E+00 -0.00000000000E+00 -0.80665691185E+03  0.80665691185E+03  0.00000000000E+00 0.  1.
         23    2    1    2    0    0 -0.49482155914E+02 -0.26092780249E+02 -0.50658958595E+03  0.52479502640E+03  0.12508994443E+03 0.  0.
          5    1    3    3  502    0 -0.78161350960E+02 -0.25560320824E+02 -0.47433590523E+03  0.48142969391E+03  0.41800000000E+01 0.  1.
         -5    1    3    3    0  502  0.28679195046E+02 -0.53245942500E+00 -0.32253680721E+02  0.43365332485E+02  0.41800000000E+01 0.  1.
        -11    1    1    2    0    0 -0.21437786675E+02  0.34009120645E+02 -0.84107463499E+02  0.93221587633E+02  0.00000000000E+00 0. -1.
         11    1    1    2    0    0  0.70919942589E+02 -0.79163403955E+01 -0.19600706889E+03  0.20859309134E+03  0.00000000000E+00 0.  1.
</event>
<event>
 7    1  0.1068210E-005  0.1073475E+03  0.7561462E-02  0.1265562E+00
          1   -1    0    0  501    0  0.00000000000E+00  0.00000000000E+00  0.33418729604E+03  0.33418729604E+03  0.00000000000E+00 0. -1.
         -1   -1    0    0    0  501 -0.00000000000E+00 -0.00000000000E+00 -0.56370004205E+02  0.56370004205E+02  0.00000000000E+00 0.  1.
         23    2    1    2    0    0 -0.19367576079E+02 -0.62200858949E+02  0.75969289657E+02  0.16019621997E+03  0.12508975203E+03 0.  0.
          5    1    3    3  502    0 -0.60618835134E+02 -0.27636452002E+02  0.82163699388E+02  0.10586199766E+03  0.41800000000E+01 0.  1.
         -5    1    3    3    0  502  0.41251259055E+02 -0.34564406947E+02 -0.61944097310E+01  0.54334222302E+02  0.41800000000E+01 0.  1.
        -11    1    1    2    0    0  0.39713112895E+02  0.14802445196E+02  0.15497021974E+03  0.16066117367E+03  0.00000000000E+00 0. -1.
         11    1    1    2    0    0 -0.20345536816E+02  0.47398413753E+02  0.46877782435E+02  0.69699906605E+02  0.00000000000E+00 0.  1.
</event>
<event>
 7    1  0.1068210E-005  0.1032245E+03  0.7561462E-02  0.1273658E+00
         -1   -1    0    0    0  501 -0.00000000000E+00  0.00000000000E+00  0.24431726927E+03  0.24431726927E+03  0.00000000000E+00 0.  1.
          1   -1    0    0  501    0  0.00000000000E+00 -0.00000000000E+00 -0.11480045512E+03  0.11480045512E+03  0.00000000000E+00 0. -1.
         23    2    1    2    0    0  0.57701559510E+01  0.81204648244E+01  0.20395438769E+03  0.23946569922E+03  0.12508873728E+03 0.  0.
          5    1    3    3  502    0 -0.14257885602E+02 -0.51826287343E+02  0.13734155908E+03  0.14754466311E+03  0.41800000000E+01 0. -1.
         -5    1    3    3    0  502  0.20028041553E+02  0.59946752167E+02  0.66612828611E+02  0.91921036109E+02  0.41800000000E+01 0. -1.
        -11    1    1    2    0    0  0.35569201206E+02 -0.26095086805E+02 -0.55144218599E+02  0.70618740252E+02  0.00000000000E+00 0. -1.
         11    1    1    2    0    0 -0.41339357157E+02  0.17974621981E+02 -0.19293354941E+02  0.49033284924E+02  0.00000000000E+00 0.  1.
</event>
<event>
 7    1  0.1068210E-005  0.8315462E+02  0.7561462E-02  0.1320330E+00
         -1   -1    0    0    0  501 -0.00000000000E+00  0.00000000000E+00  0.15004221620E+03  0.15004221620E+03  0.00000000000E+00 0.  1.
          1   -1    0    0  501    0  0.00000000000E+00 -0.00000000000E+00 -0.86041959331E+02  0.86041959331E+02  0.00000000000E+00 0. -1.
         23    2    1    2    0    0 -0.50174369339E+01 -0.28165449470E+02  0.19740856435E+02  0.12982863613E+03  0.12508919270E+03 0.  0.
          5    1    3    3  502    0 -0.46987543788E+02  0.15927906741E+02 -0.23485835553E+02  0.55050743464E+02  0.41800000000E+01 0.  1.
         -5    1    3    3    0  502  0.41970106854E+02 -0.44093356211E+02  0.43226691988E+02  0.74777892665E+02  0.41800000000E+01 0.  1.
        -11    1    1    2    0    0 -0.18923345374E+02  0.24997447254E+02  0.66439845016E+02  0.73465763285E+02  0.00000000000E+00 0.  1.
         11    1    1    2    0    0  0.23940782307E+02  0.31680022159E+01 -0.22180444586E+02  0.32789776113E+02  0.00000000000E+00 0. -1.
</event>
<event>
 7    1  0.1068210E-005  0.1787464E+03  0.7561462E-02  0.1169022E+00
         -2   -1    0    0    0  501 -0.00000000000E+00  0.00000000000E+00  0.18642300444E+03  0.18642300444E+03  0.00000000000E+00 0.  1.
          2   -1    0    0  501    0  0.00000000000E+00 -0.00000000000E+00 -0.18601158174E+03  0.18601158174E+03  0.00000000000E+00 0. -1.
         23    2    1    2    0    0 -0.14835956128E+03  0.28229129484E+01  0.10300929908E+02  0.19435328704E+03  0.12509421555E+03 0.  0.
          5    1    3    3  502    0 -0.59607385127E+02  0.62912099447E+02  0.23801287770E+01  0.86799251331E+02  0.41800000000E+01 0.  1.
         -5    1    3    3    0  502 -0.88752176152E+02 -0.60089186499E+02  0.79208011305E+01  0.10755403571E+03  0.41800000000E+01 0.  1.
        -11    1    1    2    0    0  0.33139268836E+02  0.28884805992E+02 -0.34728901004E+02  0.56023563980E+02  0.00000000000E+00 0. -1.
         11    1    1    2    0    0  0.11522029244E+03 -0.31707718940E+02  0.24839393796E+02  0.12205773517E+03  0.00000000000E+00 0.  1.
</event>
<event>
 7    1  0.1068210E-005  0.9133892E+02  0.7561462E-02  0.1299641E+00
          2   -1    0    0  501    0  0.00000000000E+00  0.00000000000E+00  0.28606132316E+03  0.28606132316E+03  0.00000000000E+00 0. -1.
         -2   -1    0    0    0  501 -0.00000000000E+00 -0.00000000000E+00 -0.45813745678E+02  0.45813745678E+02  0.00000000000E+00 0.  1.
         23    2    1    2    0    0  0.74195827919E+01 -0.27640252995E+02  0.16161756110E+03  0.20636548540E+03  0.12508974264E+03 0.  0.
          5    1    3    3  502    0  0.30145908723E+02 -0.70542771210E+02  0.11890616264E+03  0.14156696754E+03  0.41800000000E+01 0.  1.
         -5    1    3    3    0  502 -0.22726325931E+02  0.42902518215E+02  0.42711398456E+02  0.64798517866E+02  0.41800000000E+01 0.  1.
        -11    1    1    2    0    0  0.26392925837E+01 -0.14018224126E+02 -0.16115924370E+02  0.21522069865E+02  0.00000000000E+00 0.  1.
         11    1    1    2    0    0 -0.10058875376E+02  0.41658477121E+02  0.94745940753E+02  0.10398751357E+03  0.00000000000E+00 0. -1.
</event>
<event>
 7    1  0.1068210E-005  0.9200199E+02  0.7561462E-02  0.1298075E+00
          1   -1    0    0  501    0  0.00000000000E+00  0.00000000000E+00  0.42060301186E+03  0.42060301186E+03  0.00000000000E+00 0. -1.
         -1   -1    0    0    0  501 -0.00000000000E+00 -0.00000000000E+00 -0.37646341980E+02  0.37646341980E+02  0.00000000000E+00 0.  1.
         23    2    1    2    0    0  0.39774408296E+02  0.40768252637E+02  0.15852586115E+03  0.20981504946E+03  0.12509137600E+03 0.  0.
          5    1    3    3  502    0  0.63371097764E+01  0.69210793762E+02  0.14933820555E+03  0.16477155389E+03  0.41800000000E+01 0.  1.
         -5    1    3    3    0  502  0.33437298520E+02 -0.28442541125E+02  0.91876555907E+01  0.45043495570E+02  0.41800000000E+01 0.  1.
        -11    1    1    2    0    0 -0.35288911117E+02 -0.67000384867E+01  0.19952676394E+02  0.41089013846E+02  0.00000000000E+00 0.  1.
         11    1    1    2    0    0 -0.44854971799E+01 -0.34068214151E+02  0.20447813234E+03  0.20734529053E+03  0.00000000000E+00 0. -1.
</event>
<event>
 7    1  0.1068210E-005  0.1064148E+03  0.7561462E-02  0.1267357E+00
         -2   -1    0    0    0  501 -0.00000000000E+00  0.00000000000E+00  0.39049087950E+03  0.39049087950E+03  0.00000000000E+00 0.  1.
          2   -1    0    0  501    0  0.00000000000E+00 -0.00000000000E+00 -0.50909994841E+02  0.50909994841E+02  0.00000000000E+00 0. -1.
         23    2    1    2    0    0 -0.28402657069E+02  0.15513624658E+02  0.30816582465E+03  0.33415995361E+03  0.12509722475E+03 0.  0.
          5    1    3    3  502    0 -0.27772524448E+02  0.61653265759E+02  0.25400526507E+03  0.26288511821E+03  0.41800000000E+01 0.  1.
         -5    1    3    3    0  502 -0.63013262121E+00 -0.46139641101E+02  0.54160559575E+02  0.71274835402E+02  0.41800000000E+01 0.  1.
        -11    1    1    2    0    0 -0.33747546144E+02 -0.14118873095E+02  0.25917340879E+02  0.44832443682E+02  0.00000000000E+00 0.  1.
         11    1    1    2    0    0  0.62150203214E+02 -0.13947515626E+01  0.54977191322E+01  0.62408477045E+02  0.00000000000E+00 0. -1.
</event>
<event>
 7    1  0.1068210E-005  0.1497379E+03  0.7561462E-02  0.1200795E+00
         -2   -1    0    0    0  501 -0.00000000000E+00  0.00000000000E+00  0.10895133479E+03  0.10895133479E+03  0.00000000000E+00 0.  1.
          2   -1    0    0  501    0  0.00000000000E+00 -0.00000000000E+00 -0.23932719707E+03  0.23932719707E+03  0.00000000000E+00 0. -1.
         23    2    1    2    0    0 -0.77089505269E+01  0.10669528227E+03 -0.44473915266E+01  0.15767029058E+03  0.11574467617E+03 0.  0.
          5    1    3    3  502    0 -0.48666346775E+02  0.65057914543E+01 -0.48526806769E+00  0.49279270652E+02  0.41800000000E+01 0. -1.
         -5    1    3    3    0  502  0.40957396248E+02  0.10018949082E+03 -0.39621234589E+01  0.10839101992E+03  0.41800000000E+01 0.  1.
        -11    1    1    2    0    0 -0.72321265802E+01 -0.12098793137E+03 -0.98043696669E+02  0.15589403340E+03  0.00000000000E+00 0. -1.
         11    1    1    2    0    0  0.14941077107E+02  0.14292649097E+02 -0.27884774086E+02  0.34714207886E+02  0.00000000000E+00 0.  1.
</event>
<event>
 7    1  0.1068210E-005  0.1448432E+03  0.7561462E-02  0.1206957E+00
         -2   -1    0    0    0  501 -0.00000000000E+00  0.00000000000E+00  0.84863148036E+02  0.84863148036E+02  0.00000000000E+00 0.  1.
          2   -1    0    0  501    0  0.00000000000E+00 -0.00000000000E+00 -0.33390843681E+03  0.33390843681E+03  0.00000000000E+00 0. -1.
         23    2    1    2    0    0  0.94320004672E+02  0.77292744257E+02 -0.82619828149E+02  0.19324451719E+03  0.12508787241E+03 0.  0.
          5    1    3    3  502    0  0.65825683357E+02 -0.17853286629E+02 -0.76984506942E+01  0.68764082019E+02  0.41800000000E+01 0. -1.
         -5    1    3    3    0  502  0.28494321315E+02  0.95146030886E+02 -0.74921377455E+02  0.12448043517E+03  0.41800000000E+01 0. -1.
        -11    1    1    2    0    0 -0.41371929404E+02 -0.33557037980E+02 -0.14359284942E+03  0.15315553449E+03  0.00000000000E+00 0. -1.
         11    1    1    2    0    0 -0.52948075268E+02 -0.43735706277E+02 -0.22832611204E+02  0.72371533164E+02  0.00000000000E+00 0.  1.
</event>
<event>
 7    1  0.1068210E-005  0.1083051E+03  0.7561462E-02  0.1263741E+00
         -3   -1    0    0    0  501 -0.00000000000E+00  0.00000000000E+00  0.28372510082E+03  0.28372510082E+03  0.00000000000E+00 0.  1.
          3   -1    0    0  501    0  0.00000000000E+00 -0.00000000000E+00 -0.77409832309E+02  0.77409832309E+02  0.00000000000E+00 0. -1.
         23    2    1    2    0    0  0.64180117392E+02 -0.25641035857E+02  0.20045723780E+03  0.24619039505E+03  0.12510018481E+03 0.  0.
          5    1    3    3  502    0  0.39076177434E+02 -0.71935840369E+02  0.15955018584E+03  0.17937515707E+03  0.41800000000E+01 0.  1.
         -5    1    3    3    0  502  0.25103939958E+02  0.46294804512E+02  0.40907051960E+02  0.66815237980E+02  0.41800000000E+01 0.  1.
        -11    1    1    2    0    0 -0.50417872193E+02 -0.25051803237E+01  0.43029267708E+02  0.66330653882E+02  0.00000000000E+00 0.  1.
         11    1    1    2    0    0 -0.13762245199E+02  0.28146216180E+02 -0.37171236989E+02  0.48613884205E+02  0.00000000000E+00 0. -1.
</event>
<event>
 7    1  0.1068210E-005  0.6908639E+02  0.7561462E-02  0.1363228E+00
         -2   -1    0    0    0  501 -0.00000000000E+00  0.00000000000E+00  0.19202145159E+02  0.19202145159E+02  0.00000000000E+00 0.  1.
          2   -1    0    0  501    0  0.00000000000E+00 -0.00000000000E+00 -0.69213803354E+03  0.69213803354E+03  0.00000000000E+00 0. -1.
         23    2    1    2    0    0  0.50373076218E+01 -0.49322122281E+01 -0.31102726684E+03  0.33530632673E+03  0.12507066341E+03 0.  0.
          5    1    3    3  502    0 -0.73915675623E+01 -0.16599678525E+02  0.45893233240E+01  0.19202054232E+02  0.41800000000E+01 0. -1.
         -5    1    3    3    0  502  0.12428875184E+02  0.11667466297E+02 -0.31561659016E+03  0.31610427250E+03  0.41800000000E+01 0. -1.
        -11    1    1    2    0    0 -0.17113837109E+01  0.53382896037E+02 -0.19867486925E+03  0.20572886549E+03  0.00000000000E+00 0.  1.
         11    1    1    2    0    0 -0.33259239109E+01 -0.48450683809E+02 -0.16323375230E+03  0.17030498648E+03  0.00000000000E+00 0. -1.
</event>
<event>
 7    1  0.1068210E-005  0.2316111E+03  0.7561462E-02  0.1125511E+00
         -1   -1    0    0    0  501 -0.00000000000E+00  0.00000000000E+00  0.48441783222E+02  0.48441783222E+02  0.00000000000E+00 0.  1.
          1   -1    0    0  501    0  0.00000000000E+00 -0.00000000000E+00 -0.13902292854E+04  0.13902292854E+04  0.00000000000E+00 0. -1.
         23    2    1    2    0    0 -0.17582617136E+03  0.14157822372E+03 -0.47991192904E+03  0.54490526991E+03  0.12508819921E+03 0.  0.
          5    1    3    3  502    0 -0.15441805411E+02  0.40350133772E+01 -0.16399827794E+03  0.16482608487E+03  0.41800000000E+01 0.  1.
         -5    1    3    3    0  502 -0.16038436595E+03  0.13754321034E+03 -0.31591365110E+03  0.38007918505E+03  0.41800000000E+01 0.  1.
        -11    1    1    2    0    0  0.56827114417E+02 -0.94954276201E+01 -0.17417169805E+03  0.18345371210E+03  0.00000000000E+00 0.  1.
         11    1    1    2    0    0  0.11899905695E+03 -0.13208279610E+03 -0.68770387511E+03  0.71031208664E+03  0.00000000000E+00 0. -1.
</event>
<event>
 7    1  0.1068210E-005  0.1332099E+03  0.7561462E-02  0.1222769E+00
          1   -1    0    0  501    0  0.00000000000E+00  0.00000000000E+00  0.18507931531E+03  0.18507931531E+03  0.00000000000E+00 0. -1.
         -1   -1    0    0    0  501 -0.00000000000E+00 -0.00000000000E+00 -0.14871999469E+03  0.14871999469E+03  0.00000000000E+00 0.  1.
         23    2    1    2    0    0 -0.23240033914E+02  0.12303058741E+03  0.12981122528E+02  0.17745610694E+03  0.12508211595E+03 0.  0.
          5    1    3    3  502    0 -0.29740342154E+02  0.72889252150E+02 -0.52429588399E+02  0.94676634763E+02  0.41800000000E+01 0.  1.
         -5    1    3    3    0  502  0.65003082399E+01  0.50141335263E+02  0.65410710927E+02  0.82779472173E+02  0.41800000000E+01 0.  1.
        -11    1    1    2    0    0 -0.45616911397E+01 -0.10172114143E+03  0.48945120443E+02  0.11297621190E+03  0.00000000000E+00 0. -1.
         11    1    1    2    0    0  0.27801725054E+02 -0.21309445987E+02 -0.25566922348E+02  0.43366991163E+02  0.00000000000E+00 0.  1.
</event>
<event>
 7    1  0.1068210E-005  0.1319813E+03  0.7561462E-02  0.1224545E+00
         -2   -1    0    0    0  501 -0.00000000000E+00  0.00000000000E+00  0.42144253983E+03  0.42144253983E+03  0.00000000000E+00 0.  1.
          2   -1    0    0  501    0  0.00000000000E+00 -0.00000000000E+00 -0.44033281196E+02  0.44033281196E+02  0.00000000000E+00 0. -1.
         23    2    1    2    0    0 -0.81985217191E+02 -0.57057089570E+01  0.19147899024E+03  0.24302678578E+03  0.12507471348E+03 0.  0.
          5    1    3    3  502    0  0.31604502633E+02  0.11243103969E+02  0.32793659286E+02  0.47097223516E+02  0.41800000000E+01 0. -1.
         -5    1    3    3    0  502 -0.11358971982E+03 -0.16948812926E+02  0.15868533095E+03  0.19592956226E+03  0.41800000000E+01 0. -1.
        -11    1    1    2    0    0  0.10730711785E+01 -0.27683601571E+02  0.82089322186E+02  0.86638271535E+02  0.00000000000E+00 0.  1.
         11    1    1    2    0    0  0.80912146012E+02  0.33389310528E+02  0.10384094621E+03  0.13581076371E+03  0.00000000000E+00 0. -1.
</event>
<event>
 7    1  0.1068210E-005  0.1178969E+03  0.7561462E-02  0.1246607E+00
          4   -1    0    0  501    0  0.00000000000E+00  0.00000000000E+00  0.68549113945E+02  0.68549113945E+02  0.00000000000E+00 0. -1.
         -4   -1    0    0    0  501 -0.00000000000E+00 -0.00000000000E+00 -0.25364252333E+03  0.25364252333E+03  0.00000000000E+00 0.  1.
         23    2    1    2    0    0  0.10938849979E+02 -0.80693345862E+02 -0.11639065026E+03  0.18927726611E+03  0.12509206806E+03 0.  0.
          5    1    3    3  502    0 -0.43313565709E+02 -0.55610592198E+02 -0.16056636165E+02  0.72414714693E+02  0.41800000000E+01 0.  1.
         -5    1    3    3    0  502  0.54252415688E+02 -0.25082753664E+02 -0.10033401409E+03  0.11686255141E+03  0.41800000000E+01 0.  1.
        -11    1    1    2    0    0 -0.34867296169E+02  0.20398047929E+02 -0.52151103134E+02  0.65966250913E+02  0.00000000000E+00 0.  1.
         11    1    1    2    0    0  0.23928446190E+02  0.60295297933E+02 -0.16551655997E+02  0.66948120259E+02  0.00000000000E+00 0. -1.
</event>
<event>
 7    1  0.1068210E-005  0.1335927E+03  0.7561462E-02  0.1222220E+00
         -2   -1    0    0    0  501 -0.00000000000E+00  0.00000000000E+00  0.20247561268E+02  0.20247561268E+02  0.00000000000E+00 0.  1.
          2   -1    0    0  501    0  0.00000000000E+00 -0.00000000000E+00 -0.10857942891E+04  0.10857942891E+04  0.00000000000E+00 0. -1.
         23    2    1    2    0    0 -0.10026753797E+03  0.55500064172E+01 -0.57525590285E+03  0.59720234791E+03  0.12508760467E+03 0.  0.
          5    1    3    3  502    0 -0.43017141571E+02 -0.39992210244E+02 -0.43492223611E+03  0.43889027697E+03  0.41800000000E+01 0.  1.
         -5    1    3    3    0  502 -0.57250396401E+02  0.45542216661E+02 -0.14033366673E+03  0.15831207094E+03  0.41800000000E+01 0.  1.
        -11    1    1    2    0    0  0.39955469146E+02 -0.47117535240E+02 -0.19238469258E+03  0.20206031669E+03  0.00000000000E+00 0.  1.
         11    1    1    2    0    0  0.60312068826E+02  0.41567528823E+02 -0.29790613241E+03  0.30677918578E+03  0.00000000000E+00 0. -1.
</event>
<event>
 7    1  0.1068210E-005  0.7894378E+02  0.7561462E-02  0.1332076E+00
         -3   -1    0    0    0  501 -0.00000000000E+00  0.00000000000E+00  0.15972698929E+03  0.15972698929E+03  0.00000000000E+00 0.  1.
          3   -1    0    0  501    0  0.00000000000E+00 -0.00000000000E+00 -0.15372921083E+03  0.15372921083E+03  0.00000000000E+00 0. -1.
         23    2    1    2    0    0 -0.48442760121E+02  0.27252328517E+02  0.10146046754E+03  0.17038818603E+03  0.12509403282E+03 0.  0.
          5    1    3    3  502    0 -0.26274502070E+02  0.40814619134E+02 -0.15010388182E+02  0.50980062254E+02  0.41800000000E+01 0.  1.
         -5    1    3    3    0  502 -0.22168258051E+02 -0.13562290617E+02  0.11647085572E+03  0.11940812378E+03  0.41800000000E+01 0.  1.
        -11    1    1    2    0    0  0.55137320621E+02 -0.36626170826E+00 -0.13808808282E+02  0.56841371017E+02  0.00000000000E+00 0.  1.
         11    1    1    2    0    0 -0.66945604996E+01 -0.26886066809E+02 -0.81653880786E+02  0.86226643076E+02  0.00000000000E+00 0. -1.
</event>
<event>
 7    1  0.1068210E-005  0.1059015E+03  0.7561462E-02  0.1268354E+00
          4   -1    0    0  501    0  0.00000000000E+00  0.00000000000E+00  0.87643528911E+02  0.87643528911E+02  0.00000000000E+00 0. -1.
         -4   -1    0    0    0  501 -0.00000000000E+00 -0.00000000000E+00 -0.20578130996E+03  0.20578130996E+03  0.00000000000E+00 0.  1.
         23    2    1    2    0    0  0.46406950608E+01 -0.68326955365E+02 -0.10226142325E+03  0.17548594486E+03  0.12509120384E+03 0.  0.
          5    1    3    3  502    0  0.14655971215E+02  0.35276439661E+02 -0.26510600123E+02  0.46685211859E+02  0.41800000000E+01 0. -1.
         -5    1    3    3    0  502 -0.10015276154E+02 -0.10360339503E+03 -0.75750823124E+02  0.12880073300E+03  0.41800000000E+01 0. -1.
        -11    1    1    2    0    0  0.30716034417E+01  0.26024226103E+02 -0.54287438626E+02  0.60281183503E+02  0.00000000000E+00 0.  1.
         11    1    1    2    0    0 -0.77122985025E+01  0.42302729261E+02  0.38411080823E+02  0.57657710509E+02  0.00000000000E+00 0. -1.
</event>
<event>
 7    1  0.1068210E-005  0.1070544E+03  0.7561462E-02  0.1266124E+00
         -1   -1    0    0    0  501 -0.00000000000E+00  0.00000000000E+00  0.13522884098E+03  0.13522884098E+03  0.00000000000E+00 0.  1.
          1   -1    0    0  501    0  0.00000000000E+00 -0.00000000000E+00 -0.15237918361E+03  0.15237918361E+03  0.00000000000E+00 0. -1.
         23    2    1    2    0    0 -0.86701566760E+02 -0.18583088061E+01  0.26578013690E+02  0.15451477228E+03  0.12509120293E+03 0.  0.
          5    1    3    3  502    0 -0.37298892221E+02  0.22508127273E+02  0.71150250241E+02  0.83532351000E+02  0.41800000000E+01 0.  1.
         -5    1    3    3    0  502 -0.49402674540E+02 -0.24366436079E+02 -0.44572236551E+02  0.70982421275E+02  0.41800000000E+01 0.  1.
        -11    1    1    2    0    0 -0.11635154730E+01 -0.23595102251E+02 -0.33576045973E+02  0.41054031247E+02  0.00000000000E+00 0. -1.
         11    1    1    2    0    0  0.87865082233E+02  0.25453411057E+02 -0.10152310347E+02  0.92039221073E+02  0.00000000000E+00 0.  1.
</event>
<event>
 7    1  0.1068210E-005  0.1146723E+03  0.7561462E-02  0.1252154E+00
         -2   -1    0    0    0  501 -0.00000000000E+00  0.00000000000E+00  0.23840387193E+02  0.23840387193E+02  0.00000000000E+00 0.  1.
          2   -1    0    0  501    0  0.00000000000E+00 -0.00000000000E+00 -0.78420842522E+03  0.78420842522E+03  0.00000000000E+00 0. -1.
         23    2    1    2    0    0 -0.46933535450E+02 -0.57467615425E+02 -0.31500511897E+03  0.34695900771E+03  0.12508814685E+03 0.  0.
          5    1    3    3  502    0 -0.12065203319E+02  0.27876627881E+02 -0.18502501660E+03  0.18754840623E+03  0.41800000000E+01 0.  1.
         -5    1    3    3    0  502 -0.34868332130E+02 -0.85344243306E+02 -0.12998010237E+03  0.15941060148E+03  0.41800000000E+01 0.  1.
        -11    1    1    2    0    0  0.51123067466E+01  0.63881280117E+02 -0.36173609078E+03  0.36736896032E+03  0.00000000000E+00 0. -1.
         11    1    1    2    0    0  0.41821228703E+02 -0.64136646915E+01 -0.83626828276E+02  0.93720844387E+02  0.00000000000E+00 0.  1.
</event>
<event>
 7    1  0.1068210E-005  0.9650220E+02  0.7561462E-02  0.1287828E+00
          1   -1    0    0  501    0  0.00000000000E+00  0.00000000000E+00  0.63137746951E+02  0.63137746951E+02  0.00000000000E+00 0. -1.
         -1   -1    0    0    0  501 -0.00000000000E+00 -0.00000000000E+00 -0.22983349431E+03  0.22983349431E+03  0.00000000000E+00 0.  1.
         23    2    1    2    0    0  0.36472945880E+02  0.26808205178E+01 -0.15186272038E+03  0.19230602054E+03  0.11216887766E+03 0.  0.
          5    1    3    3  502    0  0.24349292059E+02 -0.52057120335E+02 -0.51561626580E+02  0.77323382860E+02  0.41800000000E+01 0. -1.
         -5    1    3    3    0  502  0.12123653821E+02  0.54737940853E+02 -0.10030109379E+03  0.11498263768E+03  0.41800000000E+01 0.  1.
        -11    1    1    2    0    0 -0.48917033651E+02  0.20352673107E+02  0.20396971316E+02  0.56772739257E+02  0.00000000000E+00 0.  1.
         11    1    1    2    0    0  0.12444087771E+02 -0.23033493625E+02 -0.35229998304E+02  0.43892481469E+02  0.00000000000E+00 0. -1.
</event>
<event>
 7    1  0.1068210E-005  0.1140085E+03  0.7561462E-02  0.1253322E+00
          2   -1    0    0  501    0  0.00000000000E+00  0.00000000000E+00  0.19509309023E+03  0.19509309023E+03  0.00000000000E+00 0. -1.
         -2   -1    0    0    0  501 -0.00000000000E+00 -0.00000000000E+00 -0.11033870965E+03  0.11033870965E+03  0.00000000000E+00 0.  1.
         23    2    1    2    0    0  0.58405469326E+02  0.75699800105E+02  0.21076698872E+02  0.15886598116E+03  0.12511000820E+03 0.  0.
          5    1    3    3  502    0  0.26727314021E+02  0.30336661492E+02  0.72562999911E+02  0.83171652029E+02  0.41800000000E+01 0. -1.
         -5    1    3    3    0  502  0.31678155305E+02  0.45363138613E+02 -0.51486301038E+02  0.75694329134E+02  0.41800000000E+01 0. -1.
        -11    1    1    2    0    0 -0.18504409132E+02 -0.88160984987E+02  0.40486479053E+02  0.98761973539E+02  0.00000000000E+00 0.  1.
         11    1    1    2    0    0 -0.39901060195E+02  0.12461184882E+02  0.23191202648E+02  0.47803845176E+02  0.00000000000E+00 0. -1.
</event>
<event>
 7    1  0.1068210E-005  0.9002690E+02  0.7561462E-02  0.1302787E+00
          2   -1    0    0  501    0  0.00000000000E+00  0.00000000000E+00  0.16322718266E+03  0.16322718266E+03  0.00000000000E+00 0. -1.
         -2   -1    0    0    0  501 -0.00000000000E+00 -0.00000000000E+00 -0.10172775164E+03  0.10172775164E+03  0.00000000000E+00 0.  1.
         23    2    1    2    0    0 -0.38498238421E+02 -0.58143046076E+02  0.40316132016E+02  0.14878563235E+03  0.12509614592E+03 0.  0.
          5    1    3    3  502    0 -0.21455540539E+02 -0.24608915374E+02 -0.44824544000E+02  0.55611609224E+02  0.41800000000E+01 0.  1.
         -5    1    3    3    0  502 -0.17042697882E+02 -0.33534130702E+02  0.85140676016E+02  0.93174023126E+02  0.41800000000E+01 0.  1.
        -11    1    1    2    0    0  0.16126723498E+02  0.77834344803E+02  0.30201287439E+02  0.85031607092E+02  0.00000000000E+00 0.  1.
         11    1    1    2    0    0  0.22371514923E+02 -0.19691298728E+02 -0.90179884331E+01  0.31137694855E+02  0.00000000000E+00 0. -1.
</event>
<event>
 7    1  0.1068210E-005  0.1167489E+03  0.7561462E-02  0.1248559E+00
         -3   -1    0    0    0  501 -0.00000000000E+00  0.00000000000E+00  0.27507408691E+03  0.27507408691E+03  0.00000000000E+00 0.  1.
          3   -1    0    0  501    0  0.00000000000E+00 -0.00000000000E+00 -0.50595357019E+02  0.50595357019E+02  0.00000000000E+00 0. -1.
         23    2    1    2    0    0  0.46226572327E+02 -0.91965173685E+01  0.13093443654E+03  0.18711425603E+03  0.12508575545E+03 0.  0.
          5    1    3    3  502    0 -0.18216727753E+02 -0.51358526148E+02  0.70087190472E+02  0.88877635243E+02  0.41800000000E+01 0. -1.
         -5    1    3    3    0  502  0.64443300080E+02  0.42162008780E+02  0.60847246068E+02  0.98236620786E+02  0.41800000000E+01 0. -1.
        -11    1    1    2    0    0 -0.72132625176E+02 -0.47688393849E+01  0.72441844824E+02  0.10234099045E+03  0.00000000000E+00 0.  1.
         11    1    1    2    0    0  0.25906052849E+02  0.13965356753E+02  0.21102448533E+02  0.36214197458E+02  0.00000000000E+00 0. -1.
</event>
<event>
 7    1  0.1068210E-005  0.9342750E+02  0.7561462E-02  0.1294758E+00
         -2   -1    0    0    0  501 -0.00000000000E+00  0.00000000000E+00  0.29965761618E+03  0.29965761618E+03  0.00000000000E+00 0.  1.
          2   -1    0    0  501    0  0.00000000000E+00 -0.00000000000E+00 -0.52023724960E+02  0.52023724960E+02  0.00000000000E+00 0. -1.
         23    2    1    2    0    0 -0.41391611884E+02 -0.32910377334E+02  0.18101744313E+03  0.22629843138E+03  0.12508919560E+03 0.  0.
          5    1    3    3  502    0 -0.77810672503E+02 -0.49198900300E+02  0.10058524017E+03  0.13641809076E+03  0.41800000000E+01 0. -1.
         -5    1    3    3    0  502  0.36419060619E+02  0.16288522967E+02  0.80432202959E+02  0.89880340618E+02  0.41800000000E+01 0. -1.
        -11    1    1    2    0    0  0.15161803787E+02  0.20686548443E+02 -0.20976530565E+02  0.33133493856E+02  0.00000000000E+00 0. -1.
         11    1    1    2    0    0  0.26229808097E+02  0.12223828891E+02  0.87592978648E+02  0.92249415900E+02  0.00000000000E+00 0.  1.
</event>
<event>
 7    1  0.1068210E-005  0.1345125E+03  0.7561462E-02  0.1220910E+00
         -1   -1    0    0    0  501 -0.00000000000E+00  0.00000000000E+00  0.74058150245E+02  0.74058150245E+02  0.00000000000E+00 0.  1.
          1   -1    0    0  501    0  0.00000000000E+00 -0.00000000000E+00 -0.33067092935E+03  0.33067092935E+03  0.00000000000E+00 0. -1.
         23    2    1    2    0    0  0.57296936808E+02 -0.94266278431E+02 -0.10686925789E+03  0.19808772440E+03  0.12509451650E+03 0.  0.
          5    1    3    3  502    0  0.87509904242E+02 -0.59471405752E+02 -0.10874103026E+03  0.15177916690E+03  0.41800000000E+01 0. -1.
         -5    1    3    3    0  502 -0.30212967433E+02 -0.34794872679E+02  0.18717723687E+01  0.46308557499E+02  0.41800000000E+01 0. -1.
        -11    1    1    2    0    0 -0.46478389934E+02  0.39363410793E+02 -0.18008688913E+02  0.63514027714E+02  0.00000000000E+00 0.  1.
         11    1    1    2    0    0 -0.10818546874E+02  0.54902867638E+02 -0.13173483230E+03  0.14312732749E+03  0.00000000000E+00 0. -1.
</event>
<event>
 7    1  0.1068210E-005  0.9060403E+02  0.7561462E-02  0.1301396E+00
          1   -1    0    0  501    0  0.00000000000E+00  0.00000000000E+00  0.13507558730E+02  0.13507558730E+02  0.00000000000E+00 0. -1.
         -1   -1    0    0    0  501 -0.00000000000E+00 -0.00000000000E+00 -0.10678757444E+04  0.10678757444E+04  0.00000000000E+00 0.  1.
         23    2    1    2    0    0 -0.27201380714E+02 -0.46336449205E+02 -0.69591691167E+03  0.70767162079E+03  0.11666959022E+03 0.  0.
          5    1    3    3  502    0 -0.46492324627E+02 -0.56093748943E+02 -0.23142881585E+03  0.24266193382E+03  0.41800000000E+01 0. -1.
         -5    1    3    3    0  502  0.19290943913E+02  0.97572997385E+01 -0.46448809583E+03  0.46500968697E+03  0.41800000000E+01 0.  1.
        -11    1    1    2    0    0  0.28291722328E+02 -0.98943453288E+01 -0.38176046321E+02  0.48535864415E+02  0.00000000000E+00 0. -1.
         11    1    1    2    0    0 -0.10903416145E+01  0.56230794534E+02 -0.32027522765E+03  0.32517581790E+03  0.00000000000E+00 0.  1.
</event>
<event>
 7    1  0.1068210E-005  0.1695904E+03  0.7561462E-02  0.1178276E+00
          1   -1    0    0  501    0  0.00000000000E+00  0.00000000000E+00  0.31064832456E+03  0.31064832456E+03  0.00000000000E+00 0. -1.
         -1   -1    0    0    0  501 -0.00000000000E+00 -0.00000000000E+00 -0.13274046699E+03  0.13274046699E+03  0.00000000000E+00 0.  1.
         23    2    1    2    0    0 -0.13346154257E+03 -0.59598292839E+02 -0.75110472811E+01  0.19010174398E+03  0.12131907260E+03 0.  0.
          5    1    3    3  502    0 -0.37502291589E+01 -0.58289539843E+02  0.90840506889E+01  0.59259826617E+02  0.41800000000E+01 0. -1.
         -5    1    3    3    0  502 -0.12971131341E+03 -0.13087529960E+01 -0.16595097970E+02  0.13084191736E+03  0.41800000000E+01 0.  1.
        -11    1    1    2    0    0  0.17347670160E+02 -0.48800198554E+01 -0.71253986183E+01  0.19378533464E+02  0.00000000000E+00 0.  1.
         11    1    1    2    0    0  0.11611387241E+03  0.64478312694E+02  0.19254430347E+03  0.23390851411E+03  0.00000000000E+00 0. -1.
</event>
<event>
 7    1  0.1068210E-005  0.1119252E+03  0.7561462E-02  0.1257046E+00
         -1   -1    0    0    0  501 -0.00000000000E+00  0.00000000000E+00  0.52505187471E+02  0.52505187471E+02  0.00000000000E+00 0.  1.
          1   -1    0    0  501    0  0.00000000000E+00 -0.00000000000E+00 -0.31550067450E+03  0.31550067450E+03  0.00000000000E+00 0. -1.
         23    2    1    2    0    0  0.36078361237E+02 -0.28835861259E+02 -0.78025019215E+02  0.15449060067E+03  0.12508511912E+03 0.  0.
          5    1    3    3  502    0  0.78323772486E+02 -0.60692144234E+01 -0.70690474236E+02  0.10576419171E+03  0.41800000000E+01 0.  1.
         -5    1    3    3    0  502 -0.42245411249E+02 -0.22766646836E+02 -0.73345449795E+01  0.48726408956E+02  0.41800000000E+01 0.  1.
        -11    1    1    2    0    0  0.18718905929E+02 -0.17214997076E+02 -0.16094460641E+02  0.30096265995E+02  0.00000000000E+00 0.  1.
         11    1    1    2    0    0 -0.54797267166E+02  0.46050858335E+02 -0.16887600717E+03  0.18341899531E+03  0.00000000000E+00 0. -1.
</event>
<event>
 7    1  0.1068210E-005  0.1001868E+03  0.7561462E-02  0.1279904E+00
          2   -1    0    0  501    0  0.00000000000E+00  0.00000000000E+00  0.41685182700E+03  0.41685182700E+03  0.00000000000E+00 0. -1.
         -2   -1    0    0    0  501 -0.00000000000E+00 -0.00000000000E+00 -0.31812660620E+02  0.31812660620E+02  0.00000000000E+00 0.  1.
         23    2    1    2    0    0 -0.18370692180E+02 -0.32225256873E+02  0.18827719730E+03  0.22907265924E+03  0.12510008264E+03 0.  0.
          5    1    3    3  502    0  0.13647167047E+02  0.41494411576E+02  0.10225124816E+03  0.11126913998E+03  0.41800000000E+01 0. -1.
         -5    1    3    3    0  502 -0.32017859226E+02 -0.73719668449E+02  0.86025949141E+02  0.11780351926E+03  0.41800000000E+01 0. -1.
        -11    1    1    2    0    0  0.41685270702E+02  0.32239011689E+02  0.55938198531E+02  0.76851140024E+02  0.00000000000E+00 0.  1.
         11    1    1    2    0    0 -0.23314578522E+02 -0.13754816465E-01  0.14082377055E+03  0.14274068836E+03  0.00000000000E+00 0. -1.
</event>
<event>
 7    1  0.1068210E-005  0.1076958E+03  0.7561462E-02  0.1264897E+00
         -3   -1    0    0    0  501 -0.00000000000E+00  0.00000000000E+00  0.24032171270E+02  0.24032171270E+02  0.00000000000E+00 0.  1.
          3   -1    0    0  501    0  0.00000000000E+00 -0.00000000000E+00 -0.64569736460E+03  0.64569736460E+03  0.00000000000E+00 0. -1.
         23    2    1    2    0    0  0.49810420502E+02  0.32878050860E+02 -0.30398289420E+03  0.33408665850E+03  0.12508497594E+03 0.  0.
          5    1    3    3  502    0 -0.22216259093E+02 -0.83228305749E+01 -0.61217063001E+01  0.24855167771E+02  0.41800000000E+01 0. -1.
         -5    1    3    3    0  502  0.72026679595E+02  0.41200881435E+02 -0.29786118790E+03  0.30923149073E+03  0.41800000000E+01 0. -1.
        -11    1    1    2    0    0 -0.71515869648E+02 -0.33802104048E+01 -0.20307292592E+03  0.21532431046E+03  0.00000000000E+00 0.  1.
         11    1    1    2    0    0  0.21705449146E+02 -0.29497840456E+02 -0.11460937322E+03  0.12031856691E+03  0.00000000000E+00 0. -1.
</event>
<event>
 7    1  0.1068210E-005  0.1046198E+03  0.7561462E-02  0.1270871E+00
          3   -1    0    0  501    0  0.00000000000E+00  0.00000000000E+00  0.54937230172E+02  0.54937230172E+02  0.00000000000E+00 0. -1.
         -3   -1    0    0    0  501 -0.00000000000E+00 -0.00000000000E+00 -0.29156427460E+03  0.29156427460E+03  0.00000000000E+00 0.  1.
         23    2    1    2    0    0  0.17489930071E+02  0.35445958194E+02 -0.20581812549E+03  0.24004402231E+03  0.11703725159E+03 0.  0.
          5    1    3    3  502    0 -0.41405742286E+02  0.24140052475E+02 -0.15173644539E+03  0.15918102552E+03  0.41800000000E+01 0. -1.
         -5    1    3    3    0  502  0.58895672357E+02  0.11305905720E+02 -0.54081680108E+02  0.80862996790E+02  0.41800000000E+01 0.  1.
        -11    1    1    2    0    0  0.36799389573E+02 -0.27944535291E+02 -0.71223673174E+01  0.46752756515E+02  0.00000000000E+00 0.  1.
         11    1    1    2    0    0 -0.54289319644E+02 -0.75014229033E+01 -0.23686551621E+02  0.59704725949E+02  0.00000000000E+00 0. -1.
</event>
<event>
 7    1  0.1068210E-005  0.2339102E+03  0.7561462E-02  0.1123917E+00
          4   -1    0    0  501    0  0.00000000000E+00  0.00000000000E+00  0.25755763347E+03  0.25755763347E+03  0.00000000000E+00 0. -1.
         -4   -1    0    0    0  501 -0.00000000000E+00 -0.00000000000E+00 -0.30351122257E+03  0.30351122257E+03  0.00000000000E+00 0.  1.
         23    2    1    2    0    0  0.11227332502E+03 -0.20137527870E+03 -0.13858623135E+03  0.29666699867E+03  0.12509141537E+03 0.  0.
          5    1    3    3  502    0  0.55238795094E+02 -0.52546587120E+02 -0.11120622717E+03  0.13489538785E+03  0.41800000000E+01 0. -1.
         -5    1    3    3    0  502  0.57034529921E+02 -0.14882869158E+03 -0.27380004185E+02  0.16177161082E+03  0.41800000000E+01 0. -1.
        -11    1    1    2    0    0 -0.48144531653E+02  0.11307988151E+03  0.26005153567E+01  0.12292972875E+03  0.00000000000E+00 0. -1.
         11    1    1    2    0    0 -0.64128793362E+02  0.88295397186E+02  0.90032126892E+02  0.14147212862E+03  0.00000000000E+00 0.  1.
</event>
<event>
 7    1  0.1068210E-005  0.2885791E+03  0.7561462E-02  0.1091093E+00
         -2   -1    0    0    0  501 -0.00000000000E+00  0.00000000000E+00  0.85755144093E+02  0.85755144093E+02  0.00000000000E+00 0.  1.
          2   -1    0    0  501    0  0.00000000000E+00 -0.00000000000E+00 -0.10053396277E+04  0.10053396277E+04  0.00000000000E+00 0. -1.
         23    2    1    2    0    0 -0.22269395100E+00 -0.26861614270E+03 -0.38434791765E+03  0.48531005974E+03  0.12509136886E+03 0.  0.
          5    1    3    3  502    0  0.58892045984E+02 -0.14507634741E+03 -0.17236926941E+03  0.23290353603E+03  0.41800000000E+01 0. -1.
         -5    1    3    3    0  502 -0.59114739935E+02 -0.12353979529E+03 -0.21197864825E+03  0.25240652371E+03  0.41800000000E+01 0. -1.
        -11    1    1    2    0    0 -0.44610852166E+02  0.11064638566E+03 -0.21378461901E+03  0.24481955420E+03  0.00000000000E+00 0.  1.
         11    1    1    2    0    0  0.44833546117E+02  0.15796975704E+03 -0.32145194694E+03  0.36096515786E+03  0.00000000000E+00 0. -1.
</event>
<event>
 7    1  0.1068210E-005  0.8773733E+02  0.7561462E-02  0.1308425E+00
         -2   -1    0    0    0  501 -0.00000000000E+00  0.00000000000E+00  0.23062964659E+02  0.23062964659E+02  0.00000000000E+00 0. -1.
          2   -1    0    0  501    0  0.00000000000E+00 -0.00000000000E+00 -0.50519547154E+03  0.50519547154E+03  0.00000000000E+00 0.  1.
         23    2    1    2    0    0 -0.44949696989E+01 -0.21961409792E+01 -0.27201744416E+03  0.29944163161E+03  0.12508706179E+03 0.  0.
          5    1    3    3  502    0 -0.41723016482E+02 -0.27112252640E+02 -0.23761435230E+03  0.24280431867E+03  0.41800000000E+01 0. -1.
         -5    1    3    3    0  502  0.37228046783E+02  0.24916111661E+02 -0.34403091865E+02  0.56637312944E+02  0.41800000000E+01 0. -1.
        -11    1    1    2    0    0 -0.35766885864E+02  0.14282386351E+02 -0.49086867102E+02  0.62392124552E+02  0.00000000000E+00 0. -1.
         11    1    1    2    0    0  0.40261855563E+02 -0.12086245372E+02 -0.16102819562E+03  0.16642468004E+03  0.00000000000E+00 0.  1.
</event>
<event>
 7    1  0.1068210E-005  0.1317139E+03  0.7561462E-02  0.1224934E+00
          2   -1    0    0  501    0  0.00000000000E+00  0.00000000000E+00  0.63848747508E+02  0.63848747508E+02  0.00000000000E+00 0. -1.
         -2   -1    0    0    0  501 -0.00000000000E+00 -0.00000000000E+00 -0.37850356709E+03  0.37850356709E+03  0.00000000000E+00 0.  1.
         23    2    1    2    0    0 -0.94001649071E+02 -0.20387430029E+02 -0.24913654388E+03  0.29490277545E+03  0.12508665851E+03 0.  0.
          5    1    3    3  502    0  0.31019839064E+02 -0.37794405230E+01 -0.53545701924E+02  0.62137985007E+02  0.41800000000E+01 0. -1.
         -5    1    3    3    0  502 -0.12502148813E+03 -0.16607989506E+02 -0.19559084196E+03  0.23276479044E+03  0.41800000000E+01 0. -1.
        -11    1    1    2    0    0  0.92906036537E+02  0.79717819101E+01 -0.13815085962E+02  0.94265250925E+02  0.00000000000E+00 0. -1.
         11    1    1    2    0    0  0.10956125342E+01  0.12415648118E+02 -0.51703189736E+02  0.53184288224E+02  0.00000000000E+00 0.  1.
</event>
<event>
 7    1  0.1068210E-005  0.2911001E+03  0.7561462E-02  0.1089776E+00
          4   -1    0    0  501    0  0.00000000000E+00  0.00000000000E+00  0.15963046593E+03  0.15963046593E+03  0.00000000000E+00 0. -1.
         -4   -1    0    0    0  501 -0.00000000000E+00 -0.00000000000E+00 -0.94882233013E+03  0.94882233013E+03  0.00000000000E+00 0.  1.
         23    2    1    2    0    0  0.28682062880E+03 -0.37371612560E+02 -0.73584208721E+03  0.80048405477E+03  0.12509370124E+03 0.  0.
          5    1    3    3  502    0  0.94987258512E+01 -0.97085861896E+01 -0.16104932632E+03  0.16167510738E+03  0.41800000000E+01 0.  1.
         -5    1    3    3    0  502  0.27732190295E+03 -0.27663026370E+02 -0.57479276090E+03  0.63880894739E+03  0.41800000000E+01 0.  1.
        -11    1    1    2    0    0 -0.23659369143E+03  0.31937914513E+02 -0.78789798824E+02  0.25140492757E+03  0.00000000000E+00 0.  1.
         11    1    1    2    0    0 -0.50226937376E+02  0.54336980467E+01  0.25440021832E+02  0.56563813728E+02  0.00000000000E+00 0. -1.
</event>
<event>
 7    1  0.1068210E-005  0.1142158E+03  0.7561462E-02  0.1252956E+00
          1   -1    0    0  501    0  0.00000000000E+00  0.00000000000E+00  0.54111904845E+03  0.54111904845E+03  0.00000000000E+00 0. -1.
         -1   -1    0    0    0  501 -0.00000000000E+00 -0.00000000000E+00 -0.25067431333E+02  0.25067431333E+02  0.00000000000E+00 0.  1.
         23    2    1    2    0    0 -0.14739952539E+02 -0.30883433331E+02  0.24107031068E+03  0.27374713444E+03  0.12510614001E+03 0.  0.
          5    1    3    3  502    0  0.53960672891E+02  0.33949511672E+00  0.10061539392E+03  0.11424884844E+03  0.41800000000E+01 0. -1.
         -5    1    3    3    0  502 -0.68700625430E+02 -0.31222928448E+02  0.14045491676E+03  0.15949828600E+03  0.41800000000E+01 0. -1.
        -11    1    1    2    0    0  0.44453238542E+02 -0.12471708127E+02  0.11027495141E+03  0.11954998464E+03  0.00000000000E+00 0.  1.
         11    1    1    2    0    0 -0.29713286002E+02  0.43355141458E+02  0.16470635503E+03  0.17288936070E+03  0.00000000000E+00 0. -1.
</event>
<event>
 7    1  0.1068210E-005  0.8691224E+02  0.7561462E-02  0.1310506E+00
          2   -1    0    0  501    0  0.00000000000E+00  0.00000000000E+00  0.54147763047E+02  0.54147763047E+02  0.00000000000E+00 0. -1.
         -2   -1    0    0    0  501 -0.00000000000E+00 -0.00000000000E+00 -0.45452140056E+03  0.45452140056E+03  0.00000000000E+00 0.  1.
         23    2    1    2    0    0 -0.21640389015E+02 -0.51546224320E+02 -0.37166590626E+03  0.39611798871E+03  0.12509434610E+03 0.  0.
          5    1    3    3  502    0 -0.34753235043E+02 -0.53596656849E+00 -0.32104272022E+03  0.32294577751E+03  0.41800000000E+01 0. -1.
         -5    1    3    3    0  502  0.13112846028E+02 -0.51010257752E+02 -0.50623186037E+02  0.73172211196E+02  0.41800000000E+01 0. -1.
        -11    1    1    2    0    0  0.43696877000E+02  0.21473317501E+02 -0.49849283373E+02  0.69681213227E+02  0.00000000000E+00 0.  1.
         11    1    1    2    0    0 -0.22056487986E+02  0.30072906819E+02  0.21141552125E+02  0.42869961664E+02  0.00000000000E+00 0. -1.
</event>
<event>
 7    1  0.1068210E-005  0.1123079E+03  0.7561462E-02  0.1256355E+00
          2   -1    0    0  501    0  0.00000000000E+00  0.00000000000E+00  0.43608589922E+03  0.43608589922E+03  0.00000000000E+00 0. -1.
         -2   -1    0    0    0  501 -0.00000000000E+00 -0.00000000000E+00 -0.29165556715E+02  0.29165556715E+02  0.00000000000E+00 0.  1.
         23    2    1    2    0    0  0.24004716801E+02 -0.10272856658E+02  0.25026519269E+03  0.28099988500E+03  0.12508601315E+03 0.  0.
          5    1    3    3  502    0  0.63968144225E+02 -0.41849765700E+02  0.15604683271E+03  0.17381430540E+03  0.41800000000E+01 0.  1.
         -5    1    3    3    0  502 -0.39963427424E+02  0.31576909043E+02  0.94218359986E+02  0.10718557960E+03  0.41800000000E+01 0.  1.
        -11    1    1    2    0    0 -0.46203561232E+02 -0.27043102819E+02  0.89064867687E+02  0.10391654891E+03  0.00000000000E+00 0. -1.
         11    1    1    2    0    0  0.22198844432E+02  0.37315959477E+02  0.67590282131E+02  0.80335022029E+02  0.00000000000E+00 0.  1.
</event>
<event>
 7    1  0.1068210E-005  0.7216596E+02  0.7561462E-02  0.1352879E+00
         -3   -1    0    0    0  501 -0.00000000000E+00  0.00000000000E+00  0.11416091699E+03  0.11416091699E+03  0.00000000000E+00 0. -1.
          3   -1    0    0  501    0  0.00000000000E+00 -0.00000000000E+00 -0.12799625966E+03  0.12799625966E+03  0.00000000000E+00 0.  1.
         23    2    1    2    0    0 -0.26827264120E+02 -0.30567292064E+02  0.28233653170E+02  0.13453194614E+03  0.12509054288E+03 0.  0.
          5    1    3    3  502    0 -0.56027088186E+02 -0.17965076900E+02 -0.31397345684E+02  0.66820987082E+02  0.41800000000E+01 0.  1.
         -5    1    3    3    0  502  0.29199824066E+02 -0.12602215164E+02  0.59630998854E+02  0.67710959060E+02  0.41800000000E+01 0.  1.
        -11    1    1    2    0    0  0.16565830362E+02 -0.41418598882E+01  0.25665480033E+02  0.30826913634E+02  0.00000000000E+00 0. -1.
         11    1    1    2    0    0  0.10261433758E+02  0.34709151952E+02 -0.67734475880E+02  0.76798316875E+02  0.00000000000E+00 0.  1.
</event>
<event>
 7    1  0.1068210E-005  0.1132046E+03  0.7561462E-02  0.1254748E+00
          1   -1    0    0  501    0  0.00000000000E+00  0.00000000000E+00  0.74374437435E+02  0.74374437435E+02  0.00000000000E+00 0. -1.
         -1   -1    0    0    0  501 -0.00000000000E+00 -0.00000000000E+00 -0.45489085383E+03  0.45489085383E+03  0.00000000000E+00 0.  1.
         23    2    1    2    0    0 -0.40804966896E+01 -0.68026464683E+02 -0.40034839520E+03  0.42140622601E+03  0.11251719615E+03 0.  0.
          5    1    3    3  502    0  0.46260528321E+02 -0.48487147138E+02 -0.13729205915E+03  0.15283200523E+03  0.41800000000E+01 0. -1.
         -5    1    3    3    0  502 -0.50341025010E+02 -0.19539317544E+02 -0.26305633605E+03  0.26857422078E+03  0.41800000000E+01 0.  1.
        -11    1    1    2    0    0 -0.33562980342E+02  0.84181170392E+01 -0.75669451630E-01  0.34602659865E+02  0.00000000000E+00 0.  1.
         11    1    1    2    0    0  0.37643477031E+02  0.59608347643E+02  0.19907648255E+02  0.73256405391E+02  0.00000000000E+00 0. -1.
</event>
<event>
 7    1  0.1068210E-005  0.9947740E+02  0.7561462E-02  0.1281399E+00
         -1   -1    0    0    0  501 -0.00000000000E+00  0.00000000000E+00  0.30650665703E+03  0.30650665703E+03  0.00000000000E+00 0.  1.
          1   -1    0    0  501    0  0.00000000000E+00 -0.00000000000E+00 -0.43061448630E+02  0.43061448630E+02  0.00000000000E+00 0. -1.
         23    2    1    2    0    0 -0.25311191727E+02  0.14419292341E+02  0.18114031857E+03  0.22205053445E+03  0.12508418133E+03 0.  0.
          5    1    3    3  502    0 -0.63732662437E+02  0.14985117640E+02  0.42605777704E+02  0.78224872680E+02  0.41800000000E+01 0. -1.
         -5    1    3    3    0  502  0.38421470710E+02 -0.56582529843E+00  0.13853454087E+03  0.14382566177E+03  0.41800000000E+01 0. -1.
        -11    1    1    2    0    0 -0.33806830913E+02  0.16860865233E+00  0.15703919634E+02  0.37276578935E+02  0.00000000000E+00 0. -1.
         11    1    1    2    0    0  0.59118022640E+02 -0.14587900993E+02  0.66600970196E+02  0.90240992278E+02  0.00000000000E+00 0.  1.
</event>
<event>
 7    1  0.1068210E-005  0.1172521E+03  0.7561462E-02  0.1247700E+00
          2   -1    0    0  501    0  0.00000000000E+00  0.00000000000E+00  0.89433935001E+03  0.89433935001E+03  0.00000000000E+00 0. -1.
         -2   -1    0    0    0  501 -0.00000000000E+00 -0.00000000000E+00 -0.19852376499E+02  0.19852376499E+02  0.00000000000E+00 0.  1.
         23    2    1    2    0    0 -0.71463388484E+02 -0.21336638327E+02  0.42761697464E+03  0.45173668622E+03  0.12508992226E+03 0.  0.
          5    1    3    3  502    0  0.26819625970E+02  0.21025465867E+02  0.15667727278E+03  0.16039514568E+03  0.41800000000E+01 0. -1.
         -5    1    3    3    0  502 -0.98283014454E+02 -0.42362104194E+02  0.27093970186E+03  0.29134154054E+03  0.41800000000E+01 0. -1.
        -11    1    1    2    0    0 -0.13334339659E+01 -0.12653337303E+02  0.55491217566E+01  0.13880840872E+02  0.00000000000E+00 0.  1.
         11    1    1    2    0    0  0.72796822450E+02  0.33989975630E+02  0.44132087712E+03  0.44857419942E+03  0.00000000000E+00 0. -1.
</event>
<event>
 6    1  0.1068210E-005  0.1536915E+03  0.7561462E-02  0.1196009E+00
          2   -1    0    0  501    0  0.00000000000E+00  0.00000000000E+00  0.35388921048E+03  0.35388921048E+03  0.00000000000E+00 0. -1.
         -2   -1    0    0    0  501 -0.00000000000E+00 -0.00000000000E+00 -0.88779240625E+02  0.88779240625E+02  0.00000000000E+00 0.  1.
          5    1    1    2  502    0  0.44223681618E+02 -0.10000541679E+03  0.15301689468E+03  0.18811820715E+03  0.41800000000E+01 0. -1.
         -5    1    1    2    0  502 -0.19474273464E+02  0.12402480325E+03  0.34314239183E+02  0.13021650648E+03  0.41800000000E+01 0.  1.
        -11    1    1    2    0    0  0.10447108400E+02 -0.34153380374E+02 -0.27962466178E+01  0.35824774389E+02  0.00000000000E+00 0. -1.
         11    1    1    2    0    0 -0.35196516555E+02  0.10133993910E+02  0.80575082601E+02  0.88508963085E+02  0.00000000000E+00 0.  1.
</event>
<event>
 7    1  0.1068210E-005  0.1033495E+03  0.7561462E-02  0.1273406E+00
         -3   -1    0    0    0  501 -0.00000000000E+00  0.00000000000E+00  0.12060408913E+03  0.12060408913E+03  0.00000000000E+00 0.  1.
          3   -1    0    0  501    0  0.00000000000E+00 -0.00000000000E+00 -0.13927201329E+03  0.13927201329E+03  0.00000000000E+00 0. -1.
         23    2    1    2    0    0  0.42439411314E+02 -0.15733386939E+02  0.43980396701E+02  0.14010875187E+03  0.12509014333E+03 0.  0.
          5    1    3    3  502    0 -0.11015179126E+02 -0.49615843149E+02 -0.15352869735E+02  0.53256446291E+02  0.41800000000E+01 0.  1.
         -5    1    3    3    0  502  0.53454590440E+02  0.33882456210E+02  0.59333266435E+02  0.86852305575E+02  0.41800000000E+01 0.  1.
        -11    1    1    2    0    0 -0.13182123275E+02  0.47379443782E+02 -0.58566454272E+02  0.76476203051E+02  0.00000000000E+00 0. -1.
         11    1    1    2    0    0 -0.29257288039E+02 -0.31646056843E+02 -0.40818665832E+01  0.43291147501E+02  0.00000000000E+00 0.  1.
</event>
<event>
 7    1  0.1068210E-005  0.1336948E+03  0.7561462E-02  0.1222074E+00
         -2   -1    0    0    0  501 -0.00000000000E+00  0.00000000000E+00  0.36593057299E+02  0.36593057299E+02  0.00000000000E+00 0.  1.
          2   -1    0    0  501    0  0.00000000000E+00 -0.00000000000E+00 -0.71743059950E+03  0.71743059950E+03  0.00000000000E+00 0. -1.
         23    2    1    2    0    0  0.11208336304E+03  0.45733491480E+02 -0.35186394532E+03  0.39256857646E+03  0.12509044206E+03 0.  0.
          5    1    3    3  502    0  0.49716879423E+02  0.28076201979E+02 -0.30816668704E+02  0.65016772353E+02  0.41800000000E+01 0.  1.
         -5    1    3    3    0  502  0.62366483620E+02  0.17657289501E+02 -0.32104727661E+03  0.32755180410E+03  0.41800000000E+01 0.  1.
        -11    1    1    2    0    0 -0.43392872897E+02  0.22058576757E+02 -0.71582731552E+02  0.86565638005E+02  0.00000000000E+00 0.  1.
         11    1    1    2    0    0 -0.68690490146E+02 -0.67792068237E+02 -0.25739086534E+03  0.27488944234E+03  0.00000000000E+00 0. -1.
</event>
<event>
 7    1  0.1068210E-005  0.1136836E+03  0.7561462E-02  0.1253896E+00
          1   -1    0    0  501    0  0.00000000000E+00  0.00000000000E+00  0.10184060033E+03  0.10184060033E+03  0.00000000000E+00 0. -1.
         -1   -1    0    0    0  501 -0.00000000000E+00 -0.00000000000E+00 -0.26344157828E+03  0.26344157828E+03  0.00000000000E+00 0.  1.
         23    2    1    2    0    0 -0.22160247542E+02  0.57778861302E+02 -0.20230469545E+03  0.24577279409E+03  0.12509037984E+03 0.  0.
          5    1    3    3  502    0 -0.22150565747E+02  0.96823809461E+02 -0.15689728482E+03  0.18574102407E+03  0.41800000000E+01 0. -1.
         -5    1    3    3    0  502 -0.96817944341E-02 -0.39044948159E+02 -0.45407410630E+02  0.60031770011E+02  0.41800000000E+01 0. -1.
        -11    1    1    2    0    0  0.43132867548E+02 -0.50667750490E+02  0.60404946909E+02  0.89868920176E+02  0.00000000000E+00 0. -1.
         11    1    1    2    0    0 -0.20972620006E+02 -0.71111108123E+01 -0.19701229413E+02  0.29640464357E+02  0.00000000000E+00 0.  1.
</event>
<event>
 7    1  0.1068210E-005  0.2627140E+03  0.7561462E-02  0.1105523E+00
         -1   -1    0    0    0  501 -0.00000000000E+00  0.00000000000E+00  0.12701200979E+03  0.12701200979E+03  0.00000000000E+00 0.  1.
          1   -1    0    0  501    0  0.00000000000E+00 -0.00000000000E+00 -0.60878871592E+03  0.60878871592E+03  0.00000000000E+00 0. -1.
         23    2    1    2    0    0  0.33175421223E+02  0.24975273260E+03 -0.18773206802E+03  0.33818182713E+03  0.12508630150E+03 0.  0.
          5    1    3    3  502    0 -0.32209525308E+02  0.76030258013E+02 -0.13895223770E+02  0.83836765787E+02  0.41800000000E+01 0.  1.
         -5    1    3    3    0  502  0.65384946530E+02  0.17372247459E+03 -0.17383684425E+03  0.25434506134E+03  0.41800000000E+01 0.  1.
        -11    1    1    2    0    0 -0.46901318420E+02 -0.18127146162E+03 -0.15924911996E+03  0.24580349606E+03  0.00000000000E+00 0.  1.
         11    1    1    2    0    0  0.13725897197E+02 -0.68481270983E+02 -0.13479551815E+03  0.15181540252E+03  0.00000000000E+00 0. -1.
</event>
<event>
 6    1  0.1068210E-005  0.1261585E+03  0.7561462E-02  0.1233270E+00
          1   -1    0    0  501    0  0.00000000000E+00  0.00000000000E+00  0.95415639900E+02  0.95415639900E+02  0.00000000000E+00 0. -1.
         -1   -1    0    0    0  501 -0.00000000000E+00 -0.00000000000E+00 -0.23683286060E+03  0.23683286060E+03  0.00000000000E+00 0.  1.
          5    1    1    2  502    0 -0.74773557818E+02  0.62756237091E+01  0.13357949918E+02  0.76330699117E+02  0.41800000000E+01 0. -1.
         -5    1    1    2    0  502  0.81888202155E+02 -0.50286935092E+02 -0.10432376873E+03  0.14189917060E+03  0.41800000000E+01 0.  1.
        -11    1    1    2    0    0 -0.55313460812E+01 -0.18058833283E+02 -0.48333010860E+02  0.51892168848E+02  0.00000000000E+00 0.  1.
         11    1    1    2    0    0 -0.15832982555E+01  0.62070144666E+02 -0.21183910231E+01  0.62126461937E+02  0.00000000000E+00 0. -1.
</event>
<event>
 7    1  0.1068210E-005  0.1417148E+03  0.7561462E-02  0.1211040E+00
         -1   -1    0    0    0  501 -0.00000000000E+00  0.00000000000E+00  0.26717806900E+03  0.26717806900E+03  0.00000000000E+00 0.  1.
          1   -1    0    0  501    0  0.00000000000E+00 -0.00000000000E+00 -0.12184155755E+03  0.12184155755E+03  0.00000000000E+00 0. -1.
         23    2    1    2    0    0 -0.90176795864E+02  0.31005372578E+02  0.19254021665E+03  0.24862211474E+03  0.12509209914E+03 0.  0.
          5    1    3    3  502    0 -0.53083731164E+02 -0.45772980228E+02  0.10526104323E+03  0.12653224038E+03  0.41800000000E+01 0. -1.
         -5    1    3    3    0  502 -0.37093064700E+02  0.76778352806E+02  0.87279173423E+02  0.12208987436E+03  0.41800000000E+01 0. -1.
        -11    1    1    2    0    0 -0.46861776938E+01 -0.32628904223E+02 -0.28756196338E+02  0.43743850768E+02  0.00000000000E+00 0. -1.
         11    1    1    2    0    0  0.94862973558E+02  0.16235316452E+01 -0.18447508867E+02  0.96653661031E+02  0.00000000000E+00 0.  1.
</event>
<event>
 7    1  0.1068210E-005  0.8411730E+02  0.7561462E-02  0.1317757E+00
         -1   -1    0    0    0  501 -0.00000000000E+00  0.00000000000E+00  0.13020407699E+03  0.13020407699E+03  0.00000000000E+00 0.  1.
          1   -1    0    0  501    0  0.00000000000E+00 -0.00000000000E+00 -0.14234901521E+03  0.14234901521E+03  0.00000000000E+00 0. -1.
         23    2    1    2    0    0 -0.32532811674E+02  0.42430479310E+02  0.35878262500E+02  0.14072893377E+03  0.12513454227E+03 0.  0.
          5    1    3    3  502    0 -0.10823445760E+02 -0.21848949532E+02 -0.34780820429E+02  0.42681394582E+02  0.41800000000E+01 0. -1.
         -5    1    3    3    0  502 -0.21709365914E+02  0.64279428841E+02  0.70659082929E+02  0.98047539189E+02  0.41800000000E+01 0. -1.
        -11    1    1    2    0    0  0.64295206653E+01 -0.48332881707E+02  0.24465916138E+02  0.54552609860E+02  0.00000000000E+00 0.  1.
         11    1    1    2    0    0  0.26103291008E+02  0.59024023971E+01 -0.72489116861E+02  0.77271548572E+02  0.00000000000E+00 0. -1.
</event>
<event>
 7    1  0.1068210E-005  0.1337409E+03  0.7561462E-02  0.1222008E+00
         -3   -1    0    0    0  501 -0.00000000000E+00  0.00000000000E+00  0.65887218908E+02  0.65887218908E+02  0.00000000000E+00 0.  1.
          3   -1    0    0  501    0  0.00000000000E+00 -0.00000000000E+00 -0.31174317229E+03  0.31174317229E+03  0.00000000000E+00 0. -1.
         23    2    1    2    0    0  0.22365443871E+02  0.89727922715E+02 -0.13811124322E+03  0.20802307186E+03  0.12509024632E+03 0.  0.
          5    1    3    3  502    0  0.59493936229E+01  0.11035263318E+03 -0.60732137798E+02  0.12617037646E+03  0.41800000000E+01 0.  1.
         -5    1    3    3    0  502  0.16416050248E+02 -0.20624710463E+02 -0.77379105426E+02  0.81852695398E+02  0.41800000000E+01 0.  1.
        -11    1    1    2    0    0 -0.44505607154E+02 -0.76118389545E+01 -0.28720161567E+02  0.53512025199E+02  0.00000000000E+00 0.  1.
         11    1    1    2    0    0  0.22140163284E+02 -0.82116083760E+02 -0.79024548590E+02  0.11609529414E+03  0.00000000000E+00 0. -1.
</event>
<event>
 7    1  0.1068210E-005  0.8251243E+02  0.7561462E-02  0.1322069E+00
          2   -1    0    0  501    0  0.00000000000E+00  0.00000000000E+00  0.28627202736E+03  0.28627202736E+03  0.00000000000E+00 0. -1.
         -2   -1    0    0    0  501 -0.00000000000E+00 -0.00000000000E+00 -0.46501898449E+02  0.46501898449E+02  0.00000000000E+00 0.  1.
         23    2    1    2    0    0  0.39767449784E+02 -0.17730772510E+02  0.13290621817E+03  0.18766071846E+03  0.12512654421E+03 0.  0.
          5    1    3    3  502    0  0.65028267922E+02 -0.23353026663E+02  0.20433794006E+02  0.72173761304E+02  0.41800000000E+01 0.  1.
         -5    1    3    3    0  502 -0.25260818139E+02  0.56222541524E+01  0.11247242417E+03  0.11548695715E+03  0.41800000000E+01 0.  1.
        -11    1    1    2    0    0 -0.21199761187E+02 -0.18977304929E+02 -0.22111747513E+01  0.28538697772E+02  0.00000000000E+00 0.  1.
         11    1    1    2    0    0 -0.18567688596E+02  0.36708077439E+02  0.10907508549E+03  0.11657450958E+03  0.00000000000E+00 0. -1.
</event>
<event>
 7    1  0.1518111E-005  0.2484064E+03  0.7561462E-02  0.1114316E+00
          3   -1    0    0  501    0  0.00000000000E+00  0.00000000000E+00  0.73926759414E+02  0.73926759414E+02  0.00000000000E+00 0. -1.
         -3   -1    0    0    0  501 -0.00000000000E+00 -0.00000000000E+00 -0.85542488910E+03  0.85542488910E+03  0.00000000000E+00 0.  1.
         23    2    1    2    0    0  0.53020914404E+02  0.21823523903E+03 -0.45830601614E+03  0.52548073542E+03  0.12509101468E+03 0.  0.
          5    1    3    3  502    0  0.42622779323E+02  0.23345798865E+03 -0.41224686551E+03  0.47569347725E+03  0.41800000000E+01 0.  1.
         -5    1    3    3    0  502  0.10398135081E+02 -0.15222749620E+02 -0.46059150629E+02  0.49787258168E+02  0.41800000000E+01 0.  1.
        -11    1    1    2    0    0  0.23383850715E+02 -0.69766577732E+02 -0.78063280860E+02  0.10727560609E+03  0.00000000000E+00 0.  1.
         11    1    1    2    0    0 -0.76404765119E+02 -0.14846866130E+03 -0.24512883269E+03  0.29659530701E+03  0.00000000000E+00 0. -1.
</event>
<event>
 7    1  0.1068210E-005  0.7737402E+02  0.7561462E-02  0.1336673E+00
         -1   -1    0    0    0  501 -0.00000000000E+00  0.00000000000E+00  0.21868557983E+03  0.21868557983E+03  0.00000000000E+00 0.  1.
          1   -1    0    0  501    0  0.00000000000E+00 -0.00000000000E+00 -0.69594219565E+02  0.69594219565E+02  0.00000000000E+00 0. -1.
         23    2    1    2    0    0  0.33813027021E+02 -0.20507795969E+02  0.12606573961E+03  0.18194544438E+03  0.12509070123E+03 0.  0.
          5    1    3    3  502    0  0.32863223479E+02 -0.25914047589E+01  0.14892492946E+03  0.15258706974E+03  0.41800000000E+01 0.  1.
         -5    1    3    3    0  502  0.94980354186E+00 -0.17916391210E+02 -0.22859189851E+02  0.29358374638E+02  0.41800000000E+01 0.  1.
        -11    1    1    2    0    0 -0.35438641228E+02  0.56702253396E+02  0.89364625557E+01  0.67460382413E+02  0.00000000000E+00 0. -1.
         11    1    1    2    0    0  0.16256142079E+01 -0.36194457427E+02  0.14089158093E+02  0.38873972601E+02  0.00000000000E+00 0.  1.
</event>
<event>
 7    1  0.1068210E-005  0.9747852E+02  0.7561462E-02  0.1285689E+00
         -2   -1    0    0    0  501 -0.00000000000E+00  0.00000000000E+00  0.41667594010E+02  0.41667594010E+02  0.00000000000E+00 0.  1.
          2   -1    0    0  501    0  0.00000000000E+00 -0.00000000000E+00 -0.45729617807E+03  0.45729617807E+03  0.00000000000E+00 0. -1.
         23    2    1    2    0    0 -0.28731192373E+01  0.64329055405E+02 -0.12715654017E+03  0.18963909293E+03  0.12509083770E+03 0.  0.
          5    1    3    3  502    0  0.16222786135E+02 -0.22840375282E+02 -0.87367285069E+02  0.91844305394E+02  0.41800000000E+01 0. -1.
         -5    1    3    3    0  502 -0.19095905373E+02  0.87169430687E+02 -0.39789255097E+02  0.97794787537E+02  0.41800000000E+01 0. -1.
        -11    1    1    2    0    0  0.20630450599E+02 -0.16952631375E+02 -0.13849112835E+02  0.30079978870E+02  0.00000000000E+00 0.  1.
         11    1    1    2    0    0 -0.17757331362E+02 -0.47376424030E+02 -0.27462293106E+03  0.27924470028E+03  0.00000000000E+00 0. -1.
</event>
<event>
 7    1  0.1068210E-005  0.1887524E+03  0.7561462E-02  0.1159591E+00
         -1   -1    0    0    0  501 -0.00000000000E+00  0.00000000000E+00  0.12518835603E+03  0.12518835603E+03  0.00000000000E+00 0.  1.
          1   -1    0    0  501    0  0.00000000000E+00 -0.00000000000E+00 -0.35533095522E+03  0.35533095522E+03  0.00000000000E+00 0. -1.
         23    2    1    2    0    0 -0.16033718377E+03  0.77507383201E+02 -0.85933730542E+02  0.23398485442E+03  0.12509555990E+03 0.  0.
          5    1    3    3  502    0 -0.14809906533E+03  0.90623276286E+02 -0.10855654450E+03  0.20481188225E+03  0.41800000000E+01 0. -1.
         -5    1    3    3    0  502 -0.12238118435E+02 -0.13115893084E+02  0.22622813956E+02  0.29172972175E+02  0.41800000000E+01 0. -1.
        -11    1    1    2    0    0  0.67698776773E+02 -0.61371960882E+02 -0.11737039835E+03  0.14874626841E+03  0.00000000000E+00 0. -1.
         11    1    1    2    0    0  0.92638406993E+02 -0.16135422319E+02 -0.26838470304E+02  0.97788188407E+02  0.00000000000E+00 0.  1.
</event>
<event>
 7    1  0.1068210E-005  0.2032855E+03  0.7561462E-02  0.1146996E+00
         -2   -1    0    0    0  501 -0.00000000000E+00  0.00000000000E+00  0.11989281192E+03  0.11989281192E+03  0.00000000000E+00 0.  1.
          2   -1    0    0  501    0  0.00000000000E+00 -0.00000000000E+00 -0.43144671409E+03  0.43144671409E+03  0.00000000000E+00 0. -1.
         23    2    1    2    0    0 -0.43902786878E+02  0.18738959207E+03 -0.97551749035E+02  0.24940598435E+03  0.12507872473E+03 0.  0.
          5    1    3    3  502    0  0.19406035900E+02  0.42777707711E+01  0.15049483751E+02  0.25275539822E+02  0.41800000000E+01 0. -1.
         -5    1    3    3    0  502 -0.63308822778E+02  0.18311182130E+03 -0.11260123279E+03  0.22413044453E+03  0.41800000000E+01 0. -1.
        -11    1    1    2    0    0  0.19992083708E+02 -0.89205453631E+02 -0.16721732239E+03  0.19057525883E+03  0.00000000000E+00 0. -1.
         11    1    1    2    0    0  0.23910703169E+02 -0.98184138438E+02 -0.46784830750E+02  0.11135828283E+03  0.00000000000E+00 0.  1.
</event>
<event>
 7    1  0.1068210E-005  0.8263975E+02  0.7561462E-02  0.1321723E+00
         -2   -1    0    0    0  501 -0.00000000000E+00  0.00000000000E+00  0.24900318948E+02  0.24900318948E+02  0.00000000000E+00 0.  1.
          2   -1    0    0  501    0  0.00000000000E+00 -0.00000000000E+00 -0.52749180540E+03  0.52749180540E+03  0.00000000000E+00 0. -1.
         23    2    1    2    0    0  0.25313039364E+02  0.26052600413E+02 -0.30865184382E+03  0.33501230203E+03  0.12509114225E+03 0.  0.
          5    1    3    3  502    0  0.46717329128E+02 -0.20817786587E+02 -0.51450530365E+02  0.72667176593E+02  0.41800000000E+01 0.  1.
         -5    1    3    3    0  502 -0.21404289764E+02  0.46870387000E+02 -0.25720131346E+03  0.26234512544E+03  0.41800000000E+01 0.  1.
        -11    1    1    2    0    0 -0.18140257342E+01  0.14922465935E+02  0.25897052846E+01  0.15253761910E+02  0.00000000000E+00 0.  1.
         11    1    1    2    0    0 -0.23499013630E+02 -0.40975066347E+02 -0.19652934791E+03  0.20212606040E+03  0.00000000000E+00 0. -1.
</event>
<event>
 7    1  0.1068210E-005  0.2984341E+03  0.7561462E-02  0.1086026E+00
         -1   -1    0    0    0  501 -0.00000000000E+00  0.00000000000E+00  0.13759012749E+03  0.13759012749E+03  0.00000000000E+00 0.  1.
          1   -1    0    0  501    0  0.00000000000E+00 -0.00000000000E+00 -0.87437704303E+03  0.87437704303E+03  0.00000000000E+00 0. -1.
         23    2    1    2    0    0 -0.18355416721E+03  0.23359201793E+03 -0.16784919000E+03  0.36342254336E+03  0.12508089903E+03 0.  0.
          5    1    3    3  502    0 -0.31834765674E+02  0.38153377235E+02  0.18986234179E+02  0.53358054577E+02  0.41800000000E+01 0. -1.
         -5    1    3    3    0  502 -0.15171940153E+03  0.19543864069E+03 -0.18683542418E+03  0.31006448879E+03  0.41800000000E+01 0. -1.
        -11    1    1    2    0    0  0.13244148656E+03 -0.13875735672E+03 -0.44343559912E+03  0.48314540459E+03  0.00000000000E+00 0. -1.
         11    1    1    2    0    0  0.51112680648E+02 -0.94834661209E+02 -0.12550212641E+03  0.16539922256E+03  0.00000000000E+00 0.  1.
</event>
<event>
 6    1  0.1068210E-005  0.1261902E+03  0.7561462E-02  0.1233221E+00
         -3   -1    0    0    0  501 -0.00000000000E+00  0.00000000000E+00  0.70331948128E+02  0.70331948128E+02  0.00000000000E+00 0.  1.
          3   -1    0    0  501    0  0.00000000000E+00 -0.00000000000E+00 -0.24632195279E+03  0.24632195279E+03  0.00000000000E+00 0. -1.
          5    1    1    2  502    0 -0.10035875211E+03 -0.13899733122E+02 -0.36940319297E+02  0.10792192222E+03  0.41800000000E+01 0. -1.
         -5    1    1    2    0  502  0.42147567462E+02 -0.78690251007E+01 -0.26125110129E+02  0.50381869539E+02  0.41800000000E+01 0.  1.
        -11    1    1    2    0    0  0.81295482916E+02  0.23846508347E+02 -0.10237550515E+03  0.13288474539E+03  0.00000000000E+00 0.  1.
         11    1    1    2    0    0 -0.23084298271E+02 -0.20777501245E+01 -0.10549070086E+02  0.25465363770E+02  0.00000000000E+00 0. -1.
</event>
<event>
 7    1  0.1068210E-005  0.2143936E+03  0.7561462E-02  0.1138133E+00
         -1   -1    0    0    0  501 -0.00000000000E+00  0.00000000000E+00  0.20776091369E+03  0.20776091369E+03  0.00000000000E+00 0.  1.
          1   -1    0    0  501    0  0.00000000000E+00 -0.00000000000E+00 -0.26395814541E+03  0.26395814541E+03  0.00000000000E+00 0. -1.
         23    2    1    2    0    0  0.18762056827E+03  0.73017391145E+02  0.20691979712E+02  0.23792816404E+03  0.12509450897E+03 0.  0.
          5    1    3    3  502    0  0.16010143353E+03  0.16517483138E+02  0.49816414770E+02  0.16853617964E+03  0.41800000000E+01 0. -1.
         -5    1    3    3    0  502  0.27519134737E+02  0.56499908007E+02 -0.29124435058E+02  0.69391984399E+02  0.41800000000E+01 0. -1.
        -11    1    1    2    0    0 -0.41901511810E+02 -0.33958990132E+02  0.16450508776E+02  0.56387666575E+02  0.00000000000E+00 0.  1.
         11    1    1    2    0    0 -0.14571905646E+03 -0.39058401013E+02 -0.93339720217E+02  0.17740322848E+03  0.00000000000E+00 0. -1.
</event>
<event>
 7    1  0.1068210E-005  0.7835683E+02  0.7561462E-02  0.1333780E+00
         -3   -1    0    0    0  501 -0.00000000000E+00  0.00000000000E+00  0.34331767398E+03  0.34331767398E+03  0.00000000000E+00 0.  1.
          3   -1    0    0  501    0  0.00000000000E+00 -0.00000000000E+00 -0.50250966526E+02  0.50250966526E+02  0.00000000000E+00 0. -1.
         23    2    1    2    0    0 -0.59004733621E+02  0.18378269966E+02  0.21732770340E+03  0.25825884828E+03  0.12508789971E+03 0.  0.
          5    1    3    3  502    0 -0.62241739259E+01  0.36824024366E+02  0.19387647162E+03  0.19748495578E+03  0.41800000000E+01 0.  1.
         -5    1    3    3    0  502 -0.52780559695E+02 -0.18445754400E+02  0.23451231772E+02  0.60773892493E+02  0.41800000000E+01 0.  1.
        -11    1    1    2    0    0  0.20617012651E+02 -0.26037289744E+00 -0.21145561947E+02  0.29534112391E+02  0.00000000000E+00 0. -1.
         11    1    1    2    0    0  0.38387720970E+02 -0.18117897069E+02  0.96884566004E+02  0.10577567984E+03  0.00000000000E+00 0.  1.
</event>
<event>
 7    1  0.1068210E-005  0.1653884E+03  0.7561462E-02  0.1182744E+00
         -2   -1    0    0    0  501 -0.00000000000E+00  0.00000000000E+00  0.31658797446E+03  0.31658797446E+03  0.00000000000E+00 0.  1.
          2   -1    0    0  501    0  0.00000000000E+00 -0.00000000000E+00 -0.10791985673E+03  0.10791985673E+03  0.00000000000E+00 0. -1.
         23    2    1    2    0    0  0.32876946140E+02 -0.13938350904E+03  0.15766058666E+03  0.24700148914E+03  0.12507685186E+03 0.  0.
          5    1    3    3  502    0 -0.28307497902E+02 -0.11960057785E+03  0.12257083778E+03  0.17362803729E+03  0.41800000000E+01 0. -1.
         -5    1    3    3    0  502  0.61184444041E+02 -0.19782931186E+02  0.35089748881E+02  0.73373451844E+02  0.41800000000E+01 0. -1.
        -11    1    1    2    0    0 -0.21186559951E+02  0.10262839136E+03 -0.10064654891E+02  0.10527466131E+03  0.00000000000E+00 0. -1.
         11    1    1    2    0    0 -0.11690386188E+02  0.36755117674E+02  0.61072185956E+02  0.72231680736E+02  0.00000000000E+00 0.  1.
</event>
<event>
 7    1  0.1068210E-005  0.1555080E+03  0.7561462E-02  0.1193864E+00
         -2   -1    0    0    0  501 -0.00000000000E+00  0.00000000000E+00  0.67724963847E+02  0.67724963847E+02  0.00000000000E+00 0.  1.
          2   -1    0    0  501    0  0.00000000000E+00 -0.00000000000E+00 -0.49384847881E+03  0.49384847881E+03  0.00000000000E+00 0. -1.
         23    2    1    2    0    0 -0.81005077948E+02 -0.97132939517E+02 -0.34792571803E+03  0.39076396435E+03  0.12509012740E+03 0.  0.
          5    1    3    3  502    0 -0.51873325710E+02 -0.11449097525E+03 -0.32782851034E+03  0.35112395237E+03  0.41800000000E+01 0. -1.
         -5    1    3    3    0  502 -0.29131752238E+02  0.17358035732E+02 -0.20097207689E+02  0.39640011980E+02  0.41800000000E+01 0. -1.
        -11    1    1    2    0    0  0.40800783545E+02  0.10268954704E+03 -0.49363446216E+02  0.12102312519E+03  0.00000000000E+00 0.  1.
         11    1    1    2    0    0  0.40204294403E+02 -0.55566075186E+01 -0.28834350710E+02  0.49786353114E+02  0.00000000000E+00 0. -1.
</event>
<event>
 7    1  0.1068210E-005  0.1432170E+03  0.7561462E-02  0.1209065E+00
          1   -1    0    0  501    0  0.00000000000E+00  0.00000000000E+00  0.24084459748E+02  0.24084459748E+02  0.00000000000E+00 0. -1.
         -1   -1    0    0    0  501 -0.00000000000E+00 -0.00000000000E+00 -0.86847574435E+03  0.86847574435E+03  0.00000000000E+00 0.  1.
         23    2    1    2    0    0  0.93777692242E+02 -0.19215586774E+02 -0.45393854022E+03  0.48049129017E+03  0.12509271480E+03 0.  0.
          5    1    3    3  502    0  0.95509633155E+01  0.47802368709E+02 -0.16617083439E+03  0.17322386081E+03  0.41800000000E+01 0.  1.
         -5    1    3    3    0  502  0.84226728927E+02 -0.67017955482E+02 -0.28776770583E+03  0.30726742935E+03  0.41800000000E+01 0.  1.
        -11    1    1    2    0    0  0.40733736150E+00  0.34388789716E+02 -0.75057424860E+02  0.82561321504E+02  0.00000000000E+00 0. -1.
         11    1    1    2    0    0 -0.94185029604E+02 -0.15173202942E+02 -0.31539531953E+03  0.32950759243E+03  0.00000000000E+00 0.  1.
</event>
<event>
 7    1  0.1068210E-005  0.1791709E+03  0.7561462E-02  0.1168608E+00
         -1   -1    0    0    0  501 -0.00000000000E+00  0.00000000000E+00  0.74592927448E+03  0.74592927448E+03  0.00000000000E+00 0.  1.
          1   -1    0    0  501    0  0.00000000000E+00 -0.00000000000E+00 -0.45941755287E+02  0.45941755287E+02  0.00000000000E+00 0. -1.
         23    2    1    2    0    0 -0.55430778653E+02 -0.13900925165E+03  0.38698630081E+03  0.43336133670E+03  0.12508999905E+03 0.  0.
          5    1    3    3  502    0  0.22264683922E+02 -0.10952130545E+03  0.22178149407E+03  0.24838505593E+03  0.41800000000E+01 0.  1.
         -5    1    3    3    0  502 -0.77695462575E+02 -0.29487946193E+02  0.16520480675E+03  0.18497628077E+03  0.41800000000E+01 0.  1.
        -11    1    1    2    0    0  0.70549789264E+02  0.11337880135E+03  0.29478210301E+03  0.32361785120E+03  0.00000000000E+00 0.  1.
         11    1    1    2    0    0 -0.15119010611E+02  0.25630450298E+02  0.18219115379E+02  0.34891841877E+02  0.00000000000E+00 0. -1.
</event>
<event>
 7    1  0.1068210E-005  0.1136598E+03  0.7561462E-02  0.1253939E+00
         -2   -1    0    0    0  501 -0.00000000000E+00  0.00000000000E+00  0.15073828891E+03  0.15073828891E+03  0.00000000000E+00 0. -1.
          2   -1    0    0  501    0  0.00000000000E+00 -0.00000000000E+00 -0.21988225988E+03  0.21988225988E+03  0.00000000000E+00 0.  1.
         23    2    1    2    0    0  0.52536587730E+02 -0.78632802948E+02  0.76156723227E+02  0.17432641676E+03  0.12508653940E+03 0.  0.
          5    1    3    3  502    0  0.19838980762E+02 -0.69187754422E+02  0.10645278528E+03  0.12856981922E+03  0.41800000000E+01 0.  1.
         -5    1    3    3    0  502  0.32697606968E+02 -0.94450485267E+01 -0.30296062053E+02  0.45756597546E+02  0.41800000000E+01 0.  1.
        -11    1    1    2    0    0  0.29058042404E+01  0.63357331121E+02 -0.11490580293E+03  0.13124762341E+03  0.00000000000E+00 0.  1.
         11    1    1    2    0    0 -0.55442391970E+02  0.15275471827E+02 -0.30394891277E+02  0.65046508612E+02  0.00000000000E+00 0. -1.
</event>
<event>
 7    1  0.1068210E-005  0.1171196E+03  0.7561462E-02  0.1247926E+00
          4   -1    0    0  501    0  0.00000000000E+00  0.00000000000E+00  0.42317446172E+02  0.42317446172E+02  0.00000000000E+00 0. -1.
         -4   -1    0    0    0  501 -0.00000000000E+00 -0.00000000000E+00 -0.46583197238E+03  0.46583197238E+03  0.00000000000E+00 0.  1.
         23    2    1    2    0    0 -0.23182294071E+02  0.45322595045E+02 -0.36559073437E+03  0.38973458923E+03  0.12507960907E+03 0.  0.
          5    1    3    3  502    0  0.49622144564E+01  0.85493808704E+02 -0.22591231003E+03  0.24163538466E+03  0.41800000000E+01 0. -1.
         -5    1    3    3    0  502 -0.28144508528E+02 -0.40171213659E+02 -0.13967842435E+03  0.14809920457E+03  0.41800000000E+01 0. -1.
        -11    1    1    2    0    0  0.52004008014E+02 -0.87936665657E+01 -0.46941278056E+02  0.70606154171E+02  0.00000000000E+00 0. -1.
         11    1    1    2    0    0 -0.28821713943E+02 -0.36528928480E+02 -0.10982513780E+02  0.47808675148E+02  0.00000000000E+00 0.  1.
</event>
<event>
 7    1  0.1068210E-005  0.5421817E+02  0.7561462E-02  0.1423833E+00
          2   -1    0    0  501    0  0.00000000000E+00  0.00000000000E+00  0.27674801271E+03  0.27674801271E+03  0.00000000000E+00 0. -1.
         -2   -1    0    0    0  501 -0.00000000000E+00 -0.00000000000E+00 -0.58762013824E+02  0.58762013824E+02  0.00000000000E+00 0.  1.
         23    2    1    2    0    0  0.20846175818E+01  0.50496978478E+02  0.64700387349E+02  0.14961919769E+03  0.12508186811E+03 0.  0.
          5    1    3    3  502    0  0.21487734817E+01  0.19346773301E+02 -0.37629262982E+02  0.42571688917E+02  0.41800000000E+01 0. -1.
         -5    1    3    3    0  502 -0.64155899819E-01  0.31150205177E+02  0.10232965033E+03  0.10704750878E+03  0.41800000000E+01 0. -1.
        -11    1    1    2    0    0  0.12253127287E+02 -0.25155968676E+02 -0.18538798505E+01  0.28042802265E+02  0.00000000000E+00 0.  1.
         11    1    1    2    0    0 -0.14337744869E+02 -0.25341009802E+02  0.15513949139E+03  0.15784802658E+03  0.00000000000E+00 0. -1.
</event>
<event>
 7    1  0.1068210E-005  0.7936544E+02  0.7561462E-02  0.1330862E+00
         -3   -1    0    0    0  501 -0.00000000000E+00  0.00000000000E+00  0.12686786215E+03  0.12686786215E+03  0.00000000000E+00 0.  1.
          3   -1    0    0  501    0  0.00000000000E+00 -0.00000000000E+00 -0.20872093727E+03  0.20872093727E+03  0.00000000000E+00 0. -1.
         23    2    1    2    0    0  0.83804273306E+01 -0.50042312533E+02  0.16607775690E+02  0.13601353772E+03  0.12509756042E+03 0.  0.
          5    1    3    3  502    0  0.20287851931E+02  0.11767314445E+02  0.56538979895E+02  0.61353038008E+02  0.41800000000E+01 0.  1.
         -5    1    3    3    0  502 -0.11907424600E+02 -0.61809626978E+02 -0.39931204205E+02  0.74660499711E+02  0.41800000000E+01 0.  1.
        -11    1    1    2    0    0 -0.19048204560E+02  0.56313953584E+02 -0.14219623186E+03  0.15412288545E+03  0.00000000000E+00 0. -1.
         11    1    1    2    0    0  0.10667777229E+02 -0.62716410505E+01  0.43735381037E+02  0.45452376252E+02  0.00000000000E+00 0.  1.
</event>
<event>
 7    1  0.1068210E-005  0.1106586E+03  0.7561462E-02  0.1259355E+00
          3   -1    0    0  501    0  0.00000000000E+00  0.00000000000E+00  0.23990044352E+03  0.23990044352E+03  0.00000000000E+00 0. -1.
         -3   -1    0    0    0  501 -0.00000000000E+00 -0.00000000000E+00 -0.89822072928E+02  0.89822072928E+02  0.00000000000E+00 0.  1.
         23    2    1    2    0    0  0.93401999851E+02  0.26386663595E+02  0.62238522663E+02  0.17012712295E+03  0.12509762055E+03 0.  0.
          5    1    3    3  502    0  0.18959563408E+02  0.30004235100E+02  0.84900471644E+02  0.92115588550E+02  0.41800000000E+01 0.  1.
         -5    1    3    3    0  502  0.74442436443E+02 -0.36175715054E+01 -0.22661948981E+02  0.78011534395E+02  0.41800000000E+01 0.  1.
        -11    1    1    2    0    0 -0.67446451052E+02 -0.43118013983E+02  0.98499490410E+02  0.12692650039E+03  0.00000000000E+00 0. -1.
         11    1    1    2    0    0 -0.25955548799E+02  0.16731350388E+02 -0.10659642484E+02  0.32668893112E+02  0.00000000000E+00 0.  1.
</event>
<event>
 7    1  0.1068210E-005  0.1203170E+03  0.7561462E-02  0.1242575E+00
          1   -1    0    0  501    0  0.00000000000E+00  0.00000000000E+00  0.12366678350E+04  0.12366678350E+04  0.00000000000E+00 0. -1.
         -1   -1    0    0    0  501 -0.00000000000E+00 -0.00000000000E+00 -0.12302137813E+02  0.12302137813E+02  0.00000000000E+00 0.  1.
         23    2    1    2    0    0 -0.38438525631E+02 -0.45825941435E+02  0.75347219317E+03  0.76612385492E+03  0.12509147870E+03 0.  0.
          5    1    3    3  502    0 -0.41115815215E+02  0.34462907372E+02  0.40065057486E+03  0.40424813887E+03  0.41800000000E+01 0. -1.
         -5    1    3    3    0  502  0.26772895831E+01 -0.80288848807E+02  0.35282161831E+03  0.36187571605E+03  0.41800000000E+01 0. -1.
        -11    1    1    2    0    0  0.66777292240E+02  0.38615496279E+02  0.32228200436E+03  0.33138505345E+03  0.00000000000E+00 0.  1.
         11    1    1    2    0    0 -0.28338766609E+02  0.72104451565E+01  0.14861149965E+03  0.15146106444E+03  0.00000000000E+00 0. -1.
</event>
<event>
 7    1  0.1068210E-005  0.1469657E+03  0.7561462E-02  0.1204252E+00
          2   -1    0    0  501    0  0.00000000000E+00  0.00000000000E+00  0.42301768364E+03  0.42301768364E+03  0.00000000000E+00 0. -1.
         -2   -1    0    0    0  501 -0.00000000000E+00 -0.00000000000E+00 -0.42101438764E+03  0.42101438764E+03  0.00000000000E+00 0.  1.
         23    2    1    2    0    0 -0.12066184826E+03  0.39271802364E+02 -0.38571259423E+03  0.42260068695E+03  0.11711353116E+03 0.  0.
          5    1    3    3  502    0 -0.28346274395E+02  0.29150277355E+02 -0.27506038717E+03  0.27808081367E+03  0.41800000000E+01 0. -1.
         -5    1    3    3    0  502 -0.92315573866E+02  0.10121525009E+02 -0.11065220706E+03  0.14451987328E+03  0.41800000000E+01 0.  1.
        -11    1    1    2    0    0  0.98598573526E+01 -0.47949565445E+02  0.75092397265E+02  0.89639532241E+02  0.00000000000E+00 0.  1.
         11    1    1    2    0    0  0.11080199091E+03  0.86777630807E+01  0.31262349296E+03  0.33179185209E+03  0.00000000000E+00 0. -1.
</event>
<event>
 7    1  0.1068210E-005  0.1322979E+03  0.7561462E-02  0.1224085E+00
          1   -1    0    0  501    0  0.00000000000E+00  0.00000000000E+00  0.20659008700E+03  0.20659008700E+03  0.00000000000E+00 0. -1.
         -1   -1    0    0    0  501 -0.00000000000E+00 -0.00000000000E+00 -0.14930893889E+03  0.14930893889E+03  0.00000000000E+00 0.  1.
         23    2    1    2    0    0  0.11710324807E+03  0.41032952973E+02 -0.30374077258E+02  0.17879327218E+03  0.12509027008E+03 0.  0.
          5    1    3    3  502    0  0.76361548073E+02  0.31027757330E+02 -0.79130385552E+02  0.11433677478E+03  0.41800000000E+01 0. -1.
         -5    1    3    3    0  502  0.40741699996E+02  0.10005195643E+02  0.48756308294E+02  0.64456497398E+02  0.41800000000E+01 0. -1.
        -11    1    1    2    0    0 -0.65793265332E+02 -0.56062633665E+02  0.16333904788E+02  0.87969137214E+02  0.00000000000E+00 0.  1.
         11    1    1    2    0    0 -0.51309982737E+02  0.15029680692E+02  0.71321320584E+02  0.89136616494E+02  0.00000000000E+00 0. -1.
</event>
<event>
 7    1  0.1068210E-005  0.1650938E+03  0.7561462E-02  0.1183063E+00
         -1   -1    0    0    0  501 -0.00000000000E+00  0.00000000000E+00  0.94571354167E+02  0.94571354167E+02  0.00000000000E+00 0.  1.
          1   -1    0    0  501    0  0.00000000000E+00 -0.00000000000E+00 -0.56438035278E+03  0.56438035278E+03  0.00000000000E+00 0. -1.
         23    2    1    2    0    0 -0.12983575932E+03 -0.22453598716E+02 -0.21251886556E+02  0.18289831306E+03  0.12505463504E+03 0.  0.
          5    1    3    3  502    0 -0.14690093230E+03 -0.44186694430E+02 -0.14468148753E+02  0.15414002597E+03  0.41800000000E+01 0. -1.
         -5    1    3    3    0  502  0.17065172980E+02  0.21733095714E+02 -0.67837378028E+01  0.28758287096E+02  0.41800000000E+01 0. -1.
        -11    1    1    2    0    0  0.75194481291E+02 -0.21994120255E+02 -0.14917107309E+03  0.16849320577E+03  0.00000000000E+00 0.  1.
         11    1    1    2    0    0  0.54641278034E+02  0.44447718971E+02 -0.29938603897E+03  0.30756018812E+03  0.00000000000E+00 0. -1.
</event>
<event>
 7    1  0.1068210E-005  0.9044798E+02  0.7561462E-02  0.1301770E+00
         -1   -1    0    0    0  501 -0.00000000000E+00  0.00000000000E+00  0.55922104410E+02  0.55922104410E+02  0.00000000000E+00 0.  1.
          1   -1    0    0  501    0  0.00000000000E+00 -0.00000000000E+00 -0.24105633436E+03  0.24105633436E+03  0.00000000000E+00 0. -1.
         23    2    1    2    0    0  0.51587244942E+02  0.49049746974E+01 -0.97821565862E+02  0.15932781846E+03  0.11459054224E+03 0.  0.
          5    1    3    3  502    0  0.51581697791E+02  0.22475819332E+02 -0.11887736736E+03  0.13158698595E+03  0.41800000000E+01 0. -1.
         -5    1    3    3    0  502  0.55471511713E-02 -0.17570844635E+02  0.21055801493E+02  0.27740832512E+02  0.41800000000E+01 0.  1.
        -11    1    1    2    0    0 -0.59167698781E+02  0.33006974476E+02 -0.55908217705E+02  0.87840797754E+02  0.00000000000E+00 0. -1.
         11    1    1    2    0    0  0.75804538390E+01 -0.37911949173E+02 -0.31404446385E+02  0.49809822558E+02  0.00000000000E+00 0.  1.
</event>
<event>
 7    1  0.1068210E-005  0.1057568E+03  0.7561462E-02  0.1268636E+00
         -4   -1    0    0    0  501 -0.00000000000E+00  0.00000000000E+00  0.61091701059E+02  0.61091701059E+02  0.00000000000E+00 0.  1.
          4   -1    0    0  501    0  0.00000000000E+00 -0.00000000000E+00 -0.26319415273E+03  0.26319415273E+03  0.00000000000E+00 0. -1.
         23    2    1    2    0    0  0.60580101370E+02  0.12881295299E+02 -0.86366213412E+02  0.16413737855E+03  0.12508429066E+03 0.  0.
          5    1    3    3  502    0  0.19364013665E+02  0.62371579941E+02 -0.73344777184E+02  0.98296021027E+02  0.41800000000E+01 0. -1.
         -5    1    3    3    0  502  0.41216087705E+02 -0.49490284642E+02 -0.13021436228E+02  0.65841357528E+02  0.41800000000E+01 0. -1.
        -11    1    1    2    0    0 -0.59304297971E+02  0.86761399515E+01 -0.21823951431E+02  0.63785264900E+02  0.00000000000E+00 0.  1.
         11    1    1    2    0    0 -0.12758033987E+01 -0.21557435250E+02 -0.93912286830E+02  0.96363210337E+02  0.00000000000E+00 0. -1.
</event>
<event>
 7    1  0.1068210E-005  0.1147628E+03  0.7561462E-02  0.1251996E+00
          2   -1    0    0  501    0  0.00000000000E+00  0.00000000000E+00  0.33845279371E+02  0.33845279371E+02  0.00000000000E+00 0.  1.
         -2   -1    0    0    0  501 -0.00000000000E+00 -0.00000000000E+00 -0.71867194773E+03  0.71867194773E+03  0.00000000000E+00 0. -1.
         23    2    1    2    0    0  0.53134892873E+02 -0.42223643573E+02 -0.58216305231E+03  0.59930526805E+03  0.12508729720E+03 0.  0.
          5    1    3    3  502    0  0.82608960710E+02 -0.95004444782E+01 -0.23455542900E+03  0.24889399452E+03  0.41800000000E+01 0. -1.
         -5    1    3    3    0  502 -0.29474067837E+02 -0.32723199095E+02 -0.34760762331E+03  0.35041127353E+03  0.41800000000E+01 0. -1.
        -11    1    1    2    0    0  0.15300082050E+01 -0.19510771186E+02 -0.54064052743E+02  0.57497242685E+02  0.00000000000E+00 0. -1.
         11    1    1    2    0    0 -0.54664901078E+02  0.61734414759E+02 -0.48599563307E+02  0.95714716367E+02  0.00000000000E+00 0.  1.
</event>
<event>
 7    1  0.1068210E-005  0.3133768E+03  0.7561462E-02  0.1078738E+00
          2   -1    0    0  501    0  0.00000000000E+00  0.00000000000E+00  0.42225622968E+03  0.42225622968E+03  0.00000000000E+00 0. -1.
         -2   -1    0    0    0  501 -0.00000000000E+00 -0.00000000000E+00 -0.25059958064E+03  0.25059958064E+03  0.00000000000E+00 0.  1.
         23    2    1    2    0    0  0.26217319713E+03  0.15419849319E+03  0.12726324373E+03  0.35264096700E+03  0.12509099810E+03 0.  0.
          5    1    3    3  502    0  0.15056367261E+03  0.13812754421E+03  0.12542787954E+03  0.23978795496E+03  0.41800000000E+01 0. -1.
         -5    1    3    3    0  502  0.11160952452E+03  0.16070948982E+02  0.18353641968E+01  0.11285301204E+03  0.41800000000E+01 0. -1.
        -11    1    1    2    0    0 -0.16724861737E+03 -0.65452725159E+02  0.59944438609E+02  0.18933962861E+03  0.00000000000E+00 0.  1.
         11    1    1    2    0    0 -0.94924579765E+02 -0.88745768033E+02 -0.15551033298E+02  0.13087521470E+03  0.00000000000E+00 0. -1.
</event>
<event>
 7    1  0.1068210E-005  0.1312703E+03  0.7561462E-02  0.1225583E+00
          2   -1    0    0  501    0  0.00000000000E+00  0.00000000000E+00  0.16851158422E+03  0.16851158422E+03  0.00000000000E+00 0. -1.
         -2   -1    0    0    0  501 -0.00000000000E+00 -0.00000000000E+00 -0.15623499872E+03  0.15623499872E+03  0.00000000000E+00 0.  1.
         23    2    1    2    0    0 -0.11642221645E+03  0.20031933934E+02 -0.16483323567E+02  0.17282174923E+03  0.12506096988E+03 0.  0.
          5    1    3    3  502    0 -0.10635270948E+03  0.30588371449E+02  0.37364309139E+02  0.11687647872E+03  0.41800000000E+01 0. -1.
         -5    1    3    3    0  502 -0.10069506978E+02 -0.10556437515E+02 -0.53847632707E+02  0.55945270505E+02  0.41800000000E+01 0. -1.
        -11    1    1    2    0    0  0.65638547515E+02 -0.45444205402E+02 -0.13722709859E+02  0.81005601599E+02  0.00000000000E+00 0.  1.
         11    1    1    2    0    0  0.50783668938E+02  0.25412271469E+02  0.42482618927E+02  0.70919232109E+02  0.00000000000E+00 0. -1.
</event>
<event>
 7    1  0.1068210E-005  0.1333930E+03  0.7561462E-02  0.1222506E+00
          1   -1    0    0  501    0  0.00000000000E+00  0.00000000000E+00  0.28103005448E+03  0.28103005448E+03  0.00000000000E+00 0.  1.
         -1   -1    0    0    0  501 -0.00000000000E+00 -0.00000000000E+00 -0.73213361516E+02  0.73213361516E+02  0.00000000000E+00 0. -1.
         23    2    1    2    0    0 -0.54435029085E+02 -0.72638826389E+02  0.80067171761E+02  0.17413266770E+03  0.12518730956E+03 0.  0.
          5    1    3    3  502    0  0.23999144107E+02 -0.69533400023E+02  0.53887900877E+02  0.91281054429E+02  0.41800000000E+01 0. -1.
         -5    1    3    3    0  502 -0.78434173193E+02 -0.31054263661E+01  0.26179270884E+02  0.82851613270E+02  0.41800000000E+01 0. -1.
        -11    1    1    2    0    0 -0.10354358681E+02  0.41212211531E+02  0.88326469948E+02  0.98016449723E+02  0.00000000000E+00 0.  1.
         11    1    1    2    0    0  0.64789387766E+02  0.31426614858E+02  0.39423051259E+02  0.82094298578E+02  0.00000000000E+00 0. -1.
</event>
<event>
 7    1  0.1068210E-005  0.5483108E+02  0.7561462E-02  0.1420899E+00
          2   -1    0    0  501    0  0.00000000000E+00  0.00000000000E+00  0.15069873182E+03  0.15069873182E+03  0.00000000000E+00 0. -1.
         -2   -1    0    0    0  501 -0.00000000000E+00 -0.00000000000E+00 -0.78025978806E+02  0.78025978806E+02  0.00000000000E+00 0.  1.
         23    2    1    2    0    0  0.49954439493E+01  0.11366385853E+02  0.49795230862E+02  0.13519954105E+03  0.12508078068E+03 0.  0.
          5    1    3    3  502    0  0.13110498272E+01  0.12544087804E+02 -0.41577763792E+02  0.43649236333E+02  0.41800000000E+01 0. -1.
         -5    1    3    3    0  502  0.36843941221E+01 -0.11777019506E+01  0.91372994654E+02  0.91550304718E+02  0.41800000000E+01 0. -1.
        -11    1    1    2    0    0  0.41548117956E+02 -0.14563934796E+02  0.10672716833E+02  0.45301889442E+02  0.00000000000E+00 0.  1.
         11    1    1    2    0    0 -0.46543561905E+02  0.31975489430E+01  0.12204805319E+02  0.48223280134E+02  0.00000000000E+00 0. -1.
</event>
<event>
 7    1  0.1068210E-005  0.1326611E+03  0.7561462E-02  0.1223560E+00
          1   -1    0    0  501    0  0.00000000000E+00  0.00000000000E+00  0.45974187380E+03  0.45974187380E+03  0.00000000000E+00 0. -1.
         -1   -1    0    0    0  501 -0.00000000000E+00 -0.00000000000E+00 -0.55762546122E+02  0.55762546122E+02  0.00000000000E+00 0.  1.
         23    2    1    2    0    0  0.68645820933E+02  0.76415299424E+02  0.12711796643E+03  0.20581044780E+03  0.12508963313E+03 0.  0.
          5    1    3    3  502    0  0.86980786064E+02  0.83178537358E+02  0.13791873902E+03  0.18309390267E+03  0.41800000000E+01 0.  1.
         -5    1    3    3    0  502 -0.18334965130E+02 -0.67632379343E+01 -0.10800772597E+02  0.22716545124E+02  0.41800000000E+01 0.  1.
        -11    1    1    2    0    0 -0.17752716672E+02 -0.71629303543E+02  0.92245595596E+02  0.11813198543E+03  0.00000000000E+00 0. -1.
         11    1    1    2    0    0 -0.50893104262E+02 -0.47859958812E+01  0.18461576566E+03  0.19156198670E+03  0.00000000000E+00 0.  1.
</event>
<event>
 7    1  0.1068210E-005  0.1195242E+03  0.7561462E-02  0.1243884E+00
         -1   -1    0    0    0  501 -0.00000000000E+00  0.00000000000E+00  0.54553902201E+02  0.54553902201E+02  0.00000000000E+00 0.  1.
          1   -1    0    0  501    0  0.00000000000E+00 -0.00000000000E+00 -0.29548272171E+03  0.29548272171E+03  0.00000000000E+00 0. -1.
         23    2    1    2    0    0  0.52468324757E+02  0.14893501344E+02 -0.80318478566E+02  0.15834465327E+03  0.12508888733E+03 0.  0.
          5    1    3    3  502    0  0.87242890829E+02 -0.16555468989E+02 -0.58818288613E+02  0.10659488275E+03  0.41800000000E+01 0. -1.
         -5    1    3    3    0  502 -0.34774566072E+02  0.31448970332E+02 -0.21500189953E+02  0.51749770516E+02  0.41800000000E+01 0. -1.
        -11    1    1    2    0    0 -0.11120189498E+02  0.35900009288E+02 -0.43290639015E+02  0.57328428443E+02  0.00000000000E+00 0.  1.
         11    1    1    2    0    0 -0.41348135259E+02 -0.50793510632E+02 -0.11731970193E+03  0.13436354220E+03  0.00000000000E+00 0. -1.
</event>
<event>
 7    1  0.1068210E-005  0.9292713E+02  0.7561462E-02  0.1295914E+00
          2   -1    0    0  501    0  0.00000000000E+00  0.00000000000E+00  0.26198744991E+03  0.26198744991E+03  0.00000000000E+00 0. -1.
         -2   -1    0    0    0  501 -0.00000000000E+00 -0.00000000000E+00 -0.49216440226E+02  0.49216440226E+02  0.00000000000E+00 0.  1.
         23    2    1    2    0    0  0.23341222646E+02  0.24119347758E+02  0.11218556836E+03  0.17134719796E+03  0.12509078660E+03 0.  0.
          5    1    3    3  502    0  0.81931456065E+01  0.73145300715E+02  0.43808080877E+02  0.85755367189E+02  0.41800000000E+01 0.  1.
         -5    1    3    3    0  502  0.15148077040E+02 -0.49025952957E+02  0.68377487479E+02  0.85591830774E+02  0.41800000000E+01 0.  1.
        -11    1    1    2    0    0 -0.39489670090E+02 -0.17634313302E+02  0.59747391231E+01  0.43658911542E+02  0.00000000000E+00 0.  1.
         11    1    1    2    0    0  0.16148447444E+02 -0.64850344564E+01  0.94610702202E+02  0.96197780629E+02  0.00000000000E+00 0. -1.
</event>
<event>
 7    1  0.1068210E-005  0.5842236E+02  0.7561462E-02  0.1404574E+00
          1   -1    0    0  501    0  0.00000000000E+00  0.00000000000E+00  0.11137286671E+03  0.11137286671E+03  0.00000000000E+00 0. -1.
         -1   -1    0    0    0  501 -0.00000000000E+00 -0.00000000000E+00 -0.12453259444E+03  0.12453259444E+03  0.00000000000E+00 0.  1.
         23    2    1    2    0    0 -0.17442987941E+01 -0.65747903798E+01 -0.64662924487E+02  0.13149341683E+03  0.11429328248E+03 0.  0.
          5    1    3    3  502    0 -0.89393119991E+01  0.55962448300E+01 -0.96101807330E+02  0.96769101614E+02  0.41800000000E+01 0.  1.
         -5    1    3    3    0  502  0.71950132050E+01 -0.12171035210E+02  0.31438882843E+02  0.34724315220E+02  0.41800000000E+01 0. -1.
        -11    1    1    2    0    0 -0.89869115881E+01 -0.41006645172E+02  0.25858008871E+02  0.49304626060E+02  0.00000000000E+00 0.  1.
         11    1    1    2    0    0  0.10731210382E+02  0.47581435552E+02  0.25645187877E+02  0.55107418255E+02  0.00000000000E+00 0. -1.
</event>
<event>
 6    1  0.1068210E-005  0.1451045E+03  0.7561462E-02  0.1206621E+00
          2   -1    0    0  501    0  0.00000000000E+00  0.00000000000E+00  0.65694774822E+03  0.65694774822E+03  0.00000000000E+00 0. -1.
         -2   -1    0    0    0  501 -0.00000000000E+00 -0.00000000000E+00 -0.67375490475E+02  0.67375490475E+02  0.00000000000E+00 0.  1.
          5    1    1    2  502    0  0.17313028810E+02  0.97607875921E+02  0.23823006874E+03  0.25806603120E+03  0.41800000000E+01 0. -1.
         -5    1    1    2    0  502 -0.63681223315E+02 -0.38751800465E+02 -0.19014270053E+02  0.77045539182E+02  0.41800000000E+01 0.  1.
        -11    1    1    2    0    0 -0.24268487728E+02 -0.33309825903E+02  0.90359585480E+02  0.99314443493E+02  0.00000000000E+00 0.  1.
         11    1    1    2    0    0  0.70636682233E+02 -0.25546249552E+02  0.27999687358E+03  0.28989722481E+03  0.00000000000E+00 0. -1.
</event>
<event>
 7    1  0.1068210E-005  0.1026059E+03  0.7561462E-02  0.1274910E+00
         -3   -1    0    0    0  501 -0.00000000000E+00  0.00000000000E+00  0.57119527861E+03  0.57119527861E+03  0.00000000000E+00 0.  1.
          3   -1    0    0  501    0  0.00000000000E+00 -0.00000000000E+00 -0.33621505442E+02  0.33621505442E+02  0.00000000000E+00 0. -1.
         23    2    1    2    0    0 -0.51482288098E+02 -0.49199604829E+02  0.39337398262E+03  0.41887971895E+03  0.12508437809E+03 0.  0.
          5    1    3    3  502    0  0.16850609813E+02 -0.28538272743E+02  0.20462219393E+02  0.39173344058E+02  0.41800000000E+01 0. -1.
         -5    1    3    3    0  502 -0.68332897911E+02 -0.20661332085E+02  0.37291176323E+03  0.37970637489E+03  0.41800000000E+01 0. -1.
        -11    1    1    2    0    0  0.50681734691E+02  0.66146809634E+02  0.67087018753E+02  0.10697993616E+03  0.00000000000E+00 0. -1.
         11    1    1    2    0    0  0.80055340715E+00 -0.16947204806E+02  0.77112771793E+02  0.78957128938E+02  0.00000000000E+00 0.  1.
</event>
<event>
 7    1  0.1068210E-005  0.1310192E+03  0.7561462E-02  0.1225951E+00
         -2   -1    0    0    0  501 -0.00000000000E+00  0.00000000000E+00  0.49896497250E+02  0.49896497250E+02  0.00000000000E+00 0.  1.
          2   -1    0    0  501    0  0.00000000000E+00 -0.00000000000E+00 -0.37816854623E+03  0.37816854623E+03  0.00000000000E+00 0. -1.
         23    2    1    2    0    0  0.77284032136E+02  0.23785258188E+02 -0.22024627089E+03  0.26588520558E+03  0.12509181658E+03 0.  0.
          5    1    3    3  502    0  0.10078888599E+03  0.43941949945E+02 -0.20112030565E+03  0.22925126881E+03  0.41800000000E+01 0. -1.
         -5    1    3    3    0  502 -0.23504853854E+02 -0.20156691757E+02 -0.19125965237E+02  0.36633936774E+02  0.41800000000E+01 0. -1.
        -11    1    1    2    0    0 -0.17510084149E+02 -0.51851061623E+02 -0.53648437006E+02  0.76637395777E+02  0.00000000000E+00 0. -1.
         11    1    1    2    0    0 -0.59773947987E+02  0.28065803435E+02 -0.54377341084E+02  0.85542442119E+02  0.00000000000E+00 0.  1.
</event>
<event>
 7    1  0.1068210E-005  0.9816130E+02  0.7561462E-02  0.1284211E+00
          3   -1    0    0  501    0  0.00000000000E+00  0.00000000000E+00  0.28909910627E+02  0.28909910627E+02  0.00000000000E+00 0. -1.
         -3   -1    0    0    0  501 -0.00000000000E+00 -0.00000000000E+00 -0.43770105741E+03  0.43770105741E+03  0.00000000000E+00 0.  1.
         23    2    1    2    0    0  0.41452225248E+01  0.26282058411E+02 -0.25986404503E+03  0.28962813316E+03  0.12508878507E+03 0.  0.
          5    1    3    3  502    0 -0.40347473402E+02  0.59557415818E+02 -0.15252838908E+03  0.16869317195E+03  0.41800000000E+01 0.  1.
         -5    1    3    3    0  502  0.44492695927E+02 -0.33275357407E+02 -0.10733565596E+03  0.12093496120E+03  0.41800000000E+01 0.  1.
        -11    1    1    2    0    0 -0.27913218701E+02 -0.33596582588E+02 -0.14545718865E+03  0.15187386830E+03  0.00000000000E+00 0.  1.
         11    1    1    2    0    0  0.23767996176E+02  0.73145241766E+01 -0.34699130945E+01  0.25108966587E+02  0.00000000000E+00 0. -1.
</event>
<event>
 7    1  0.1068210E-005  0.9713465E+02  0.7561462E-02  0.1286439E+00
         -1   -1    0    0    0  501 -0.00000000000E+00  0.00000000000E+00  0.49409240492E+02  0.49409240492E+02  0.00000000000E+00 0.  1.
          1   -1    0    0  501    0  0.00000000000E+00 -0.00000000000E+00 -0.41637698734E+03  0.41637698734E+03  0.00000000000E+00 0. -1.
         23    2    1    2    0    0  0.27271094435E+02  0.83437700532E+02 -0.19977641650E+03  0.25152296569E+03  0.12509046014E+03 0.  0.
          5    1    3    3  502    0  0.42619428824E+02  0.77682345920E+02 -0.52083885229E+02  0.10286479515E+03  0.41800000000E+01 0. -1.
         -5    1    3    3    0  502 -0.15348334389E+02  0.57553546128E+01 -0.14769253127E+03  0.14865817054E+03  0.41800000000E+01 0. -1.
        -11    1    1    2    0    0 -0.11809934675E+02 -0.55259284401E+02 -0.14653958158E+02  0.58376378436E+02  0.00000000000E+00 0.  1.
         11    1    1    2    0    0 -0.15461159760E+02 -0.28178416131E+02 -0.15253737219E+03  0.15588688371E+03  0.00000000000E+00 0. -1.
</event>
<event>
 7    1  0.1068210E-005  0.8538106E+02  0.7561462E-02  0.1314439E+00
         -1   -1    0    0    0  501 -0.00000000000E+00  0.00000000000E+00  0.45843476399E+03  0.45843476399E+03  0.00000000000E+00 0.  1.
          1   -1    0    0  501    0  0.00000000000E+00 -0.00000000000E+00 -0.30271999864E+02  0.30271999864E+02  0.00000000000E+00 0. -1.
         23    2    1    2    0    0  0.43755564683E+02 -0.21719984403E+02  0.25896685743E+03  0.29166333953E+03  0.12496944912E+03 0.  0.
          5    1    3    3  502    0  0.29480206459E+02  0.16005789745E+02  0.24711235389E+03  0.24941382425E+03  0.41800000000E+01 0.  1.
         -5    1    3    3    0  502  0.14275358224E+02 -0.37725774148E+02  0.11854503536E+02  0.42249515282E+02  0.41800000000E+01 0.  1.
        -11    1    1    2    0    0  0.24103262133E+02  0.14584844269E+02  0.25624506444E+02  0.38082807910E+02  0.00000000000E+00 0.  1.
         11    1    1    2    0    0 -0.67858826816E+02  0.71351401340E+01  0.14357140026E+03  0.15896061642E+03  0.00000000000E+00 0. -1.
</event>
<event>
 7    1  0.1068210E-005  0.1224642E+03  0.7561462E-02  0.1239086E+00
         -1   -1    0    0    0  501 -0.00000000000E+00  0.00000000000E+00  0.86747673476E+02  0.86747673476E+02  0.00000000000E+00 0.  1.
          1   -1    0    0  501    0  0.00000000000E+00 -0.00000000000E+00 -0.19865282410E+03  0.19865282410E+03  0.00000000000E+00 0. -1.
         23    2    1    2    0    0 -0.60892624256E+02 -0.32277307530E+02 -0.38774190192E+02  0.14798855679E+03  0.12508972318E+03 0.  0.
          5    1    3    3  502    0  0.12583210115E+01 -0.60256407817E+02 -0.50452693183E+02  0.78710639079E+02  0.41800000000E+01 0.  1.
         -5    1    3    3    0  502 -0.62150945268E+02  0.27979100287E+02  0.11678502992E+02  0.69277917713E+02  0.41800000000E+01 0.  1.
        -11    1    1    2    0    0  0.85677620104E+02  0.17743699261E+02 -0.52467133825E+02  0.10202104480E+03  0.00000000000E+00 0.  1.
         11    1    1    2    0    0 -0.24784995847E+02  0.14533608269E+02 -0.20663826605E+02  0.35390895982E+02  0.00000000000E+00 0. -1.
</event>
<event>
 7    1  0.1068210E-005  0.9786700E+02  0.7561462E-02  0.1284846E+00
         -1   -1    0    0    0  501 -0.00000000000E+00  0.00000000000E+00  0.55594623464E+03  0.55594623464E+03  0.00000000000E+00 0.  1.
          1   -1    0    0  501    0  0.00000000000E+00 -0.00000000000E+00 -0.26934485636E+02  0.26934485636E+02  0.00000000000E+00 0. -1.
         23    2    1    2    0    0 -0.56489970415E+02 -0.73771683278E+01  0.30858089568E+03  0.33780919774E+03  0.12508935019E+03 0.  0.
          5    1    3    3  502    0 -0.75786940125E+02  0.39427038282E+02  0.21379458614E+03  0.23026886265E+03  0.41800000000E+01 0.  1.
         -5    1    3    3    0  502  0.19296969709E+02 -0.46804206610E+02  0.94786309531E+02  0.10754033509E+03  0.41800000000E+01 0.  1.
        -11    1    1    2    0    0  0.17859708075E+02 -0.54946742473E+01 -0.21388384521E+01  0.18807850689E+02  0.00000000000E+00 0. -1.
         11    1    1    2    0    0  0.38630262340E+02  0.12871842575E+02  0.22256969178E+03  0.22626367185E+03  0.00000000000E+00 0.  1.
</event>
<event>
 7    1  0.1068210E-005  0.1555851E+03  0.7561462E-02  0.1193773E+00
          2   -1    0    0  501    0  0.00000000000E+00  0.00000000000E+00  0.54936417963E+03  0.54936417963E+03  0.00000000000E+00 0. -1.
         -2   -1    0    0    0  501 -0.00000000000E+00 -0.00000000000E+00 -0.87917226678E+02  0.87917226678E+02  0.00000000000E+00 0.  1.
         23    2    1    2    0    0 -0.11634808717E+03  0.44979877881E+02  0.29877154774E+02  0.17916484057E+03  0.12508928378E+03 0.  0.
          5    1    3    3  502    0 -0.78532948179E+02 -0.22754409690E+02  0.53695947531E+02  0.97907682494E+02  0.41800000000E+01 0.  1.
         -5    1    3    3    0  502 -0.37815138989E+02  0.67734287571E+02 -0.23818792756E+02  0.81257158072E+02  0.41800000000E+01 0.  1.
        -11    1    1    2    0    0  0.41858921950E+02 -0.62375670890E+02  0.25134652058E+03  0.26233178815E+03  0.00000000000E+00 0. -1.
         11    1    1    2    0    0  0.74489165218E+02  0.17395793009E+02  0.18022327759E+03  0.19578477759E+03  0.00000000000E+00 0.  1.
</event>
<event>
 7    1  0.1068210E-005  0.2573189E+03  0.7561462E-02  0.1108765E+00
          2   -1    0    0  501    0  0.00000000000E+00  0.00000000000E+00  0.20760047936E+03  0.20760047936E+03  0.00000000000E+00 0.  1.
         -2   -1    0    0    0  501 -0.00000000000E+00 -0.00000000000E+00 -0.34803236795E+03  0.34803236795E+03  0.00000000000E+00 0. -1.
         23    2    1    2    0    0  0.18490553123E+02  0.24106185479E+03 -0.11749362542E+03  0.29648731227E+03  0.12508899204E+03 0.  0.
          5    1    3    3  502    0  0.52135718524E+02  0.72315009115E+02 -0.21110333027E+01  0.89272182402E+02  0.41800000000E+01 0. -1.
         -5    1    3    3    0  502 -0.33645165401E+02  0.16874684568E+03 -0.11538259212E+03  0.20721512986E+03  0.41800000000E+01 0. -1.
        -11    1    1    2    0    0 -0.38034903601E+02 -0.59219665844E+02 -0.29080055052E+02  0.76152953432E+02  0.00000000000E+00 0. -1.
         11    1    1    2    0    0  0.19544350478E+02 -0.18184218895E+03  0.61417918845E+01  0.18299258161E+03  0.00000000000E+00 0.  1.
</event>
<event>
 7    1  0.1068210E-005  0.1091216E+03  0.7561462E-02  0.1262205E+00
          2   -1    0    0  501    0  0.00000000000E+00  0.00000000000E+00  0.88208776979E+02  0.88208776979E+02  0.00000000000E+00 0. -1.
         -2   -1    0    0    0  501 -0.00000000000E+00 -0.00000000000E+00 -0.25720301797E+03  0.25720301797E+03  0.00000000000E+00 0.  1.
         23    2    1    2    0    0 -0.48589611258E+02  0.54986875228E+02 -0.17603183732E+03  0.22807808520E+03  0.12509156018E+03 0.  0.
          5    1    3    3  502    0 -0.73452480059E+02  0.87469863909E+01 -0.44578156224E+02  0.86466531155E+02  0.41800000000E+01 0.  1.
         -5    1    3    3    0  502  0.24862868801E+02  0.46239888837E+02 -0.13145368110E+03  0.14161155404E+03  0.41800000000E+01 0.  1.
        -11    1    1    2    0    0  0.73307676725E+01 -0.49295528812E+02 -0.32829595305E+02  0.59678904510E+02  0.00000000000E+00 0.  1.
         11    1    1    2    0    0  0.41258843586E+02 -0.56913464154E+01  0.39867191637E+02  0.57654805238E+02  0.00000000000E+00 0. -1.
</event>
<event>
 6    1  0.1068210E-005  0.1328245E+03  0.7561462E-02  0.1223324E+00
         -2   -1    0    0    0  501 -0.00000000000E+00  0.00000000000E+00  0.23096053469E+02  0.23096053469E+02  0.00000000000E+00 0. -1.
          2   -1    0    0  501    0  0.00000000000E+00 -0.00000000000E+00 -0.96928477541E+03  0.96928477541E+03  0.00000000000E+00 0.  1.
          5    1    1    2  502    0  0.75437375802E+00  0.29572752149E+02 -0.22425138879E+02  0.37356070500E+02  0.41800000000E+01 0. -1.
         -5    1    1    2    0  502  0.69021266498E+02 -0.86783055138E+02 -0.37060819616E+03  0.38686320754E+03  0.41800000000E+01 0.  1.
        -11    1    1    2    0    0 -0.68972774689E+02  0.77933497063E+02 -0.50684929289E+03  0.51742350093E+03  0.00000000000E+00 0. -1.
         11    1    1    2    0    0 -0.80286556725E+00 -0.20723194074E+02 -0.46306094006E+02  0.50738049902E+02  0.00000000000E+00 0.  1.
</event>
<event>
 6    1  0.1068210E-005  0.2206162E+03  0.7561462E-02  0.1133425E+00
         -1   -1    0    0    0  501 -0.00000000000E+00  0.00000000000E+00  0.56294234768E+02  0.56294234768E+02  0.00000000000E+00 0.  1.
          1   -1    0    0  501    0  0.00000000000E+00 -0.00000000000E+00 -0.10320499270E+04  0.10320499270E+04  0.00000000000E+00 0. -1.
          5    1    1    2  502    0 -0.18892016217E+01 -0.43026217005E+02 -0.60551257262E+02  0.74422789443E+02  0.41800000000E+01 0. -1.
         -5    1    1    2    0  502  0.16665150071E+03  0.10939057343E+03 -0.25226158907E+03  0.32154688922E+03  0.41800000000E+01 0.  1.
        -11    1    1    2    0    0 -0.17398528249E+03 -0.71397414448E+02 -0.60746756346E+03  0.63591297358E+03  0.00000000000E+00 0. -1.
         11    1    1    2    0    0  0.92229833985E+01  0.50330580195E+01 -0.55475282421E+02  0.56461509504E+02  0.00000000000E+00 0.  1.
</event>
<event>
 7    1  0.1068210E-005  0.1348817E+03  0.7561462E-02  0.1220387E+00
         -1   -1    0    0    0  501 -0.00000000000E+00  0.00000000000E+00  0.16383433785E+03  0.16383433785E+03  0.00000000000E+00 0.  1.
          1   -1    0    0  501    0  0.00000000000E+00 -0.00000000000E+00 -0.21942047838E+03  0.21942047838E+03  0.00000000000E+00 0. -1.
         23    2    1    2    0    0  0.11422685929E+03 -0.35061403256E+02  0.69832740764E+02  0.18655114118E+03  0.12509052406E+03 0.  0.
          5    1    3    3  502    0  0.21629987874E+02 -0.12259783883E+02 -0.36051323696E+02  0.43992374527E+02  0.41800000000E+01 0.  1.
         -5    1    3    3    0  502  0.92596871416E+02 -0.22801619373E+02  0.10588406446E+03  0.14255876665E+03  0.41800000000E+01 0.  1.
        -11    1    1    2    0    0 -0.58686757546E+02  0.63695898016E+02 -0.89873678678E+02  0.12481418611E+03  0.00000000000E+00 0. -1.
         11    1    1    2    0    0 -0.55540101744E+02 -0.28634494760E+02 -0.35545202608E+02  0.71889488942E+02  0.00000000000E+00 0.  1.
</event>
<event>
 7    1  0.1068210E-005  0.1109959E+03  0.7561462E-02  0.1258737E+00
          1   -1    0    0  501    0  0.00000000000E+00  0.00000000000E+00  0.92272598025E+02  0.92272598025E+02  0.00000000000E+00 0. -1.
         -1   -1    0    0    0  501 -0.00000000000E+00 -0.00000000000E+00 -0.25943416223E+03  0.25943416223E+03  0.00000000000E+00 0.  1.
         23    2    1    2    0    0  0.38842163390E+01 -0.75655716265E+02 -0.18104043658E+03  0.23269268755E+03  0.12502548788E+03 0.  0.
          5    1    3    3  502    0  0.37842329496E+02 -0.49169141308E+02 -0.17886797387E+03  0.18936966715E+03  0.41800000000E+01 0. -1.
         -5    1    3    3    0  502 -0.33958113157E+02 -0.26486574957E+02 -0.21724627073E+01  0.43323020398E+02  0.41800000000E+01 0. -1.
        -11    1    1    2    0    0 -0.19780281953E+02  0.91784437680E+02  0.31219720257E+01  0.93943542960E+02  0.00000000000E+00 0.  1.
         11    1    1    2    0    0  0.15896065614E+02 -0.16128721415E+02  0.10756900353E+02  0.25070529745E+02  0.00000000000E+00 0. -1.
</event>
<event>
 7    1  0.1068210E-005  0.1302658E+03  0.7561462E-02  0.1227062E+00
          3   -1    0    0  501    0  0.00000000000E+00  0.00000000000E+00  0.16799977661E+03  0.16799977661E+03  0.00000000000E+00 0. -1.
         -3   -1    0    0    0  501 -0.00000000000E+00 -0.00000000000E+00 -0.13887478307E+03  0.13887478307E+03  0.00000000000E+00 0.  1.
         23    2    1    2    0    0  0.10300489250E+02  0.10250019531E+03 -0.12253962758E+02  0.16251294705E+03  0.12509159939E+03 0.  0.
          5    1    3    3  502    0  0.55687190855E+02  0.18725895981E+02  0.19422184900E+02  0.62019481390E+02  0.41800000000E+01 0. -1.
         -5    1    3    3    0  502 -0.45386701605E+02  0.83774299325E+02 -0.31676147657E+02  0.10049346566E+03  0.41800000000E+01 0. -1.
        -11    1    1    2    0    0  0.33677371197E+01 -0.79024978428E+02 -0.16161880819E+02  0.80731005571E+02  0.00000000000E+00 0.  1.
         11    1    1    2    0    0 -0.13668226370E+02 -0.23475216877E+02  0.57540837110E+02  0.63630607060E+02  0.00000000000E+00 0. -1.
</event>
<event>
 7    1  0.1068210E-005  0.1384175E+03  0.7561462E-02  0.1215474E+00
         -1   -1    0    0    0  501 -0.00000000000E+00  0.00000000000E+00  0.44631608089E+03  0.44631608089E+03  0.00000000000E+00 0.  1.
          1   -1    0    0  501    0  0.00000000000E+00 -0.00000000000E+00 -0.56219524517E+02  0.56219524517E+02  0.00000000000E+00 0. -1.
         23    2    1    2    0    0 -0.64840181351E+02 -0.78133545165E+02  0.29863336123E+03  0.33932104808E+03  0.12509112371E+03 0.  0.
          5    1    3    3  502    0  0.13585102592E+02 -0.81247884028E+02  0.15625838695E+03  0.17669162279E+03  0.41800000000E+01 0. -1.
         -5    1    3    3    0  502 -0.78425283943E+02  0.31143388629E+01  0.14237497428E+03  0.16262942529E+03  0.41800000000E+01 0. -1.
        -11    1    1    2    0    0  0.32036420312E+02  0.11312569751E+01  0.69722189158E+02  0.76738488581E+02  0.00000000000E+00 0.  1.
         11    1    1    2    0    0  0.32803761040E+02  0.77002288190E+02  0.21741005982E+02  0.86476068747E+02  0.00000000000E+00 0. -1.
</event>
<event>
 7    1  0.1068210E-005  0.1640675E+03  0.7561462E-02  0.1184180E+00
          2   -1    0    0  501    0  0.00000000000E+00  0.00000000000E+00  0.11586162407E+04  0.11586162407E+04  0.00000000000E+00 0. -1.
         -2   -1    0    0    0  501 -0.00000000000E+00 -0.00000000000E+00 -0.27767066231E+02  0.27767066231E+02  0.00000000000E+00 0.  1.
         23    2    1    2    0    0  0.13080261485E+03  0.21572336045E+01  0.39895358679E+03  0.43809359970E+03  0.12509220592E+03 0.  0.
          5    1    3    3  502    0  0.14289112021E+03 -0.30003422851E+02  0.31174885626E+03  0.34427154892E+03  0.41800000000E+01 0.  1.
         -5    1    3    3    0  502 -0.12088505368E+02  0.32160656456E+02  0.87204730527E+02  0.93822050777E+02  0.41800000000E+01 0.  1.
        -11    1    1    2    0    0 -0.11039429354E+03 -0.28615286095E+02  0.64846115289E+03  0.65841294144E+03  0.00000000000E+00 0. -1.
         11    1    1    2    0    0 -0.20408321308E+02  0.26458052491E+02  0.83434434760E+02  0.89876765763E+02  0.00000000000E+00 0.  1.
</event>
<event>
 7    1  0.1068210E-005  0.1242478E+03  0.7561462E-02  0.1236250E+00
          1   -1    0    0  501    0  0.00000000000E+00  0.00000000000E+00  0.24089268052E+03  0.24089268052E+03  0.00000000000E+00 0. -1.
         -1   -1    0    0    0  501 -0.00000000000E+00 -0.00000000000E+00 -0.68994582227E+02  0.68994582227E+02  0.00000000000E+00 0.  1.
         23    2    1    2    0    0 -0.56925141833E+02  0.22429336324E+02  0.63379763577E+02  0.15299528538E+03  0.12508803307E+03 0.  0.
          5    1    3    3  502    0 -0.60720251061E+02 -0.41882410681E+02  0.25584473797E+02  0.78186462465E+02  0.41800000000E+01 0.  1.
         -5    1    3    3    0  502  0.37951092279E+01  0.64311747005E+02  0.37795289780E+02  0.74808822918E+02  0.41800000000E+01 0.  1.
        -11    1    1    2    0    0  0.36113570393E+02  0.34190443691E+02  0.30748959847E+02  0.58469435930E+02  0.00000000000E+00 0.  1.
         11    1    1    2    0    0  0.20811571440E+02 -0.56619780015E+02  0.77769374865E+02  0.98422541430E+02  0.00000000000E+00 0. -1.
</event>
<event>
 6    1  0.1068210E-005  0.1266864E+03  0.7561462E-02  0.1232457E+00
         -1   -1    0    0    0  501 -0.00000000000E+00  0.00000000000E+00  0.46454444558E+03  0.46454444558E+03  0.00000000000E+00 0.  1.
          1   -1    0    0  501    0  0.00000000000E+00 -0.00000000000E+00 -0.81408297351E+02  0.81408297351E+02  0.00000000000E+00 0. -1.
          5    1    1    2  502    0  0.78405917866E+02  0.60466219727E+02  0.16369124441E+03  0.19135293983E+03  0.41800000000E+01 0. -1.
         -5    1    1    2    0  502 -0.85932846275E+02 -0.25633720870E+02  0.23484165831E+03  0.25141523143E+03  0.41800000000E+01 0.  1.
        -11    1    1    2    0    0  0.63528190308E+01 -0.49439064672E+02  0.28145347108E+02  0.57242816048E+02  0.00000000000E+00 0.  1.
         11    1    1    2    0    0  0.11741093791E+01  0.14606565816E+02 -0.43542101604E+02  0.45941755624E+02  0.00000000000E+00 0. -1.
</event>
<event>
 7    1  0.1068210E-005  0.2041613E+03  0.7561462E-02  0.1146275E+00
         -3   -1    0    0    0  501 -0.00000000000E+00  0.00000000000E+00  0.33513748172E+03  0.33513748172E+03  0.00000000000E+00 0.  1.
          3   -1    0    0  501    0  0.00000000000E+00 -0.00000000000E+00 -0.14952667322E+03  0.14952667322E+03  0.00000000000E+00 0. -1.
         23    2    1    2    0    0 -0.34235945426E+02  0.14953570730E+03  0.12280046727E+03  0.23289779600E+03  0.12501360287E+03 0.  0.
          5    1    3    3  502    0  0.14779890741E+02  0.42974173885E+01  0.68330830224E+02  0.70167568902E+02  0.41800000000E+01 0.  1.
         -5    1    3    3    0  502 -0.49015836166E+02  0.14523828991E+03  0.54469637042E+02  0.16273022710E+03  0.41800000000E+01 0.  1.
        -11    1    1    2    0    0 -0.67764733050E+02 -0.13658373080E+02  0.41255237219E+02  0.80502203687E+02  0.00000000000E+00 0.  1.
         11    1    1    2    0    0  0.10200067848E+03 -0.13587733422E+03  0.21555104017E+02  0.17126415525E+03  0.00000000000E+00 0. -1.
</event>
<event>
 7    1  0.1068210E-005  0.1087550E+03  0.7561462E-02  0.1262893E+00
         -3   -1    0    0    0  501 -0.00000000000E+00  0.00000000000E+00  0.26039558004E+03  0.26039558004E+03  0.00000000000E+00 0.  1.
          3   -1    0    0  501    0  0.00000000000E+00 -0.00000000000E+00 -0.64136440812E+02  0.64136440812E+02  0.00000000000E+00 0. -1.
         23    2    1    2    0    0  0.14257032423E+02 -0.68180983078E+02  0.13287203319E+03  0.19533352702E+03  0.12509316588E+03 0.  0.
          5    1    3    3  502    0 -0.34271119683E+02 -0.44547296857E+02  0.51303516589E+01  0.56592969614E+02  0.41800000000E+01 0.  1.
         -5    1    3    3    0  502  0.48528152106E+02 -0.23633686220E+02  0.12774168153E+03  0.13874055741E+03  0.41800000000E+01 0.  1.
        -11    1    1    2    0    0 -0.32242683348E+02 -0.41217567817E+01  0.18369525159E+01  0.32556933256E+02  0.00000000000E+00 0. -1.
         11    1    1    2    0    0  0.17985650925E+02  0.72302739859E+02  0.61550153524E+02  0.96641560569E+02  0.00000000000E+00 0.  1.
</event>
<event>
 7    1  0.1068210E-005  0.1128996E+03  0.7561462E-02  0.1255293E+00
         -1   -1    0    0    0  501 -0.00000000000E+00  0.00000000000E+00  0.49430418652E+03  0.49430418652E+03  0.00000000000E+00 0.  1.
          1   -1    0    0  501    0  0.00000000000E+00 -0.00000000000E+00 -0.27644400297E+02  0.27644400297E+02  0.00000000000E+00 0. -1.
         23    2    1    2    0    0  0.38828041162E+02 -0.20572675956E+02  0.26786048804E+03  0.29887693711E+03  0.12508929093E+03 0.  0.
          5    1    3    3  502    0  0.84204369431E+02 -0.18722446776E+02  0.16123039708E+03  0.18290330557E+03  0.41800000000E+01 0. -1.
         -5    1    3    3    0  502 -0.45376328269E+02 -0.18502291798E+01  0.10663009096E+03  0.11597363155E+03  0.41800000000E+01 0. -1.
        -11    1    1    2    0    0  0.21772347002E+02 -0.12178443428E+02  0.96998934681E+02  0.10015559349E+03  0.00000000000E+00 0.  1.
         11    1    1    2    0    0 -0.60600388164E+02  0.32751119384E+02  0.10180036349E+03  0.12291605621E+03  0.00000000000E+00 0. -1.
</event>
<event>
 7    1  0.1121893E-005  0.2493750E+03  0.7561462E-02  0.1113700E+00
         -2   -1    0    0    0  501 -0.00000000000E+00  0.00000000000E+00  0.15039176323E+03  0.15039176323E+03  0.00000000000E+00 0.  1.
          2   -1    0    0  501    0  0.00000000000E+00 -0.00000000000E+00 -0.47954306880E+03  0.47954306880E+03  0.00000000000E+00 0. -1.
         23    2    1    2    0    0  0.11706050771E+03  0.21541659784E+03 -0.15851495290E+03  0.31761887394E+03  0.12508911104E+03 0.  0.
          5    1    3    3  502    0  0.30014016925E+02  0.12163470834E+03 -0.14057329134E+03  0.18834586834E+03  0.41800000000E+01 0.  1.
         -5    1    3    3    0  502  0.87046490782E+02  0.93781889499E+02 -0.17941661561E+02  0.12927300559E+03  0.41800000000E+01 0.  1.
        -11    1    1    2    0    0 -0.81188448364E+02 -0.13938656412E+03 -0.16064708402E+03  0.22765689976E+03  0.00000000000E+00 0.  1.
         11    1    1    2    0    0 -0.35872059343E+02 -0.76030033722E+02 -0.99892686503E+01  0.84659058330E+02  0.00000000000E+00 0. -1.
</event>
<event>
 7    1  0.1068210E-005  0.1984872E+03  0.7561462E-02  0.1151022E+00
          2   -1    0    0  501    0  0.00000000000E+00  0.00000000000E+00  0.72843394473E+03  0.72843394473E+03  0.00000000000E+00 0. -1.
         -2   -1    0    0    0  501 -0.00000000000E+00 -0.00000000000E+00 -0.63718754246E+02  0.63718754246E+02  0.00000000000E+00 0.  1.
         23    2    1    2    0    0  0.46563860042E+02  0.17572341334E+03  0.27486506703E+03  0.35248059621E+03  0.12507939307E+03 0.  0.
          5    1    3    3  502    0 -0.15625940750E+01  0.13166518621E+03  0.98814448642E+02  0.16468130015E+03  0.41800000000E+01 0. -1.
         -5    1    3    3    0  502  0.48126454117E+02  0.44058227131E+02  0.17605061839E+03  0.18779929605E+03  0.41800000000E+01 0. -1.
        -11    1    1    2    0    0  0.19851974915E+02 -0.85765348130E+02  0.21250907178E+03  0.23002152385E+03  0.00000000000E+00 0. -1.
         11    1    1    2    0    0 -0.66415834956E+02 -0.89958065212E+02  0.17734105168E+03  0.20965057891E+03  0.00000000000E+00 0.  1.
</event>
<event>
 7    1  0.1068210E-005  0.1542549E+03  0.7561462E-02  0.1195340E+00
         -3   -1    0    0    0  501 -0.00000000000E+00  0.00000000000E+00  0.19162114670E+03  0.19162114670E+03  0.00000000000E+00 0.  1.
          3   -1    0    0  501    0  0.00000000000E+00 -0.00000000000E+00 -0.16943354301E+03  0.16943354301E+03  0.00000000000E+00 0. -1.
         23    2    1    2    0    0 -0.91044543355E+02  0.11286042676E+03 -0.90265532013E+01  0.19172138648E+03  0.12509606936E+03 0.  0.
          5    1    3    3  502    0 -0.22515215287E+02  0.22649043902E+02 -0.59475754691E+02  0.67636912298E+02  0.41800000000E+01 0.  1.
         -5    1    3    3    0  502 -0.68529328068E+02  0.90211382859E+02  0.50449201490E+02  0.12408447419E+03  0.41800000000E+01 0.  1.
        -11    1    1    2    0    0  0.27684144293E+02 -0.92238580865E+02  0.13448168570E+01  0.96312907638E+02  0.00000000000E+00 0. -1.
         11    1    1    2    0    0  0.63360399063E+02 -0.20621845895E+02  0.29869340039E+02  0.73020395588E+02  0.00000000000E+00 0.  1.
</event>
<event>
 6    1  0.1068210E-005  0.8992300E+02  0.7561462E-02  0.1303038E+00
         -1   -1    0    0    0  501 -0.00000000000E+00  0.00000000000E+00  0.14310324754E+03  0.14310324754E+03  0.00000000000E+00 0.  1.
          1   -1    0    0  501    0  0.00000000000E+00 -0.00000000000E+00 -0.14753735191E+03  0.14753735191E+03  0.00000000000E+00 0. -1.
          5    1    1    2  502    0  0.37151998744E+02  0.48923240266E+02  0.65702792645E+02  0.90044898857E+02  0.41800000000E+01 0. -1.
         -5    1    1    2    0  502 -0.94053855546E+01 -0.65277115464E+02  0.21044632228E+02  0.69353529300E+02  0.41800000000E+01 0.  1.
        -11    1    1    2    0    0 -0.34524027492E+02  0.40226826944E-01  0.37076924127E+01  0.34722572996E+02  0.00000000000E+00 0.  1.
         11    1    1    2    0    0  0.67774143029E+01  0.16313648371E+02 -0.94889221659E+02  0.96519598294E+02  0.00000000000E+00 0. -1.
</event>
<event>
 7    1  0.1068210E-005  0.2073085E+03  0.7561462E-02  0.1143715E+00
          2   -1    0    0  501    0  0.00000000000E+00  0.00000000000E+00  0.12253013858E+04  0.12253013858E+04  0.00000000000E+00 0. -1.
         -2   -1    0    0    0  501 -0.00000000000E+00 -0.00000000000E+00 -0.40427258288E+02  0.40427258288E+02  0.00000000000E+00 0.  1.
         23    2    1    2    0    0  0.16176567361E+03  0.10571287350E+03  0.56071261546E+03  0.60612166041E+03  0.12506592384E+03 0.  0.
          5    1    3    3  502    0  0.10460307642E+03  0.10820404499E+03  0.26399737979E+03  0.30391118421E+03  0.41800000000E+01 0. -1.
         -5    1    3    3    0  502  0.57162597188E+02 -0.24911714903E+01  0.29671523566E+03  0.30221047620E+03  0.41800000000E+01 0. -1.
        -11    1    1    2    0    0 -0.47991707251E+02 -0.74661639463E+02  0.18992608900E+03  0.20964132144E+03  0.00000000000E+00 0.  1.
         11    1    1    2    0    0 -0.11377396636E+03 -0.31051234034E+02  0.43423542301E+03  0.44996566220E+03  0.00000000000E+00 0. -1.
</event>
<event>
 7    1  0.1068210E-005  0.1604250E+03  0.7561462E-02  0.1188218E+00
         -2   -1    0    0    0  501 -0.00000000000E+00  0.00000000000E+00  0.12857334013E+03  0.12857334013E+03  0.00000000000E+00 0. -1.
          2   -1    0    0  501    0  0.00000000000E+00 -0.00000000000E+00 -0.30009008222E+03  0.30009008222E+03  0.00000000000E+00 0.  1.
         23    2    1    2    0    0 -0.22939945376E+02 -0.15147167690E+03 -0.27401227708E+02  0.19966670270E+03  0.12508419121E+03 0.  0.
          5    1    3    3  502    0  0.72534227663E+01 -0.75580319072E+01 -0.49625584975E+02  0.50891129603E+02  0.41800000000E+01 0.  1.
         -5    1    3    3    0  502 -0.30193368143E+02 -0.14391364499E+03  0.22224357267E+02  0.14877557310E+03  0.41800000000E+01 0.  1.
        -11    1    1    2    0    0 -0.16197678107E+02  0.72994455100E+02 -0.20673228141E+02  0.77575367309E+02  0.00000000000E+00 0.  1.
         11    1    1    2    0    0  0.39137623484E+02  0.78477221799E+02 -0.12344228623E+03  0.15142135234E+03  0.00000000000E+00 0. -1.
</event>
<event>
 6    1  0.1068210E-005  0.9013234E+02  0.7561462E-02  0.1302532E+00
         -2   -1    0    0    0  501 -0.00000000000E+00  0.00000000000E+00  0.38749260854E+03  0.38749260854E+03  0.00000000000E+00 0.  1.
          2   -1    0    0  501    0  0.00000000000E+00 -0.00000000000E+00 -0.52049148464E+02  0.52049148464E+02  0.00000000000E+00 0. -1.
          5    1    1    2  502    0  0.28879639681E+02  0.46533543482E+02  0.10732418316E+02  0.55964823417E+02  0.41800000000E+01 0. -1.
         -5    1    1    2    0  502 -0.23477929526E+02 -0.90629249558E+01  0.26514195549E+03  0.26636643697E+03  0.41800000000E+01 0.  1.
        -11    1    1    2    0    0 -0.48949514819E+02 -0.18543014294E+02  0.39888193724E+02  0.65810078093E+02  0.00000000000E+00 0.  1.
         11    1    1    2    0    0  0.43547804665E+02 -0.18927604233E+02  0.19680892550E+02  0.51400418526E+02  0.00000000000E+00 0. -1.
</event>
<event>
 6    1  0.1068210E-005  0.3001845E+03  0.7561462E-02  0.1085148E+00
         -2   -1    0    0    0  501 -0.00000000000E+00  0.00000000000E+00  0.51786075323E+02  0.51786075323E+02  0.00000000000E+00 0.  1.
          2   -1    0    0  501    0  0.00000000000E+00 -0.00000000000E+00 -0.18725716670E+04  0.18725716670E+04  0.00000000000E+00 0. -1.
          5    1    1    2  502    0  0.79517891269E+02 -0.21677034045E+02 -0.29411490074E+03  0.30547346214E+03  0.41800000000E+01 0. -1.
         -5    1    1    2    0  502 -0.17503004931E+03  0.22301640916E+03 -0.65968388794E+03  0.71803352382E+03  0.41800000000E+01 0.  1.
        -11    1    1    2    0    0  0.84795573227E+01 -0.10154736953E+03 -0.51040386055E+03  0.52047658162E+03  0.00000000000E+00 0.  1.
         11    1    1    2    0    0  0.87032600718E+02 -0.99792005586E+02 -0.35658294245E+03  0.38037417475E+03  0.00000000000E+00 0. -1.
</event>
<event>
 7    1  0.1068210E-005  0.1486362E+03  0.7561462E-02  0.1202159E+00
          1   -1    0    0  501    0  0.00000000000E+00  0.00000000000E+00  0.77873593351E+03  0.77873593351E+03  0.00000000000E+00 0. -1.
         -1   -1    0    0    0  501 -0.00000000000E+00 -0.00000000000E+00 -0.28921120974E+02  0.28921120974E+02  0.00000000000E+00 0.  1.
         23    2    1    2    0    0 -0.86453693881E+02 -0.58771378134E+02  0.44538266977E+03  0.47428021903E+03  0.12509071731E+03 0.  0.
          5    1    3    3  502    0 -0.10535893897E+03 -0.59464869911E+01  0.26281974883E+03  0.28324469899E+03  0.41800000000E+01 0.  1.
         -5    1    3    3    0  502  0.18905245090E+02 -0.52824891143E+02  0.18256292094E+03  0.19103552005E+03  0.41800000000E+01 0.  1.
        -11    1    1    2    0    0  0.45309940393E+01  0.53089037363E+02  0.13356376643E+03  0.14379935848E+03  0.00000000000E+00 0.  1.
         11    1    1    2    0    0  0.81922699842E+02  0.56823407704E+01  0.17086837633E+03  0.18957747698E+03  0.00000000000E+00 0. -1.
</event>
<event>
 7    1  0.1068210E-005  0.1545342E+03  0.7561462E-02  0.1195010E+00
         -1   -1    0    0    0  501 -0.00000000000E+00  0.00000000000E+00  0.22562027292E+03  0.22562027292E+03  0.00000000000E+00 0.  1.
          1   -1    0    0  501    0  0.00000000000E+00 -0.00000000000E+00 -0.17525843934E+03  0.17525843934E+03  0.00000000000E+00 0. -1.
         23    2    1    2    0    0  0.69020911322E+02 -0.10441613757E+03  0.13656182735E+03  0.22352383749E+03  0.12508859762E+03 0.  0.
          5    1    3    3  502    0 -0.35440984739E+02 -0.15011138384E+02  0.38410553684E+02  0.54536599722E+02  0.41800000000E+01 0. -1.
         -5    1    3    3    0  502  0.10446189606E+03 -0.89404999184E+02  0.98151273665E+02  0.16898723777E+03  0.41800000000E+01 0. -1.
        -11    1    1    2    0    0 -0.63096268636E+02  0.57071123824E+02 -0.76140783661E+01  0.85417951741E+02  0.00000000000E+00 0.  1.
         11    1    1    2    0    0 -0.59246426859E+01  0.47345013744E+02 -0.78585915402E+02  0.91936923034E+02  0.00000000000E+00 0. -1.
</event>
<event>
 7    1  0.1068210E-005  0.1254881E+03  0.7561462E-02  0.1234308E+00
          1   -1    0    0  501    0  0.00000000000E+00  0.00000000000E+00  0.55657223167E+03  0.55657223167E+03  0.00000000000E+00 0. -1.
         -1   -1    0    0    0  501 -0.00000000000E+00 -0.00000000000E+00 -0.30232086083E+02  0.30232086083E+02  0.00000000000E+00 0.  1.
         23    2    1    2    0    0 -0.37307273692E+02  0.52284332308E+02  0.28258096260E+03  0.31563398208E+03  0.12508927270E+03 0.  0.
          5    1    3    3  502    0  0.31235626554E+02 -0.22725484694E+02  0.82516454094E+02  0.91206083224E+02  0.41800000000E+01 0. -1.
         -5    1    3    3    0  502 -0.68542900246E+02  0.75009817002E+02  0.20006450851E+03  0.22442789886E+03  0.41800000000E+01 0. -1.
        -11    1    1    2    0    0  0.39978286459E+02 -0.76365937358E+02  0.13829450240E+03  0.16295824364E+03  0.00000000000E+00 0.  1.
         11    1    1    2    0    0 -0.26710127675E+01  0.24081605050E+02  0.10546468058E+03  0.10821209203E+03  0.00000000000E+00 0. -1.
</event>
<event>
 7    1  0.1068210E-005  0.1299743E+03  0.7561462E-02  0.1227494E+00
          1   -1    0    0  501    0  0.00000000000E+00  0.00000000000E+00  0.68946228269E+02  0.68946228269E+02  0.00000000000E+00 0. -1.
         -1   -1    0    0    0  501 -0.00000000000E+00 -0.00000000000E+00 -0.36042033469E+03  0.36042033469E+03  0.00000000000E+00 0.  1.
         23    2    1    2    0    0 -0.72431281592E+02  0.75160272840E+02 -0.22190635700E+03  0.27397275830E+03  0.12216089329E+03 0.  0.
          5    1    3    3  502    0 -0.12770675614E+02 -0.25302646230E+02 -0.72685516288E+01  0.29557034774E+02  0.41800000000E+01 0. -1.
         -5    1    3    3    0  502 -0.59660605978E+02  0.10046291907E+03 -0.21463780537E+03  0.24441572353E+03  0.41800000000E+01 0.  1.
        -11    1    1    2    0    0  0.25555839506E+02 -0.59836272457E+02 -0.81859954443E+02  0.10456831535E+03  0.00000000000E+00 0.  1.
         11    1    1    2    0    0  0.46875442086E+02 -0.15324000383E+02  0.12292205021E+02  0.50825489302E+02  0.00000000000E+00 0. -1.
</event>
<event>
 7    1  0.1068210E-005  0.2464399E+03  0.7561462E-02  0.1115576E+00
          2   -1    0    0  501    0  0.00000000000E+00  0.00000000000E+00  0.63624118504E+03  0.63624118504E+03  0.00000000000E+00 0. -1.
         -2   -1    0    0    0  501 -0.00000000000E+00 -0.00000000000E+00 -0.17485603847E+03  0.17485603847E+03  0.00000000000E+00 0.  1.
         23    2    1    2    0    0 -0.22871047475E+03 -0.29743920751E+02 -0.26970530770E+02  0.26376362690E+03  0.12510259496E+03 0.  0.
          5    1    3    3  502    0 -0.12079572736E+03 -0.59314979477E+02 -0.59447194299E+02  0.14717783749E+03  0.41800000000E+01 0.  1.
         -5    1    3    3    0  502 -0.10791474740E+03  0.29571058726E+02  0.32476663528E+02  0.11658578942E+03  0.41800000000E+01 0.  1.
        -11    1    1    2    0    0  0.18855772008E+03 -0.11244009850E+02  0.35413039637E+03  0.40135866652E+03  0.00000000000E+00 0. -1.
         11    1    1    2    0    0  0.40152754672E+02  0.40987930601E+02  0.13422528097E+03  0.14597493009E+03  0.00000000000E+00 0.  1.
</event>
<event>
 7    1  0.1068210E-005  0.1245274E+03  0.7561462E-02  0.1235810E+00
          3   -1    0    0  501    0  0.00000000000E+00  0.00000000000E+00  0.24219357948E+02  0.24219357948E+02  0.00000000000E+00 0. -1.
         -3   -1    0    0    0  501 -0.00000000000E+00 -0.00000000000E+00 -0.88877992677E+03  0.88877992677E+03  0.00000000000E+00 0.  1.
         23    2    1    2    0    0  0.11516986591E+01  0.96114308664E+02 -0.53841072650E+03  0.56104650175E+03  0.12509108675E+03 0.  0.
          5    1    3    3  502    0 -0.12239197280E+02  0.11963563199E+03 -0.49728075170E+03  0.51163277925E+03  0.41800000000E+01 0.  1.
         -5    1    3    3    0  502  0.13390895939E+02 -0.23521323324E+02 -0.41129974794E+02  0.49413722502E+02  0.41800000000E+01 0.  1.
        -11    1    1    2    0    0  0.15459318331E+02 -0.43919300990E+02 -0.42428963580E+02  0.62992955742E+02  0.00000000000E+00 0. -1.
         11    1    1    2    0    0 -0.16611016990E+02 -0.52195007674E+02 -0.28372087875E+03  0.28895982722E+03  0.00000000000E+00 0.  1.
</event>
<event>
 7    1  0.1068210E-005  0.1147482E+03  0.7561462E-02  0.1252021E+00
         -2   -1    0    0    0  501 -0.00000000000E+00  0.00000000000E+00  0.28688976142E+03  0.28688976142E+03  0.00000000000E+00 0.  1.
          2   -1    0    0  501    0  0.00000000000E+00 -0.00000000000E+00 -0.62055890681E+02  0.62055890681E+02  0.00000000000E+00 0. -1.
         23    2    1    2    0    0  0.66059717737E+02 -0.39367123606E+02  0.13877835447E+03  0.20204027620E+03  0.12508870776E+03 0.  0.
          5    1    3    3  502    0  0.74413476743E+02 -0.69085886823E+02  0.13734541803E+03  0.17085508928E+03  0.41800000000E+01 0. -1.
         -5    1    3    3    0  502 -0.83537590052E+01  0.29718763216E+02  0.14329364432E+01  0.31185186924E+02  0.41800000000E+01 0. -1.
        -11    1    1    2    0    0 -0.68768714856E+02  0.50462769534E+02  0.98308598577E+02  0.13015455354E+03  0.00000000000E+00 0.  1.
         11    1    1    2    0    0  0.27089971187E+01 -0.11095645928E+02 -0.12253082306E+02  0.16750822366E+02  0.00000000000E+00 0. -1.
</event>
<event>
 6    1  0.1068210E-005  0.1055047E+03  0.7561462E-02  0.1269128E+00
         -2   -1    0    0    0  501 -0.00000000000E+00  0.00000000000E+00  0.26065544509E+03  0.26065544509E+03  0.00000000000E+00 0. -1.
          2   -1    0    0  501    0  0.00000000000E+00 -0.00000000000E+00 -0.49386356568E+02  0.49386356568E+02  0.00000000000E+00 0.  1.
          5    1    1    2  502    0  0.45443361895E+00 -0.57424695149E+02  0.27842549170E+02  0.63956876622E+02  0.41800000000E+01 0. -1.
         -5    1    1    2    0  502 -0.25205926119E+02  0.59122673794E+02  0.10405264585E+03  0.12237342349E+03  0.41800000000E+01 0.  1.
        -11    1    1    2    0    0  0.12317893691E+02  0.41907481148E+02  0.17624341126E+02  0.47101856452E+02  0.00000000000E+00 0.  1.
         11    1    1    2    0    0  0.12433598809E+02 -0.43605459792E+02  0.61749552376E+02  0.76609645095E+02  0.00000000000E+00 0. -1.
</event>
<event>
 7    1  0.1068210E-005  0.1063865E+03  0.7561462E-02  0.1267412E+00
          1   -1    0    0  501    0  0.00000000000E+00  0.00000000000E+00  0.21256748935E+03  0.21256748935E+03  0.00000000000E+00 0. -1.
         -1   -1    0    0    0  501 -0.00000000000E+00 -0.00000000000E+00 -0.75964633282E+02  0.75964633282E+02  0.00000000000E+00 0.  1.
         23    2    1    2    0    0 -0.44079534579E+02  0.49329726667E+02  0.74646319384E+02  0.15998401552E+03  0.12508551044E+03 0.  0.
          5    1    3    3  502    0 -0.19132924337E+02 -0.24599346524E+02 -0.19989888089E+02  0.37259423894E+02  0.41800000000E+01 0.  1.
         -5    1    3    3    0  502 -0.24946610242E+02  0.73929073191E+02  0.94636207472E+02  0.12272459163E+03  0.41800000000E+01 0.  1.
        -11    1    1    2    0    0 -0.19805041319E+02  0.37234685053E+01 -0.62365280127E+01  0.21094979521E+02  0.00000000000E+00 0.  1.
         11    1    1    2    0    0  0.63884575898E+02 -0.53053195172E+02  0.68193064694E+02  0.10745312759E+03  0.00000000000E+00 0. -1.
</event>
<event>
 7    1  0.1068210E-005  0.1562608E+03  0.7561462E-02  0.1192984E+00
          2   -1    0    0  501    0  0.00000000000E+00  0.00000000000E+00  0.45663148120E+03  0.45663148120E+03  0.00000000000E+00 0. -1.
         -2   -1    0    0    0  501 -0.00000000000E+00 -0.00000000000E+00 -0.67871985595E+02  0.67871985595E+02  0.00000000000E+00 0.  1.
         23    2    1    2    0    0  0.13078382795E+03  0.89858641133E+01  0.13913342658E+03  0.22845162704E+03  0.12508748978E+03 0.  0.
          5    1    3    3  502    0  0.90097433367E+02  0.46258860564E+02  0.14031940613E+03  0.17310239113E+03  0.41800000000E+01 0.  1.
         -5    1    3    3    0  502  0.40686394582E+02 -0.37272996450E+02 -0.11859795435E+01  0.55349235911E+02  0.41800000000E+01 0.  1.
        -11    1    1    2    0    0  0.54436258232E+01 -0.18476918876E+02  0.14359708696E+02  0.24025628547E+02  0.00000000000E+00 0.  1.
         11    1    1    2    0    0 -0.13622745377E+03  0.94910547624E+01  0.23526636033E+03  0.27202621121E+03  0.00000000000E+00 0. -1.
</event>
<event>
 7    1  0.1068210E-005  0.7295608E+02  0.7561462E-02  0.1350320E+00
         -1   -1    0    0    0  501 -0.00000000000E+00  0.00000000000E+00  0.84544533717E+03  0.84544533717E+03  0.00000000000E+00 0.  1.
          1   -1    0    0  501    0  0.00000000000E+00 -0.00000000000E+00 -0.19457944008E+02  0.19457944008E+02  0.00000000000E+00 0. -1.
         23    2    1    2    0    0 -0.24793102103E+02 -0.61639737897E+01  0.67392114040E+03  0.68590865743E+03  0.12509312677E+03 0.  0.
          5    1    3    3  502    0  0.17150894834E+02  0.20573333952E+02  0.56976008253E+03  0.57040462771E+03  0.41800000000E+01 0. -1.
         -5    1    3    3    0  502 -0.41943996937E+02 -0.26737307742E+02  0.10416105787E+03  0.11550402972E+03  0.41800000000E+01 0. -1.
        -11    1    1    2    0    0  0.41641718642E+02 -0.12756589847E+02  0.14679193064E+03  0.15311640740E+03  0.00000000000E+00 0.  1.
         11    1    1    2    0    0 -0.16848616539E+02  0.18920563637E+02  0.52743221237E+01  0.25878216350E+02  0.00000000000E+00 0. -1.
</event>
<event>
 7    1  0.1068210E-005  0.1128588E+03  0.7561462E-02  0.1255365E+00
         -3   -1    0    0    0  501 -0.00000000000E+00  0.00000000000E+00  0.16880316948E+03  0.16880316948E+03  0.00000000000E+00 0.  1.
          3   -1    0    0  501    0  0.00000000000E+00 -0.00000000000E+00 -0.90588109873E+02  0.90588109873E+02  0.00000000000E+00 0. -1.
         23    2    1    2    0    0  0.38624964356E+02 -0.31747594987E+01  0.92280344317E+02  0.16020476315E+03  0.12509171524E+03 0.  0.
          5    1    3    3  502    0 -0.30126949583E+02  0.37040103557E+02  0.52461808859E+02  0.71058540313E+02  0.41800000000E+01 0. -1.
         -5    1    3    3    0  502  0.68751913939E+02 -0.40214863056E+02  0.39818535458E+02  0.89146222841E+02  0.41800000000E+01 0. -1.
        -11    1    1    2    0    0 -0.28317416017E+02  0.45980845350E+02 -0.10503565286E+02  0.55013080923E+02  0.00000000000E+00 0.  1.
         11    1    1    2    0    0 -0.10307548339E+02 -0.42806085851E+02 -0.35617194260E+01  0.44173435274E+02  0.00000000000E+00 0. -1.
</event>
<event>
 7    1  0.1068210E-005  0.1712384E+03  0.7561462E-02  0.1176562E+00
          3   -1    0    0  501    0  0.00000000000E+00  0.00000000000E+00  0.70829394405E+02  0.70829394405E+02  0.00000000000E+00 0. -1.
         -3   -1    0    0    0  501 -0.00000000000E+00 -0.00000000000E+00 -0.41809740158E+03  0.41809740158E+03  0.00000000000E+00 0.  1.
         23    2    1    2    0    0 -0.65272968282E+02  0.11906290639E+03 -0.19439995055E+03  0.26809566839E+03  0.12508961014E+03 0.  0.
          5    1    3    3  502    0 -0.56155616207E+02 -0.81794572204E+01 -0.56343530366E+02  0.80077603398E+02  0.41800000000E+01 0.  1.
         -5    1    3    3    0  502 -0.91173520752E+01  0.12724236362E+03 -0.13805642019E+03  0.18801806499E+03  0.41800000000E+01 0.  1.
        -11    1    1    2    0    0 -0.11673607265E+02 -0.59492505709E+02 -0.44641576660E+02  0.75289452839E+02  0.00000000000E+00 0. -1.
         11    1    1    2    0    0  0.76946575547E+02 -0.59570400686E+02 -0.10822647996E+03  0.14554167475E+03  0.00000000000E+00 0.  1.
</event>
<event>
 7    1  0.1068210E-005  0.1075500E+03  0.7561462E-02  0.1265175E+00
          2   -1    0    0  501    0  0.00000000000E+00  0.00000000000E+00  0.38961861725E+03  0.38961861725E+03  0.00000000000E+00 0. -1.
         -2   -1    0    0    0  501 -0.00000000000E+00 -0.00000000000E+00 -0.32680475872E+02  0.32680475872E+02  0.00000000000E+00 0.  1.
         23    2    1    2    0    0  0.39609176419E+02  0.19470210367E+02  0.17903454231E+03  0.22283403244E+03  0.12511459837E+03 0.  0.
          5    1    3    3  502    0 -0.19162501488E+02 -0.42619658134E+02  0.68663354864E+02  0.83161081185E+02  0.41800000000E+01 0. -1.
         -5    1    3    3    0  502  0.58771677907E+02  0.62089868501E+02  0.11037118744E+03  0.13967295125E+03  0.41800000000E+01 0. -1.
        -11    1    1    2    0    0 -0.42759497047E+02 -0.41942160634E+02  0.86005059938E+02  0.10480643950E+03  0.00000000000E+00 0.  1.
         11    1    1    2    0    0  0.31503206278E+01  0.22471950266E+02  0.91898539132E+02  0.94658621179E+02  0.00000000000E+00 0. -1.
</event>
<event>
 7    1  0.1068210E-005  0.1136987E+03  0.7561462E-02  0.1253870E+00
          1   -1    0    0  501    0  0.00000000000E+00  0.00000000000E+00  0.71375516543E+03  0.71375516543E+03  0.00000000000E+00 0. -1.
         -1   -1    0    0    0  501 -0.00000000000E+00 -0.00000000000E+00 -0.22792290198E+02  0.22792290198E+02  0.00000000000E+00 0.  1.
         23    2    1    2    0    0 -0.25713440492E+02 -0.52883108833E+02  0.29517549155E+03  0.32593401337E+03  0.12508639428E+03 0.  0.
          5    1    3    3  502    0 -0.57490668438E+02 -0.14544683153E+01  0.60563740164E+02  0.83622553526E+02  0.41800000000E+01 0.  1.
         -5    1    3    3    0  502  0.31777227946E+02 -0.51428640517E+02  0.23461175139E+03  0.24231145984E+03  0.41800000000E+01 0.  1.
        -11    1    1    2    0    0  0.60287043652E+02  0.27589076235E+02  0.22803178410E+03  0.23747458668E+03  0.00000000000E+00 0. -1.
         11    1    1    2    0    0 -0.34573603160E+02  0.25294032597E+02  0.16775559958E+03  0.17313885558E+03  0.00000000000E+00 0.  1.
</event>
<event>
 7    1  0.1068210E-005  0.9867886E+02  0.7561462E-02  0.1283099E+00
         -3   -1    0    0    0  501 -0.00000000000E+00  0.00000000000E+00  0.26574850210E+03  0.26574850210E+03  0.00000000000E+00 0.  1.
          3   -1    0    0  501    0  0.00000000000E+00 -0.00000000000E+00 -0.53540434388E+02  0.53540434388E+02  0.00000000000E+00 0. -1.
         23    2    1    2    0    0 -0.27540142091E+02 -0.40273691158E+02  0.13779012297E+03  0.19242124394E+03  0.12513747442E+03 0.  0.
          5    1    3    3  502    0  0.31112608860E+02 -0.10252218146E+02 -0.65781891390E+01  0.33672650316E+02  0.41800000000E+01 0.  1.
         -5    1    3    3    0  502 -0.58652750951E+02 -0.30021473012E+02  0.14436831211E+03  0.15874859362E+03  0.41800000000E+01 0.  1.
        -11    1    1    2    0    0  0.95633286026E+00  0.63200169379E+02  0.29209506386E+02  0.69630246628E+02  0.00000000000E+00 0. -1.
         11    1    1    2    0    0  0.26583809231E+02 -0.22926478222E+02  0.45208438357E+02  0.57237445921E+02  0.00000000000E+00 0.  1.
</event>
<event>
 7    1  0.1068210E-005  0.1097154E+03  0.7561462E-02  0.1261098E+00
         -3   -1    0    0    0  501 -0.00000000000E+00  0.00000000000E+00  0.28567618421E+03  0.28567618421E+03  0.00000000000E+00 0.  1.
          3   -1    0    0  501    0  0.00000000000E+00 -0.00000000000E+00 -0.54614292808E+02  0.54614292808E+02  0.00000000000E+00 0. -1.
         23    2    1    2    0    0 -0.10413822308E+01 -0.37617719017E+02  0.19558029838E+03  0.23519294541E+03  0.12509153127E+03 0.  0.
          5    1    3    3  502    0  0.25278731489E+02 -0.77768409254E+02  0.13340096843E+03  0.15652549480E+03  0.41800000000E+01 0.  1.
         -5    1    3    3    0  502 -0.26320113720E+02  0.40150690238E+02  0.62179329949E+02  0.78667450611E+02  0.41800000000E+01 0.  1.
        -11    1    1    2    0    0 -0.37705984580E+02  0.37398761785E+01  0.37872576178E+02  0.53572940682E+02  0.00000000000E+00 0.  1.
         11    1    1    2    0    0  0.38747366811E+02  0.33877842839E+02 -0.23909831514E+01  0.51524590931E+02  0.00000000000E+00 0. -1.
</event>
<event>
 7    1  0.1068210E-005  0.1689309E+03  0.7561462E-02  0.1178967E+00
          2   -1    0    0  501    0  0.00000000000E+00  0.00000000000E+00  0.85868356074E+03  0.85868356074E+03  0.00000000000E+00 0. -1.
         -2   -1    0    0    0  501 -0.00000000000E+00 -0.00000000000E+00 -0.38938846614E+02  0.38938846614E+02  0.00000000000E+00 0.  1.
         23    2    1    2    0    0  0.79157915035E+02 -0.11324569469E+03  0.55748505334E+03  0.58781822921E+03  0.12510045168E+03 0.  0.
          5    1    3    3  502    0 -0.12993633954E+02 -0.79153545701E+02  0.16957602851E+03  0.18763693710E+03  0.41800000000E+01 0. -1.
         -5    1    3    3    0  502  0.92151548989E+02 -0.34092148985E+02  0.38790902483E+03  0.40018129210E+03  0.41800000000E+01 0. -1.
        -11    1    1    2    0    0 -0.32056502980E+02 -0.45070174851E+01  0.91801255403E+02  0.97341682148E+02  0.00000000000E+00 0. -1.
         11    1    1    2    0    0 -0.47101412055E+02  0.11775271217E+03  0.17045840538E+03  0.21246249600E+03  0.00000000000E+00 0.  1.
</event>
<event>
 7    1  0.1068210E-005  0.1909436E+03  0.7561462E-02  0.1157613E+00
         -1   -1    0    0    0  501 -0.00000000000E+00  0.00000000000E+00  0.32754706657E+02  0.32754706657E+02  0.00000000000E+00 0.  1.
          1   -1    0    0  501    0  0.00000000000E+00 -0.00000000000E+00 -0.14454193578E+04  0.14454193578E+04  0.00000000000E+00 0. -1.
         23    2    1    2    0    0 -0.15711394815E+03  0.30025082920E+02 -0.39720128990E+03  0.44609810231E+03  0.12509338061E+03 0.  0.
          5    1    3    3  502    0 -0.17415453081E+03  0.40348763282E+02 -0.32344045362E+03  0.36957952154E+03  0.41800000000E+01 0.  1.
         -5    1    3    3    0  502  0.17040582663E+02 -0.10323680362E+02 -0.73760836283E+02  0.76518580769E+02  0.41800000000E+01 0.  1.
        -11    1    1    2    0    0  0.30405210491E+02 -0.45854806406E+02 -0.24493595795E+03  0.25103936662E+03  0.00000000000E+00 0. -1.
         11    1    1    2    0    0  0.12670873766E+03  0.15829723487E+02 -0.77052740333E+03  0.78103659557E+03  0.00000000000E+00 0.  1.
</event>
<event>
 7    1  0.1068210E-005  0.8386663E+02  0.7561462E-02  0.1318423E+00
          4   -1    0    0  501    0  0.00000000000E+00  0.00000000000E+00  0.31046912363E+03  0.31046912363E+03  0.00000000000E+00 0. -1.
         -4   -1    0    0    0  501 -0.00000000000E+00 -0.00000000000E+00 -0.42112470290E+02  0.42112470290E+02  0.00000000000E+00 0.  1.
         23    2    1    2    0    0  0.16654750445E+02  0.20658803025E+02  0.13010410064E+03  0.18242391652E+03  0.12508893421E+03 0.  0.
          5    1    3    3  502    0  0.57496323766E+01  0.54169978715E+02  0.13589531825E+03  0.14646656543E+03  0.41800000000E+01 0.  1.
         -5    1    3    3    0  502  0.10905118068E+02 -0.33511175689E+02 -0.57912176116E+01  0.35957351092E+02  0.41800000000E+01 0.  1.
        -11    1    1    2    0    0  0.26566777242E+02  0.54439524149E+01  0.48892326154E+01  0.27556031399E+02  0.00000000000E+00 0.  1.
         11    1    1    2    0    0 -0.43221527686E+02 -0.26102755440E+02  0.13336332009E+03  0.14260164600E+03  0.00000000000E+00 0. -1.
</event>
<event>
 7    1  0.1068210E-005  0.1598069E+03  0.7561462E-02  0.1188915E+00
          3   -1    0    0  501    0  0.00000000000E+00  0.00000000000E+00  0.88498418772E+03  0.88498418772E+03  0.00000000000E+00 0. -1.
         -3   -1    0    0    0  501 -0.00000000000E+00 -0.00000000000E+00 -0.48323551136E+02  0.48323551136E+02  0.00000000000E+00 0.  1.
         23    2    1    2    0    0  0.13858144435E+02  0.15709506521E+03  0.25844836197E+03  0.32758440367E+03  0.12508028637E+03 0.  0.
          5    1    3    3  502    0 -0.88929625277E+01  0.72112584832E+02  0.23196610175E+02  0.76386286710E+02  0.41800000000E+01 0.  1.
         -5    1    3    3    0  502  0.22751106963E+02  0.84982480380E+02  0.23525175180E+03  0.25119811696E+03  0.41800000000E+01 0.  1.
        -11    1    1    2    0    0 -0.16040013404E+02 -0.77851058012E+02  0.14537407398E+03  0.16568551732E+03  0.00000000000E+00 0.  1.
         11    1    1    2    0    0  0.21818689687E+01 -0.79244007200E+02  0.43283820063E+03  0.44003781787E+03  0.00000000000E+00 0. -1.
</event>
<event>
 7    1  0.1068210E-005  0.9581791E+02  0.7561462E-02  0.1289345E+00
          1   -1    0    0  501    0  0.00000000000E+00  0.00000000000E+00  0.13972309164E+03  0.13972309164E+03  0.00000000000E+00 0. -1.
         -1   -1    0    0    0  501 -0.00000000000E+00 -0.00000000000E+00 -0.91894620357E+02  0.91894620357E+02  0.00000000000E+00 0.  1.
         23    2    1    2    0    0  0.10296982208E+02 -0.31121443201E+02  0.21700905083E+02  0.13111977485E+03  0.12508754536E+03 0.  0.
          5    1    3    3  502    0  0.50786324930E+02  0.12498576423E+02 -0.22276015638E+02  0.57001390204E+02  0.41800000000E+01 0.  1.
         -5    1    3    3    0  502 -0.40489342722E+02 -0.43620019624E+02  0.43976920722E+02  0.74118384644E+02  0.41800000000E+01 0.  1.
        -11    1    1    2    0    0 -0.41021981770E+02  0.10007793078E+02  0.42383765141E+02  0.59827606155E+02  0.00000000000E+00 0. -1.
         11    1    1    2    0    0  0.30724999562E+02  0.21113650123E+02 -0.16256198938E+02  0.40670330999E+02  0.00000000000E+00 0.  1.
</event>
<event>
 7    1  0.1068210E-005  0.6984207E+02  0.7561462E-02  0.1360631E+00
          1   -1    0    0  501    0  0.00000000000E+00  0.00000000000E+00  0.77352348518E+03  0.77352348518E+03  0.00000000000E+00 0. -1.
         -1   -1    0    0    0  501 -0.00000000000E+00 -0.00000000000E+00 -0.20174696802E+02  0.20174696802E+02  0.00000000000E+00 0.  1.
         23    2    1    2    0    0 -0.32127140508E+02  0.18976681659E+02  0.26342293274E+03  0.29399247253E+03  0.12509062636E+03 0.  0.
          5    1    3    3  502    0 -0.14874745216E+02  0.17907206509E+02  0.27284414424E+03  0.27386735025E+03  0.41800000000E+01 0. -1.
         -5    1    3    3    0  502 -0.17252395293E+02  0.10694751502E+01 -0.94212114944E+01  0.20125122272E+02  0.41800000000E+01 0. -1.
        -11    1    1    2    0    0 -0.31942503736E+02 -0.10482463862E+02  0.15564525877E+03  0.15923458220E+03  0.00000000000E+00 0.  1.
         11    1    1    2    0    0  0.64069644245E+02 -0.84942177972E+01  0.33428059687E+03  0.34047112725E+03  0.00000000000E+00 0. -1.
</event>
<event>
 7    1  0.1068210E-005  0.1102100E+03  0.7561462E-02  0.1260182E+00
         -2   -1    0    0    0  501 -0.00000000000E+00  0.00000000000E+00  0.14374230400E+02  0.14374230400E+02  0.00000000000E+00 0.  1.
          2   -1    0    0  501    0  0.00000000000E+00 -0.00000000000E+00 -0.10524380834E+04  0.10524380834E+04  0.00000000000E+00 0. -1.
         23    2    1    2    0    0  0.44046019079E+02  0.29875456264E+02 -0.59637710722E+03  0.61167469442E+03  0.12509069947E+03 0.  0.
          5    1    3    3  502    0  0.38309603984E+00  0.60178806735E+02 -0.47868025462E+03  0.48246646941E+03  0.41800000000E+01 0. -1.
         -5    1    3    3    0  502  0.43662923039E+02 -0.30303350471E+02 -0.11769685260E+03  0.12920822501E+03  0.41800000000E+01 0. -1.
        -11    1    1    2    0    0 -0.69885352263E+02 -0.36720052332E+01 -0.23494441662E+03  0.24514551798E+03  0.00000000000E+00 0.  1.
         11    1    1    2    0    0  0.25839333183E+02 -0.26203451031E+02 -0.20674232916E+03  0.20999210140E+03  0.00000000000E+00 0. -1.
</event>
<event>
 6    1  0.1068210E-005  0.1400478E+03  0.7561462E-02  0.1213265E+00
          2   -1    0    0  501    0  0.00000000000E+00  0.00000000000E+00  0.10080350844E+03  0.10080350844E+03  0.00000000000E+00 0. -1.
         -2   -1    0    0    0  501 -0.00000000000E+00 -0.00000000000E+00 -0.28232508049E+03  0.28232508049E+03  0.00000000000E+00 0.  1.
          5    1    1    2  502    0 -0.46425068941E+02  0.38482790010E+02  0.13838316863E+02  0.62009544159E+02  0.41800000000E+01 0. -1.
         -5    1    1    2    0  502  0.78279826684E+02 -0.82837603648E+02 -0.17755509131E+03  0.21102863004E+03  0.41800000000E+01 0.  1.
        -11    1    1    2    0    0 -0.51862817249E+02 -0.52350591509E+01 -0.21725903036E+02  0.56472759097E+02  0.00000000000E+00 0. -1.
         11    1    1    2    0    0  0.20008059506E+02  0.49589872789E+02  0.39211054371E+01  0.53617655639E+02  0.00000000000E+00 0.  1.
</event>
<event>
 7    1  0.1068210E-005  0.1063330E+03  0.7561462E-02  0.1267515E+00
          1   -1    0    0  501    0  0.00000000000E+00  0.00000000000E+00  0.48625331173E+03  0.48625331173E+03  0.00000000000E+00 0. -1.
         -1   -1    0    0    0  501 -0.00000000000E+00 -0.00000000000E+00 -0.26362190658E+02  0.26362190658E+02  0.00000000000E+00 0.  1.
         23    2    1    2    0    0 -0.18680565616E+02  0.11845088634E+02  0.21238828156E+03  0.24747842425E+03  0.12509004225E+03 0.  0.
          5    1    3    3  502    0 -0.58603763465E+02 -0.24378651241E+02  0.67115988829E+02  0.92470255137E+02  0.41800000000E+01 0.  1.
         -5    1    3    3    0  502  0.39923197849E+02  0.36223739875E+02  0.14527229273E+03  0.15500816911E+03  0.41800000000E+01 0.  1.
        -11    1    1    2    0    0  0.46685679515E+02 -0.35242345971E+02  0.14668655785E+03  0.15791935244E+03  0.00000000000E+00 0.  1.
         11    1    1    2    0    0 -0.28005113899E+02  0.23397257337E+02  0.10081628167E+03  0.10721772570E+03  0.00000000000E+00 0. -1.
</event>
<event>
 7    1  0.1068210E-005  0.1055202E+03  0.7561462E-02  0.1269098E+00
          4   -1    0    0  501    0  0.00000000000E+00  0.00000000000E+00  0.56548450393E+02  0.56548450393E+02  0.00000000000E+00 0. -1.
         -4   -1    0    0    0  501 -0.00000000000E+00 -0.00000000000E+00 -0.29439507567E+03  0.29439507567E+03  0.00000000000E+00 0.  1.
         23    2    1    2    0    0  0.25551146907E+02  0.46629033553E+02 -0.16665534619E+03  0.21505403856E+03  0.12508839757E+03 0.  0.
          5    1    3    3  502    0 -0.26504219698E+02  0.22746276759E+01 -0.13830753812E+03  0.14090456023E+03  0.41800000000E+01 0.  1.
         -5    1    3    3    0  502  0.52055366605E+02  0.44354405877E+02 -0.28347808072E+02  0.74149478323E+02  0.41800000000E+01 0.  1.
        -11    1    1    2    0    0 -0.76287953233E+01 -0.78586304874E+02 -0.45339885731E+02  0.91047850441E+02  0.00000000000E+00 0.  1.
         11    1    1    2    0    0 -0.17922351583E+02  0.31957271321E+02 -0.25851393350E+02  0.44841637065E+02  0.00000000000E+00 0. -1.
</event>
<event>
 6    1  0.1068210E-005  0.1567042E+03  0.7561462E-02  0.1192469E+00
          1   -1    0    0  501    0  0.00000000000E+00  0.00000000000E+00  0.35801471200E+03  0.35801471200E+03  0.00000000000E+00 0. -1.
         -1   -1    0    0    0  501 -0.00000000000E+00 -0.00000000000E+00 -0.12909668307E+03  0.12909668307E+03  0.00000000000E+00 0.  1.
          5    1    1    2  502    0 -0.86735076372E+02 -0.32257243871E+02  0.28924915680E+01  0.92678703934E+02  0.41800000000E+01 0. -1.
         -5    1    1    2    0  502  0.50968150171E+02  0.11750675853E+03 -0.14642760051E+02  0.12898633049E+03  0.41800000000E+01 0.  1.
        -11    1    1    2    0    0  0.18483584777E+02 -0.36773286629E+02  0.36891685715E+02  0.55271276361E+02  0.00000000000E+00 0.  1.
         11    1    1    2    0    0  0.17283341423E+02 -0.48476228030E+02  0.20377661170E+03  0.21017508428E+03  0.00000000000E+00 0. -1.
</event>
<event>
 7    1  0.1068210E-005  0.7654538E+02  0.7561462E-02  0.1339151E+00
          2   -1    0    0  501    0  0.00000000000E+00  0.00000000000E+00  0.10234843265E+03  0.10234843265E+03  0.00000000000E+00 0. -1.
         -2   -1    0    0    0  501 -0.00000000000E+00 -0.00000000000E+00 -0.21466321610E+03  0.21466321610E+03  0.00000000000E+00 0.  1.
         23    2    1    2    0    0  0.47674293136E+02  0.56691685389E+02 -0.13445901507E+03  0.19802649764E+03  0.12509389120E+03 0.  0.
          5    1    3    3  502    0  0.31137535573E+02  0.34778647820E+02 -0.15599607213E+03  0.16288446024E+03  0.41800000000E+01 0. -1.
         -5    1    3    3    0  502  0.16536757563E+02  0.21913037569E+02  0.21537057060E+02  0.35142037406E+02  0.41800000000E+01 0. -1.
        -11    1    1    2    0    0 -0.23931116140E+02 -0.47130515158E+02  0.55695428131E+02  0.76785184076E+02  0.00000000000E+00 0. -1.
         11    1    1    2    0    0 -0.23743176996E+02 -0.95611702303E+01 -0.33551196508E+02  0.42199967028E+02  0.00000000000E+00 0.  1.
</event>
<event>
 7    1  0.1068210E-005  0.1568355E+03  0.7561462E-02  0.1192316E+00
          2   -1    0    0  501    0  0.00000000000E+00  0.00000000000E+00  0.30597769226E+03  0.30597769226E+03  0.00000000000E+00 0. -1.
         -2   -1    0    0    0  501 -0.00000000000E+00 -0.00000000000E+00 -0.13616063314E+03  0.13616063314E+03  0.00000000000E+00 0.  1.
         23    2    1    2    0    0  0.56549470431E+02  0.12172942984E+03 -0.28927192179E+02  0.18574505087E+03  0.12509414367E+03 0.  0.
          5    1    3    3  502    0  0.52321797931E+02 -0.47155770802E+01 -0.26844769761E+02  0.59143226743E+02  0.41800000000E+01 0. -1.
         -5    1    3    3    0  502  0.42276724999E+01  0.12644500692E+03 -0.20824224173E+01  0.12660182413E+03  0.41800000000E+01 0. -1.
        -11    1    1    2    0    0 -0.41341632187E+02 -0.81671000802E+02  0.55891155366E+02  0.10725252525E+03  0.00000000000E+00 0.  1.
         11    1    1    2    0    0 -0.15207838244E+02 -0.40058429037E+02  0.14285309593E+03  0.14914074928E+03  0.00000000000E+00 0. -1.
</event>
<event>
 7    1  0.1068210E-005  0.2058936E+03  0.7561462E-02  0.1144860E+00
         -2   -1    0    0    0  501 -0.00000000000E+00  0.00000000000E+00  0.21639803671E+03  0.21639803671E+03  0.00000000000E+00 0.  1.
          2   -1    0    0  501    0  0.00000000000E+00 -0.00000000000E+00 -0.20533465819E+03  0.20533465819E+03  0.00000000000E+00 0. -1.
         23    2    1    2    0    0  0.26307223269E+02  0.17530144708E+03  0.31330100143E+02  0.21921577912E+03  0.12510521689E+03 0.  0.
          5    1    3    3  502    0  0.76887094520E+02  0.10220405859E+03  0.17318389319E+02  0.12913053049E+03  0.41800000000E+01 0.  1.
         -5    1    3    3    0  502 -0.50579871251E+02  0.73097388489E+02  0.14011710824E+02  0.90085248626E+02  0.41800000000E+01 0.  1.
        -11    1    1    2    0    0  0.27976030307E+02 -0.84864842719E+02  0.16397163448E+02  0.90849142927E+02  0.00000000000E+00 0.  1.
         11    1    1    2    0    0 -0.54283253576E+02 -0.90436604360E+02 -0.36663885063E+02  0.11166777286E+03  0.00000000000E+00 0. -1.
</event>
<event>
 7    1  0.1068210E-005  0.8342439E+02  0.7561462E-02  0.1319605E+00
          4   -1    0    0  501    0  0.00000000000E+00  0.00000000000E+00  0.10926773491E+03  0.10926773491E+03  0.00000000000E+00 0. -1.
         -4   -1    0    0    0  501 -0.00000000000E+00 -0.00000000000E+00 -0.25402910852E+03  0.25402910852E+03  0.00000000000E+00 0.  1.
         23    2    1    2    0    0 -0.17958574257E+02 -0.32260627549E+02 -0.21094432680E+03  0.24402604091E+03  0.11699547493E+03 0.  0.
          5    1    3    3  502    0 -0.39451498053E+02  0.24080507836E+02 -0.35407658641E+02  0.58373506376E+02  0.41800000000E+01 0. -1.
         -5    1    3    3    0  502  0.21492923796E+02 -0.56341135384E+02 -0.17553666816E+03  0.18565253454E+03  0.41800000000E+01 0.  1.
        -11    1    1    2    0    0  0.22509845090E+02 -0.44977987422E+01 -0.16767474211E+02  0.28426598652E+02  0.00000000000E+00 0.  1.
         11    1    1    2    0    0 -0.45512708330E+01  0.36758426291E+02  0.82950427403E+02  0.90844203865E+02  0.00000000000E+00 0. -1.
</event>
<event>
 7    1  0.1068210E-005  0.2164208E+03  0.7561462E-02  0.1136580E+00
          2   -1    0    0  501    0  0.00000000000E+00  0.00000000000E+00  0.58142738100E+03  0.58142738100E+03  0.00000000000E+00 0. -1.
         -2   -1    0    0    0  501 -0.00000000000E+00 -0.00000000000E+00 -0.90762030353E+02  0.90762030353E+02  0.00000000000E+00 0.  1.
         23    2    1    2    0    0 -0.10051012800E+03  0.17407632548E+03  0.24769507762E+03  0.34264533560E+03  0.12509245224E+03 0.  0.
          5    1    3    3  502    0  0.11753529309E+02  0.91644609267E+02  0.13392694200E+03  0.16275987851E+03  0.41800000000E+01 0. -1.
         -5    1    3    3    0  502 -0.11226365731E+03  0.82431716216E+02  0.11376813562E+03  0.17988545709E+03  0.41800000000E+01 0. -1.
        -11    1    1    2    0    0  0.74208332790E+02 -0.12939593897E+03  0.23313727323E+03  0.27677278379E+03  0.00000000000E+00 0. -1.
         11    1    1    2    0    0  0.26301795208E+02 -0.44680386510E+02  0.98329997893E+01  0.52771291956E+02  0.00000000000E+00 0.  1.
</event>
<event>
 7    1  0.1068210E-005  0.1277558E+03  0.7561462E-02  0.1230824E+00
         -1   -1    0    0    0  501 -0.00000000000E+00  0.00000000000E+00  0.67951272520E+02  0.67951272520E+02  0.00000000000E+00 0.  1.
          1   -1    0    0  501    0  0.00000000000E+00 -0.00000000000E+00 -0.26656818396E+03  0.26656818396E+03  0.00000000000E+00 0. -1.
         23    2    1    2    0    0 -0.20383028909E+02  0.10143972720E+03 -0.11885361997E+03  0.20120285046E+03  0.12510362878E+03 0.  0.
          5    1    3    3  502    0 -0.54217462034E+02  0.11140452114E+02 -0.79516599033E+02  0.96974248048E+02  0.41800000000E+01 0.  1.
         -5    1    3    3    0  502  0.33834433124E+02  0.90299275084E+02 -0.39337020935E+02  0.10422860242E+03  0.41800000000E+01 0.  1.
        -11    1    1    2    0    0  0.89316343463E+01 -0.39922779656E+02 -0.15852982208E+02  0.43873904231E+02  0.00000000000E+00 0.  1.
         11    1    1    2    0    0  0.11451394563E+02 -0.61516947543E+02 -0.63910309262E+02  0.89442701784E+02  0.00000000000E+00 0. -1.
</event>
<event>
 7    1  0.1068210E-005  0.1050171E+03  0.7561462E-02  0.1270086E+00
         -2   -1    0    0    0  501 -0.00000000000E+00  0.00000000000E+00  0.10660827544E+03  0.10660827544E+03  0.00000000000E+00 0.  1.
          2   -1    0    0  501    0  0.00000000000E+00 -0.00000000000E+00 -0.12375168293E+03  0.12375168293E+03  0.00000000000E+00 0. -1.
         23    2    1    2    0    0 -0.17251552913E+02 -0.25660658862E+02  0.12204246151E+02  0.12943027119E+03  0.12508863252E+03 0.  0.
          5    1    3    3  502    0 -0.36411687670E+02 -0.69200038246E+02 -0.55055866113E+01  0.78499937428E+02  0.41800000000E+01 0.  1.
         -5    1    3    3    0  502  0.19160134757E+02  0.43539379385E+02  0.17709832762E+02  0.50930333766E+02  0.41800000000E+01 0.  1.
        -11    1    1    2    0    0  0.41688237729E+02  0.38169927731E+02  0.52470529533E+01  0.56766047182E+02  0.00000000000E+00 0.  1.
         11    1    1    2    0    0 -0.24436684816E+02 -0.12509268870E+02 -0.34594706598E+02  0.44163639988E+02  0.00000000000E+00 0. -1.
</event>
<event>
 7    1  0.1068210E-005  0.1212831E+03  0.7561462E-02  0.1240995E+00
          1   -1    0    0  501    0  0.00000000000E+00  0.00000000000E+00  0.84321687888E+02  0.84321687888E+02  0.00000000000E+00 0. -1.
         -1   -1    0    0    0  501 -0.00000000000E+00 -0.00000000000E+00 -0.27816464939E+03  0.27816464939E+03  0.00000000000E+00 0.  1.
         23    2    1    2    0    0 -0.60240248190E+02 -0.82683930063E+02 -0.14314254269E+03  0.21587785609E+03  0.12509173206E+03 0.  0.
          5    1    3    3  502    0 -0.72470219272E+02 -0.78176796092E+02 -0.16114774019E+03  0.19326047370E+03  0.41800000000E+01 0. -1.
         -5    1    3    3    0  502  0.12229971083E+02 -0.45071339705E+01  0.18005197494E+02  0.22617382388E+02  0.41800000000E+01 0. -1.
        -11    1    1    2    0    0 -0.24442694779E+01  0.52617578026E+02 -0.56005315237E+02  0.76884194120E+02  0.00000000000E+00 0.  1.
         11    1    1    2    0    0  0.62684517667E+02  0.30066352037E+02  0.53048964342E+01  0.69724287061E+02  0.00000000000E+00 0. -1.
</event>
<event>
 7    1  0.1068210E-005  0.1116451E+03  0.7561462E-02  0.1257553E+00
         -2   -1    0    0    0  501 -0.00000000000E+00  0.00000000000E+00  0.20511541053E+03  0.20511541053E+03  0.00000000000E+00 0.  1.
          2   -1    0    0  501    0  0.00000000000E+00 -0.00000000000E+00 -0.13288567023E+03  0.13288567023E+03  0.00000000000E+00 0. -1.
         23    2    1    2    0    0  0.99651361327E+02 -0.12824654613E+02  0.11327496238E+03  0.19640120926E+03  0.12508937731E+03 0.  0.
          5    1    3    3  502    0  0.44529945827E+02  0.28851641752E+02 -0.10809517941E+02  0.54310693102E+02  0.41800000000E+01 0.  1.
         -5    1    3    3    0  502  0.55121415500E+02 -0.41676296365E+02  0.12408448032E+03  0.14209051616E+03  0.41800000000E+01 0.  1.
        -11    1    1    2    0    0 -0.44068960150E+02  0.99586731516E+01  0.27818024495E+02  0.53057430266E+02  0.00000000000E+00 0.  1.
         11    1    1    2    0    0 -0.55582401176E+02  0.28659814615E+01 -0.68863246580E+02  0.88542441235E+02  0.00000000000E+00 0. -1.
</event>
<event>
 7    1  0.1068210E-005  0.1054333E+03  0.7561462E-02  0.1269268E+00
         -1   -1    0    0    0  501 -0.00000000000E+00  0.00000000000E+00  0.10716381269E+03  0.10716381269E+03  0.00000000000E+00 0.  1.
          1   -1    0    0  501    0  0.00000000000E+00 -0.00000000000E+00 -0.13809566147E+03  0.13809566147E+03  0.00000000000E+00 0. -1.
         23    2    1    2    0    0  0.63979941443E+01 -0.38059129008E+01  0.40961157766E+02  0.13183744847E+03  0.12509147481E+03 0.  0.
          5    1    3    3  502    0  0.29283824932E+02  0.54322373281E+02  0.28011986972E+02  0.67901446639E+02  0.41800000000E+01 0. -1.
         -5    1    3    3    0  502 -0.22885830788E+02 -0.58128286182E+02  0.12949170793E+02  0.63936001827E+02  0.41800000000E+01 0. -1.
        -11    1    1    2    0    0  0.36011735999E+02 -0.16226388624E+02 -0.23173830115E+02  0.45794838351E+02  0.00000000000E+00 0.  1.
         11    1    1    2    0    0 -0.42409730143E+02  0.20032301525E+02 -0.48719176434E+02  0.67627187341E+02  0.00000000000E+00 0. -1.
</event>
<event>
 7    1  0.1068210E-005  0.9918805E+02  0.7561462E-02  0.1282013E+00
          2   -1    0    0  501    0  0.00000000000E+00  0.00000000000E+00  0.24420540569E+03  0.24420540569E+03  0.00000000000E+00 0. -1.
         -2   -1    0    0    0  501 -0.00000000000E+00 -0.00000000000E+00 -0.53474219569E+02  0.53474219569E+02  0.00000000000E+00 0.  1.
         23    2    1    2    0    0 -0.30207805273E+02 -0.48339726919E+01  0.80879360956E+02  0.15206836166E+03  0.12508971500E+03 0.  0.
          5    1    3    3  502    0 -0.34112605795E+02  0.52722340924E+02  0.15576893561E+02  0.64833842394E+02  0.41800000000E+01 0. -1.
         -5    1    3    3    0  502  0.39048005214E+01 -0.57556313615E+02  0.65302467395E+02  0.87234519268E+02  0.41800000000E+01 0. -1.
        -11    1    1    2    0    0  0.35975931871E+01  0.36251215277E+02  0.95162800912E+02  0.10189726180E+03  0.00000000000E+00 0.  1.
         11    1    1    2    0    0  0.26610212086E+02 -0.31417242585E+02  0.14689024249E+02  0.43714001788E+02  0.00000000000E+00 0. -1.
</event>
<event>
 7    1  0.1068210E-005  0.1074368E+03  0.7561462E-02  0.1265392E+00
         -2   -1    0    0    0  501 -0.00000000000E+00  0.00000000000E+00  0.27613468045E+02  0.27613468045E+02  0.00000000000E+00 0.  1.
          2   -1    0    0  501    0  0.00000000000E+00 -0.00000000000E+00 -0.54497159276E+03  0.54497159276E+03  0.00000000000E+00 0. -1.
         23    2    1    2    0    0 -0.15743615448E+02 -0.10499230246E+02 -0.16448725302E+03  0.20751205152E+03  0.12508836819E+03 0.  0.
          5    1    3    3  502    0  0.28769980056E+02  0.46027976657E+02 -0.70715734109E+02  0.89243900846E+02  0.41800000000E+01 0. -1.
         -5    1    3    3    0  502 -0.44513595505E+02 -0.56527206903E+02 -0.93771518913E+02  0.11826815068E+03  0.41800000000E+01 0. -1.
        -11    1    1    2    0    0  0.71240871832E+00 -0.37785211525E+02 -0.94065982738E+02  0.10137375817E+03  0.00000000000E+00 0.  1.
         11    1    1    2    0    0  0.15031206730E+02  0.48284441771E+02 -0.25880488896E+03  0.26369925112E+03  0.00000000000E+00 0. -1.
</event>
<event>
 7    1  0.1068210E-005  0.1782195E+03  0.7561462E-02  0.1169537E+00
         -3   -1    0    0    0  501 -0.00000000000E+00  0.00000000000E+00  0.31197958453E+03  0.31197958453E+03  0.00000000000E+00 0.  1.
          3   -1    0    0  501    0  0.00000000000E+00 -0.00000000000E+00 -0.11379028629E+03  0.11379028629E+03  0.00000000000E+00 0. -1.
         23    2    1    2    0    0 -0.89206360060E+02 -0.12266002201E+03  0.74186742381E+02  0.21012986032E+03  0.12509048636E+03 0.  0.
          5    1    3    3  502    0 -0.98860390507E+02 -0.36553618129E+02  0.62471464077E+02  0.12259567706E+03  0.41800000000E+01 0.  1.
         -5    1    3    3    0  502  0.96540304469E+01 -0.86106403879E+02  0.11715278303E+02  0.87534183258E+02  0.41800000000E+01 0.  1.
        -11    1    1    2    0    0  0.64946299177E+02  0.36084714976E+02  0.96156967934E+02  0.12151662814E+03  0.00000000000E+00 0.  1.
         11    1    1    2    0    0  0.24260060884E+02  0.86575307032E+02  0.27845587926E+02  0.94123382370E+02  0.00000000000E+00 0. -1.
</event>
<event>
 7    1  0.1068210E-005  0.8806801E+02  0.7561462E-02  0.1307599E+00
         -3   -1    0    0    0  501 -0.00000000000E+00  0.00000000000E+00  0.35349779184E+03  0.35349779184E+03  0.00000000000E+00 0.  1.
          3   -1    0    0  501    0  0.00000000000E+00 -0.00000000000E+00 -0.49750790452E+02  0.49750790452E+02  0.00000000000E+00 0. -1.
         23    2    1    2    0    0 -0.29497785876E+02 -0.41617129772E+02  0.24735118424E+03  0.28183446821E+03  0.12508378899E+03 0.  0.
          5    1    3    3  502    0 -0.48612796150E+02 -0.16683445889E+01  0.24568364353E+02  0.54654041480E+02  0.41800000000E+01 0. -1.
         -5    1    3    3    0  502  0.19115010274E+02 -0.39948785183E+02  0.22278281988E+03  0.22718042673E+03  0.41800000000E+01 0. -1.
        -11    1    1    2    0    0  0.27511325534E+02  0.59124783904E+02  0.72521184630E+02  0.97529151152E+02  0.00000000000E+00 0.  1.
         11    1    1    2    0    0  0.19864603413E+01 -0.17507654132E+02 -0.16125367476E+02  0.23884962929E+02  0.00000000000E+00 0. -1.
</event>
<event>
 7    1  0.1068210E-005  0.8774215E+02  0.7561462E-02  0.1308413E+00
          1   -1    0    0  501    0  0.00000000000E+00  0.00000000000E+00  0.27985037753E+03  0.27985037753E+03  0.00000000000E+00 0. -1.
         -1   -1    0    0    0  501 -0.00000000000E+00 -0.00000000000E+00 -0.88199203622E+02  0.88199203622E+02  0.00000000000E+00 0.  1.
         23    2    1    2    0    0 -0.58618485868E+02 -0.39947800837E+02  0.24961578567E+01  0.14381291677E+03  0.12507585918E+03 0.  0.
          5    1    3    3  502    0 -0.63428993864E+02 -0.44296480531E+02  0.52259166024E+02  0.93455381245E+02  0.41800000000E+01 0. -1.
         -5    1    3    3    0  502  0.48105079967E+01  0.43486796938E+01 -0.49763008167E+02  0.50357535525E+02  0.41800000000E+01 0. -1.
        -11    1    1    2    0    0  0.27435681662E+02  0.50416105734E+02  0.18164416681E+03  0.19049699127E+03  0.00000000000E+00 0. -1.
         11    1    1    2    0    0  0.31182804205E+02 -0.10468304897E+02  0.75108492389E+01  0.33739673114E+02  0.00000000000E+00 0.  1.
</event>
<event>
 6    1  0.1068210E-005  0.7749829E+02  0.7561462E-02  0.1336305E+00
          2   -1    0    0  501    0  0.00000000000E+00  0.00000000000E+00  0.40368879333E+03  0.40368879333E+03  0.00000000000E+00 0. -1.
         -2   -1    0    0    0  501 -0.00000000000E+00 -0.00000000000E+00 -0.71100911831E+02  0.71100911831E+02  0.00000000000E+00 0.  1.
          5    1    1    2  502    0 -0.13430839705E+02 -0.16925380574E+02  0.18370534251E+03  0.18501886722E+03  0.41800000000E+01 0. -1.
         -5    1    1    2    0  502 -0.32802258065E+02  0.10707191486E+02 -0.52522816887E+02  0.62982146498E+02  0.41800000000E+01 0.  1.
        -11    1    1    2    0    0  0.34373211095E+02 -0.38707437502E+02  0.67592843148E+02  0.85138568250E+02  0.00000000000E+00 0. -1.
         11    1    1    2    0    0  0.11859886675E+02  0.44925626589E+02  0.13381251272E+03  0.14165012318E+03  0.00000000000E+00 0.  1.
</event>
<event>
 7    1  0.1068210E-005  0.1094170E+03  0.7561462E-02  0.1261653E+00
         -1   -1    0    0    0  501 -0.00000000000E+00  0.00000000000E+00  0.13070655631E+04  0.13070655631E+04  0.00000000000E+00 0.  1.
          1   -1    0    0  501    0  0.00000000000E+00 -0.00000000000E+00 -0.13461509377E+02  0.13461509377E+02  0.00000000000E+00 0. -1.
         23    2    1    2    0    0 -0.28315016933E+02  0.44407392507E+02  0.98835868432E+03  0.99763189434E+03  0.12507098402E+03 0.  0.
          5    1    3    3  502    0  0.22754924871E+02 -0.25490109816E+02  0.11659048732E+03  0.12156622244E+03  0.41800000000E+01 0. -1.
         -5    1    3    3    0  502 -0.51069941803E+02  0.69897502323E+02  0.87176819700E+03  0.87606567190E+03  0.41800000000E+01 0. -1.
        -11    1    1    2    0    0  0.31786564652E+02  0.17129230974E+02  0.17651822631E+03  0.18017347326E+03  0.00000000000E+00 0.  1.
         11    1    1    2    0    0 -0.34715477196E+01 -0.61536623480E+02  0.12872714304E+03  0.14272170483E+03  0.00000000000E+00 0. -1.
</event>
<event>
 7    1  0.1068210E-005  0.9223867E+02  0.7561462E-02  0.1297519E+00
         -4   -1    0    0    0  501 -0.00000000000E+00  0.00000000000E+00  0.58867504261E+02  0.58867504261E+02  0.00000000000E+00 0.  1.
          4   -1    0    0  501    0  0.00000000000E+00 -0.00000000000E+00 -0.23105062770E+03  0.23105062770E+03  0.00000000000E+00 0. -1.
         23    2    1    2    0    0  0.13809522476E+02  0.35037995952E+02 -0.72133051289E+02  0.14925503423E+03  0.12512203676E+03 0.  0.
          5    1    3    3  502    0 -0.33979132970E+02  0.15249233775E+02  0.20765052668E+02  0.42846008220E+02  0.41800000000E+01 0.  1.
         -5    1    3    3    0  502  0.47788655446E+02  0.19788762178E+02 -0.92898103956E+02  0.10640902601E+03  0.41800000000E+01 0.  1.
        -11    1    1    2    0    0  0.36556890765E+02 -0.23428122881E+02 -0.65162934879E+02  0.78303839536E+02  0.00000000000E+00 0.  1.
         11    1    1    2    0    0 -0.50366413241E+02 -0.11609873072E+02 -0.34887137272E+02  0.62359258194E+02  0.00000000000E+00 0. -1.
</event>
<event>
 7    1  0.1068210E-005  0.9406771E+02  0.7561462E-02  0.1293290E+00
          2   -1    0    0  501    0  0.00000000000E+00  0.00000000000E+00  0.15473181745E+03  0.15473181745E+03  0.00000000000E+00 0. -1.
         -2   -1    0    0    0  501 -0.00000000000E+00 -0.00000000000E+00 -0.81149213055E+02  0.81149213055E+02  0.00000000000E+00 0.  1.
         23    2    1    2    0    0 -0.18167043013E+02 -0.35678955230E+02  0.14844924495E+02  0.11903235473E+03  0.11110940731E+03 0.  0.
          5    1    3    3  502    0  0.32991286071E+02  0.13081363576E+01 -0.27273119415E+02  0.43028265361E+02  0.41800000000E+01 0. -1.
         -5    1    3    3    0  502 -0.51158329084E+02 -0.36987091587E+02  0.42118043909E+02  0.76004089374E+02  0.41800000000E+01 0.  1.
        -11    1    1    2    0    0 -0.29569288836E+02 -0.35750737551E+01 -0.24432210806E+01  0.29884667037E+02  0.00000000000E+00 0.  1.
         11    1    1    2    0    0  0.47736331850E+02  0.39254028985E+02  0.61180900976E+02  0.86964008729E+02  0.00000000000E+00 0. -1.
</event>
<event>
 7    1  0.1068210E-005  0.1602486E+03  0.7561462E-02  0.1188416E+00
          2   -1    0    0  501    0  0.00000000000E+00  0.00000000000E+00  0.37446158149E+03  0.37446158149E+03  0.00000000000E+00 0. -1.
         -2   -1    0    0    0  501 -0.00000000000E+00 -0.00000000000E+00 -0.95076379806E+02  0.95076379806E+02  0.00000000000E+00 0.  1.
         23    2    1    2    0    0 -0.14153058756E+03 -0.22644163717E+02  0.74200922386E+02  0.20419790341E+03  0.12508933411E+03 0.  0.
          5    1    3    3  502    0 -0.13914395043E+03 -0.45382038477E+02  0.23323729190E+02  0.14826340446E+03  0.41800000000E+01 0. -1.
         -5    1    3    3    0  502 -0.23866371251E+01  0.22737874760E+02  0.50877193196E+02  0.55934498950E+02  0.41800000000E+01 0. -1.
        -11    1    1    2    0    0  0.12963925122E+03  0.52218485267E+01  0.20685822897E+03  0.24418011805E+03  0.00000000000E+00 0. -1.
         11    1    1    2    0    0  0.11891336339E+02  0.17422315190E+02 -0.16739496709E+01  0.21159939840E+02  0.00000000000E+00 0.  1.
</event>
<event>
 7    1  0.1068210E-005  0.1962173E+03  0.7561462E-02  0.1152970E+00
         -2   -1    0    0    0  501 -0.00000000000E+00  0.00000000000E+00  0.30625815864E+02  0.30625815864E+02  0.00000000000E+00 0.  1.
          2   -1    0    0  501    0  0.00000000000E+00 -0.00000000000E+00 -0.13346935686E+04  0.13346935686E+04  0.00000000000E+00 0. -1.
         23    2    1    2    0    0  0.77842143440E+02 -0.14993277593E+03 -0.61163097418E+03  0.64674593378E+03  0.12509443508E+03 0.  0.
          5    1    3    3  502    0 -0.26708030854E+02 -0.79503650503E+02 -0.25459471760E+03  0.26808597872E+03  0.41800000000E+01 0.  1.
         -5    1    3    3    0  502  0.10455017429E+03 -0.70429125428E+02 -0.35703625658E+03  0.37865995506E+03  0.41800000000E+01 0.  1.
        -11    1    1    2    0    0 -0.81166617853E+02  0.85784224256E+02 -0.54667492556E+03  0.55928564010E+03  0.00000000000E+00 0.  1.
         11    1    1    2    0    0  0.33244744130E+01  0.64148551675E+02 -0.14576185297E+03  0.15928781056E+03  0.00000000000E+00 0. -1.
</event>
<event>
 7    1  0.1068210E-005  0.1324023E+03  0.7561462E-02  0.1223934E+00
         -2   -1    0    0    0  501 -0.00000000000E+00  0.00000000000E+00  0.64050508711E+02  0.64050508711E+02  0.00000000000E+00 0.  1.
          2   -1    0    0  501    0  0.00000000000E+00 -0.00000000000E+00 -0.41520302393E+03  0.41520302393E+03  0.00000000000E+00 0. -1.
         23    2    1    2    0    0  0.89716048100E+02  0.24282891915E+02 -0.72941049975E+02  0.17197434951E+03  0.12496460296E+03 0.  0.
          5    1    3    3  502    0  0.11066013628E+03  0.26911470768E+02 -0.21173172028E+02  0.11591233168E+03  0.41800000000E+01 0. -1.
         -5    1    3    3    0  502 -0.20944088184E+02 -0.26285788526E+01 -0.51767877947E+02  0.56062017836E+02  0.41800000000E+01 0. -1.
        -11    1    1    2    0    0 -0.10120502525E+03 -0.40870817434E+02 -0.21837716036E+03  0.24413411277E+03  0.00000000000E+00 0. -1.
         11    1    1    2    0    0  0.11488977150E+02  0.16587925519E+02 -0.59834304884E+02  0.63145070353E+02  0.00000000000E+00 0.  1.
</event>
<event>
 7    1  0.1068210E-005  0.1032486E+03  0.7561462E-02  0.1273609E+00
          3   -1    0    0  501    0  0.00000000000E+00  0.00000000000E+00  0.90034726706E+03  0.90034726706E+03  0.00000000000E+00 0.  1.
         -3   -1    0    0    0  501 -0.00000000000E+00 -0.00000000000E+00 -0.16088436027E+02  0.16088436027E+02  0.00000000000E+00 0. -1.
         23    2    1    2    0    0  0.10027530351E+02  0.49675731833E+02  0.50181019118E+03  0.51964289914E+03  0.12508814872E+03 0.  0.
          5    1    3    3  502    0  0.60721188239E+02  0.43693620460E+02  0.20113348271E+03  0.21463537788E+03  0.41800000000E+01 0. -1.
         -5    1    3    3    0  502 -0.50693657888E+02  0.59821113727E+01  0.30067670847E+03  0.30500752126E+03  0.41800000000E+01 0. -1.
        -11    1    1    2    0    0  0.66508809945E+01  0.13482238996E+02  0.86809687750E+01  0.17359844619E+02  0.00000000000E+00 0. -1.
         11    1    1    2    0    0 -0.16678411345E+02 -0.63157970828E+02  0.37376767107E+03  0.37943295933E+03  0.00000000000E+00 0.  1.
</event>
<event>
 7    1  0.1068210E-005  0.1535298E+03  0.7561462E-02  0.1196202E+00
         -2   -1    0    0    0  501 -0.00000000000E+00  0.00000000000E+00  0.37269694816E+02  0.37269694816E+02  0.00000000000E+00 0. -1.
          2   -1    0    0  501    0  0.00000000000E+00 -0.00000000000E+00 -0.74249204272E+03  0.74249204272E+03  0.00000000000E+00 0.  1.
         23    2    1    2    0    0 -0.71369839106E+02  0.10554368138E+03 -0.37103962562E+03  0.41176813878E+03  0.12509785659E+03 0.  0.
          5    1    3    3  502    0 -0.34382896103E+02 -0.24927544801E+02 -0.80554254598E+02  0.91159346027E+02  0.41800000000E+01 0.  1.
         -5    1    3    3    0  502 -0.36986943003E+02  0.13047122619E+03 -0.29048537102E+03  0.32060879275E+03  0.41800000000E+01 0.  1.
        -11    1    1    2    0    0  0.74288372107E+01 -0.23773350239E+02 -0.87373311330E+01  0.26395089680E+02  0.00000000000E+00 0. -1.
         11    1    1    2    0    0  0.63941001895E+02 -0.81770331146E+02 -0.32544539115E+03  0.34159850908E+03  0.00000000000E+00 0.  1.
</event>
<event>
 7    1  0.1068210E-005  0.1797968E+03  0.7561462E-02  0.1168000E+00
         -1   -1    0    0    0  501 -0.00000000000E+00  0.00000000000E+00  0.74493325818E+03  0.74493325818E+03  0.00000000000E+00 0.  1.
          1   -1    0    0  501    0  0.00000000000E+00 -0.00000000000E+00 -0.48275901296E+02  0.48275901296E+02  0.00000000000E+00 0. -1.
         23    2    1    2    0    0  0.14216246770E+03  0.38368757898E+02  0.45328652860E+03  0.49275008897E+03  0.12510653205E+03 0.  0.
          5    1    3    3  502    0 -0.18473304097E+02 -0.70088634839E+01  0.20084289875E+02  0.28482244142E+02  0.41800000000E+01 0.  1.
         -5    1    3    3    0  502  0.16063577179E+03  0.45377621381E+02  0.43320223873E+03  0.46426784483E+03  0.41800000000E+01 0.  1.
        -11    1    1    2    0    0 -0.94169747940E+02  0.20596750730E+02  0.10472374652E+03  0.14233492422E+03  0.00000000000E+00 0.  1.
         11    1    1    2    0    0 -0.47992719757E+02 -0.58965508628E+02  0.13864708176E+03  0.15812414629E+03  0.00000000000E+00 0. -1.
</event>
<event>
 7    1  0.1068210E-005  0.9234151E+02  0.7561462E-02  0.1297278E+00
          1   -1    0    0  501    0  0.00000000000E+00  0.00000000000E+00  0.39039781580E+03  0.39039781580E+03  0.00000000000E+00 0. -1.
         -1   -1    0    0    0  501 -0.00000000000E+00 -0.00000000000E+00 -0.36202912928E+02  0.36202912928E+02  0.00000000000E+00 0.  1.
         23    2    1    2    0    0  0.11293852661E+01  0.43263786354E+02  0.15812110688E+03  0.20621184481E+03  0.12509200525E+03 0.  0.
          5    1    3    3  502    0  0.10807036679E+02 -0.19115787964E+02 -0.11527744801E+02  0.25150878543E+02  0.41800000000E+01 0.  1.
         -5    1    3    3    0  502 -0.96776514131E+01  0.62379574318E+02  0.16964885168E+03  0.18106096627E+03  0.41800000000E+01 0.  1.
        -11    1    1    2    0    0  0.30578797973E+02  0.13982753204E+02  0.49160629327E+02  0.59559615079E+02  0.00000000000E+00 0.  1.
         11    1    1    2    0    0 -0.31708183239E+02 -0.57246539558E+02  0.14691316666E+03  0.16082926884E+03  0.00000000000E+00 0. -1.
</event>
<event>
 7    1  0.1068210E-005  0.1145850E+03  0.7561462E-02  0.1252307E+00
         -2   -1    0    0    0  501 -0.00000000000E+00  0.00000000000E+00  0.11014474875E+02  0.11014474875E+02  0.00000000000E+00 0.  1.
          2   -1    0    0  501    0  0.00000000000E+00 -0.00000000000E+00 -0.13092545459E+04  0.13092545459E+04  0.00000000000E+00 0. -1.
         23    2    1    2    0    0  0.39238043055E+02 -0.29019920955E+02 -0.70324033186E+03  0.71594452182E+03  0.12509122326E+03 0.  0.
          5    1    3    3  502    0  0.28371600251E+02 -0.72892482790E+02 -0.56595217340E+03  0.57134717705E+03  0.41800000000E+01 0. -1.
         -5    1    3    3    0  502  0.10866442803E+02  0.43872561835E+02 -0.13728815846E+03  0.14459734477E+03  0.41800000000E+01 0. -1.
        -11    1    1    2    0    0 -0.69128218702E+02  0.95718614879E+01 -0.41489039939E+03  0.42071887842E+03  0.00000000000E+00 0.  1.
         11    1    1    2    0    0  0.29890175647E+02  0.19448059467E+02 -0.18010933974E+03  0.18360562050E+03  0.00000000000E+00 0. -1.
</event>
<event>
 7    1  0.1068210E-005  0.1669985E+03  0.7561462E-02  0.1181015E+00
          1   -1    0    0  501    0  0.00000000000E+00  0.00000000000E+00  0.17556994088E+03  0.17556994088E+03  0.00000000000E+00 0. -1.
         -1   -1    0    0    0  501 -0.00000000000E+00 -0.00000000000E+00 -0.18275893249E+03  0.18275893249E+03  0.00000000000E+00 0.  1.
         23    2    1    2    0    0  0.94396899008E+02 -0.10492705627E+03  0.16100569343E+00  0.18859476305E+03  0.12508995582E+03 0.  0.
          5    1    3    3  502    0  0.31942196133E+02 -0.11376809550E+03  0.24682236174E+02  0.12078977039E+03  0.41800000000E+01 0.  1.
         -5    1    3    3    0  502  0.62454702875E+02  0.88410392326E+01 -0.24521230480E+02  0.67804992664E+02  0.41800000000E+01 0.  1.
        -11    1    1    2    0    0 -0.45603792286E+02  0.11332577989E+02  0.32258302930E+02  0.56997642957E+02  0.00000000000E+00 0. -1.
         11    1    1    2    0    0 -0.48793106722E+02  0.93594478277E+02 -0.39608300235E+02  0.11273646737E+03  0.00000000000E+00 0.  1.
</event>
<event>
 7    1  0.1068210E-005  0.8320203E+02  0.7561462E-02  0.1320203E+00
         -2   -1    0    0    0  501 -0.00000000000E+00  0.00000000000E+00  0.61353831700E+02  0.61353831700E+02  0.00000000000E+00 0.  1.
          2   -1    0    0  501    0  0.00000000000E+00 -0.00000000000E+00 -0.25870644575E+03  0.25870644575E+03  0.00000000000E+00 0. -1.
         23    2    1    2    0    0  0.24416980881E+02  0.14449815962E+02 -0.37910636051E+02  0.13375105751E+03  0.12508854034E+03 0.  0.
          5    1    3    3  502    0  0.17750743725E+02 -0.49621548591E+02 -0.44177429749E+02  0.68894881425E+02  0.41800000000E+01 0.  1.
         -5    1    3    3    0  502  0.66662371562E+01  0.64071364554E+02  0.62667936982E+01  0.64856176089E+02  0.41800000000E+01 0.  1.
        -11    1    1    2    0    0 -0.30043160273E+02  0.34323310303E+01 -0.16420600125E+03  0.16696701238E+03  0.00000000000E+00 0. -1.
         11    1    1    2    0    0  0.56261793925E+01 -0.17882146993E+02  0.47640232526E+01  0.19342207557E+02  0.00000000000E+00 0.  1.
</event>
<event>
 7    1  0.1068210E-005  0.1149309E+03  0.7561462E-02  0.1251702E+00
          4   -1    0    0  501    0  0.00000000000E+00  0.00000000000E+00  0.77971708984E+02  0.77971708984E+02  0.00000000000E+00 0. -1.
         -4   -1    0    0    0  501 -0.00000000000E+00 -0.00000000000E+00 -0.29564202277E+03  0.29564202277E+03  0.00000000000E+00 0.  1.
         23    2    1    2    0    0  0.48153782044E+02  0.41356264872E+02 -0.20731872086E+03  0.25031514397E+03  0.12508993529E+03 0.  0.
          5    1    3    3  502    0  0.41192095876E+02 -0.30934870720E+02 -0.32726466608E+02  0.61173924230E+02  0.41800000000E+01 0. -1.
         -5    1    3    3    0  502  0.69616861681E+01  0.72291135592E+02 -0.17459225425E+03  0.18914121974E+03  0.41800000000E+01 0. -1.
        -11    1    1    2    0    0  0.16677792737E+02 -0.36845006612E+02 -0.35303639610E+02  0.53684730161E+02  0.00000000000E+00 0.  1.
         11    1    1    2    0    0 -0.64831574781E+02 -0.45112582605E+01  0.24952046682E+02  0.69613857624E+02  0.00000000000E+00 0. -1.
</event>
<event>
 7    1  0.1068210E-005  0.1248026E+03  0.7561462E-02  0.1235378E+00
         -2   -1    0    0    0  501 -0.00000000000E+00  0.00000000000E+00  0.79203621222E+02  0.79203621222E+02  0.00000000000E+00 0. -1.
          2   -1    0    0  501    0  0.00000000000E+00 -0.00000000000E+00 -0.25052389538E+03  0.25052389538E+03  0.00000000000E+00 0.  1.
         23    2    1    2    0    0 -0.68039461820E+02 -0.44020779849E+02 -0.55193768313E+02  0.15893840472E+03  0.12509143460E+03 0.  0.
          5    1    3    3  502    0  0.12342970347E+02  0.33409600110E+02 -0.23372910039E+02  0.42805555950E+02  0.41800000000E+01 0.  1.
         -5    1    3    3    0  502 -0.80382432167E+02 -0.77430379959E+02 -0.31820858274E+02  0.11613284877E+03  0.41800000000E+01 0.  1.
        -11    1    1    2    0    0 -0.99401566416E+00  0.31961530892E+02 -0.90813305912E+02  0.96278679129E+02  0.00000000000E+00 0.  1.
         11    1    1    2    0    0  0.69033477484E+02  0.12059248956E+02 -0.25313199937E+02  0.74510432759E+02  0.00000000000E+00 0. -1.
</event>
<event>
 7    1  0.1068210E-005  0.1260902E+03  0.7561462E-02  0.1233375E+00
         -2   -1    0    0    0  501 -0.00000000000E+00  0.00000000000E+00  0.49835616431E+02  0.49835616431E+02  0.00000000000E+00 0.  1.
          2   -1    0    0  501    0  0.00000000000E+00 -0.00000000000E+00 -0.62400764906E+03  0.62400764906E+03  0.00000000000E+00 0. -1.
         23    2    1    2    0    0 -0.62272801886E+02 -0.30343450181E+02 -0.74352935837E+02  0.16118773921E+03  0.12511794987E+03 0.  0.
          5    1    3    3  502    0 -0.60679120494E+02 -0.75877262842E+02 -0.49457763546E+02  0.10910021749E+03  0.41800000000E+01 0.  1.
         -5    1    3    3    0  502 -0.15936813914E+01  0.45533812661E+02 -0.24895172292E+02  0.52087521723E+02  0.41800000000E+01 0.  1.
        -11    1    1    2    0    0  0.46909347178E+02 -0.24011000682E+02 -0.31567287590E+03  0.32004121545E+03  0.00000000000E+00 0. -1.
         11    1    1    2    0    0  0.15363454708E+02  0.54354450863E+02 -0.18414622088E+03  0.19261431083E+03  0.00000000000E+00 0.  1.
</event>
<event>
 7    1  0.1068210E-005  0.8524086E+02  0.7561462E-02  0.1314804E+00
          1   -1    0    0  501    0  0.00000000000E+00  0.00000000000E+00  0.18647953471E+02  0.18647953471E+02  0.00000000000E+00 0. -1.
         -1   -1    0    0    0  501 -0.00000000000E+00 -0.00000000000E+00 -0.82034153661E+03  0.82034153661E+03  0.00000000000E+00 0.  1.
         23    2    1    2    0    0  0.49209314999E+02 -0.37425064427E+02 -0.53481071263E+03  0.55053403474E+03  0.11507837735E+03 0.  0.
          5    1    3    3  502    0  0.28897191958E+02 -0.15054774618E+02 -0.29045645507E+02  0.43849924342E+02  0.41800000000E+01 0. -1.
         -5    1    3    3    0  502  0.20312123042E+02 -0.22370289809E+02 -0.50576506712E+03  0.50668411040E+03  0.41800000000E+01 0.  1.
        -11    1    1    2    0    0  0.61239876387E+01  0.50007722184E+02 -0.96319035519E+02  0.10869973370E+03  0.00000000000E+00 0. -1.
         11    1    1    2    0    0 -0.55333302638E+02 -0.12582657757E+02 -0.17056383499E+03  0.17975572165E+03  0.00000000000E+00 0.  1.
</event>
<event>
 7    1  0.1068210E-005  0.1469793E+03  0.7561462E-02  0.1204235E+00
         -2   -1    0    0    0  501 -0.00000000000E+00  0.00000000000E+00  0.14740297408E+03  0.14740297408E+03  0.00000000000E+00 0.  1.
          2   -1    0    0  501    0  0.00000000000E+00 -0.00000000000E+00 -0.22976586621E+03  0.22976586621E+03  0.00000000000E+00 0. -1.
         23    2    1    2    0    0 -0.98187841454E+01  0.11772371278E+03  0.48416623155E+02  0.17873609507E+03  0.12508853349E+03 0.  0.
          5    1    3    3  502    0  0.22704430975E+02  0.12861463358E+03  0.57874368152E+02  0.14291301566E+03  0.41800000000E+01 0. -1.
         -5    1    3    3    0  502 -0.32523215121E+02 -0.10890920800E+02 -0.94577449968E+01  0.35823079405E+02  0.41800000000E+01 0. -1.
        -11    1    1    2    0    0 -0.20937365718E+02 -0.55713465066E+02 -0.11180615449E+03  0.12666088447E+03  0.00000000000E+00 0.  1.
         11    1    1    2    0    0  0.30756149863E+02 -0.62010247715E+02 -0.18973360804E+02  0.71771860755E+02  0.00000000000E+00 0. -1.
</event>
<event>
 7    1  0.1068210E-005  0.8222676E+02  0.7561462E-02  0.1322848E+00
         -2   -1    0    0    0  501 -0.00000000000E+00  0.00000000000E+00  0.21153617716E+03  0.21153617716E+03  0.00000000000E+00 0.  1.
          2   -1    0    0  501    0  0.00000000000E+00 -0.00000000000E+00 -0.10238723429E+03  0.10238723429E+03  0.00000000000E+00 0. -1.
         23    2    1    2    0    0 -0.58861745144E+01  0.47073428578E+02  0.15249915749E+03  0.20286406515E+03  0.12508909291E+03 0.  0.
          5    1    3    3  502    0  0.49203559258E+02  0.17696023467E+02  0.19648621843E+02  0.56015000049E+02  0.41800000000E+01 0.  1.
         -5    1    3    3    0  502 -0.55089733772E+02  0.29377405111E+02  0.13285053565E+03  0.14684906510E+03  0.41800000000E+01 0.  1.
        -11    1    1    2    0    0  0.98616885917E+01 -0.22997611339E+02  0.26871815428E+02  0.36718353634E+02  0.00000000000E+00 0.  1.
         11    1    1    2    0    0 -0.39755140773E+01 -0.24075817239E+02 -0.70222030045E+02  0.74340992673E+02  0.00000000000E+00 0. -1.
</event>
<event>
 7    1  0.1068210E-005  0.1277306E+03  0.7561462E-02  0.1230862E+00
         -3   -1    0    0    0  501 -0.00000000000E+00  0.00000000000E+00  0.60954286957E+03  0.60954286957E+03  0.00000000000E+00 0.  1.
          3   -1    0    0  501    0  0.00000000000E+00 -0.00000000000E+00 -0.31121743773E+02  0.31121743773E+02  0.00000000000E+00 0. -1.
         23    2    1    2    0    0  0.58147321870E+02 -0.56654213985E+02  0.37261508369E+03  0.40134933007E+03  0.12509385739E+03 0.  0.
          5    1    3    3  502    0  0.82429181982E+02 -0.77426507949E+02  0.32237562145E+03  0.34166203751E+03  0.41800000000E+01 0.  1.
         -5    1    3    3    0  502 -0.24281860111E+02  0.20772293964E+02  0.50239462239E+02  0.59687292559E+02  0.41800000000E+01 0.  1.
        -11    1    1    2    0    0  0.11851219000E+01 -0.16124234358E+02  0.83872183612E+02  0.85416266785E+02  0.00000000000E+00 0.  1.
         11    1    1    2    0    0 -0.59332443770E+02  0.72778448343E+02  0.12193385850E+03  0.15389901649E+03  0.00000000000E+00 0. -1.
</event>
<event>
 7    1  0.1068210E-005  0.1140677E+03  0.7561462E-02  0.1253217E+00
          1   -1    0    0  501    0  0.00000000000E+00  0.00000000000E+00  0.15779372374E+03  0.15779372374E+03  0.00000000000E+00 0. -1.
         -1   -1    0    0    0  501 -0.00000000000E+00 -0.00000000000E+00 -0.12232268573E+03  0.12232268573E+03  0.00000000000E+00 0.  1.
         23    2    1    2    0    0 -0.30187782913E+02  0.59575177654E+02 -0.34699547534E+02  0.14599101453E+03  0.12509521851E+03 0.  0.
          5    1    3    3  502    0 -0.19995874983E+02  0.98672101087E+02 -0.29792235019E+02  0.10507648746E+03  0.41800000000E+01 0. -1.
         -5    1    3    3    0  502 -0.10191907931E+02 -0.39096923433E+02 -0.49073125155E+01  0.40914527069E+02  0.41800000000E+01 0. -1.
        -11    1    1    2    0    0  0.41659993298E+02 -0.21290422461E+02 -0.69166403540E+01  0.47293520105E+02  0.00000000000E+00 0.  1.
         11    1    1    2    0    0 -0.11472210384E+02 -0.38284755192E+02  0.77087225893E+02  0.86831874834E+02  0.00000000000E+00 0. -1.
</event>
<event>
 7    1  0.1899847E-005  0.1500640E+03  0.7561462E-02  0.1200394E+00
          1   -1    0    0  501    0  0.00000000000E+00  0.00000000000E+00  0.57583765050E+03  0.57583765050E+03  0.00000000000E+00 0. -1.
         -1   -1    0    0    0  501 -0.00000000000E+00 -0.00000000000E+00 -0.40498477220E+02  0.40498477220E+02  0.00000000000E+00 0.  1.
         23    2    1    2    0    0 -0.90069980709E+02 -0.57523808238E+02  0.28019168623E+03  0.32492549566E+03  0.12509039434E+03 0.  0.
          5    1    3    3  502    0 -0.41410998824E+02 -0.94429872108E+02  0.18173907538E+03  0.20899386472E+03  0.41800000000E+01 0. -1.
         -5    1    3    3    0  502 -0.48658981885E+02  0.36906063870E+02  0.98452610855E+02  0.11593163094E+03  0.41800000000E+01 0. -1.
        -11    1    1    2    0    0  0.85989930159E+02  0.83715373308E+01  0.19732712002E+03  0.21541203082E+03  0.00000000000E+00 0.  1.
         11    1    1    2    0    0  0.40800505497E+01  0.49152270907E+02  0.57820367029E+02  0.75998601245E+02  0.00000000000E+00 0. -1.
</event>
<event>
 7    1  0.1068210E-005  0.1540989E+03  0.7561462E-02  0.1195525E+00
          2   -1    0    0  501    0  0.00000000000E+00  0.00000000000E+00  0.89963645372E+02  0.89963645372E+02  0.00000000000E+00 0. -1.
         -2   -1    0    0    0  501 -0.00000000000E+00 -0.00000000000E+00 -0.27772989208E+03  0.27772989208E+03  0.00000000000E+00 0.  1.
         23    2    1    2    0    0  0.93508161970E+02 -0.66137109170E+02 -0.11818096237E+03  0.20671630888E+03  0.12508796475E+03 0.  0.
          5    1    3    3  502    0  0.10339698476E+03 -0.29558716182E+01 -0.88029395669E+02  0.13589084051E+03  0.41800000000E+01 0.  1.
         -5    1    3    3    0  502 -0.98888227864E+01 -0.63181237552E+02 -0.30151566700E+02  0.70825468365E+02  0.41800000000E+01 0.  1.
        -11    1    1    2    0    0 -0.11810705398E+01 -0.16582294343E+02  0.36182812040E+01  0.17013505581E+02  0.00000000000E+00 0. -1.
         11    1    1    2    0    0 -0.92327091430E+02  0.82719403513E+02 -0.73203565542E+02  0.14396372299E+03  0.00000000000E+00 0.  1.
</event>
<event>
 7    1  0.1068210E-005  0.9211317E+02  0.7561462E-02  0.1297814E+00
          2   -1    0    0  501    0  0.00000000000E+00  0.00000000000E+00  0.51348999469E+02  0.51348999469E+02  0.00000000000E+00 0. -1.
         -2   -1    0    0    0  501 -0.00000000000E+00 -0.00000000000E+00 -0.27859675816E+03  0.27859675816E+03  0.00000000000E+00 0.  1.
         23    2    1    2    0    0 -0.11460429284E+02  0.32557768928E+02 -0.18366252099E+03  0.22487999422E+03  0.12509092863E+03 0.  0.
          5    1    3    3  502    0 -0.46088273732E+02  0.46840094039E+02 -0.17389658004E+03  0.18594519713E+03  0.41800000000E+01 0. -1.
         -5    1    3    3    0  502  0.34627844449E+02 -0.14282325111E+02 -0.97659409466E+01  0.38934797088E+02  0.41800000000E+01 0. -1.
        -11    1    1    2    0    0 -0.30692622017E+02 -0.72957210965E+01 -0.46096676966E+02  0.55858465964E+02  0.00000000000E+00 0.  1.
         11    1    1    2    0    0  0.42153051300E+02 -0.25262047832E+02  0.25114392670E+01  0.49207297444E+02  0.00000000000E+00 0. -1.
</event>
<event>
 7    1  0.1068210E-005  0.1584445E+03  0.7561462E-02  0.1190464E+00
          2   -1    0    0  501    0  0.00000000000E+00  0.00000000000E+00  0.51719691185E+03  0.51719691185E+03  0.00000000000E+00 0. -1.
         -2   -1    0    0    0  501 -0.00000000000E+00 -0.00000000000E+00 -0.62916128440E+02  0.62916128440E+02  0.00000000000E+00 0.  1.
         23    2    1    2    0    0  0.28017729443E+02  0.12264925013E+03  0.12907323875E+03  0.21939645667E+03  0.12508825890E+03 0.  0.
          5    1    3    3  502    0  0.85308345371E+01 -0.19224516867E+02  0.53024992978E+02  0.57196848401E+02  0.41800000000E+01 0. -1.
         -5    1    3    3    0  502  0.19486894906E+02  0.14187376700E+03  0.76048245774E+02  0.16219960827E+03  0.41800000000E+01 0. -1.
        -11    1    1    2    0    0  0.30952152057E+02 -0.46645970362E+02  0.16039846520E+03  0.16988687385E+03  0.00000000000E+00 0. -1.
         11    1    1    2    0    0 -0.58969881500E+02 -0.76003279773E+02  0.16480907945E+03  0.19082970977E+03  0.00000000000E+00 0.  1.
</event>
<event>
 7    1  0.1068210E-005  0.1694683E+03  0.7561462E-02  0.1178403E+00
         -1   -1    0    0    0  501 -0.00000000000E+00  0.00000000000E+00  0.54555937835E+03  0.54555937835E+03  0.00000000000E+00 0.  1.
          1   -1    0    0  501    0  0.00000000000E+00 -0.00000000000E+00 -0.73877487193E+02  0.73877487193E+02  0.00000000000E+00 0. -1.
         23    2    1    2    0    0 -0.55137462654E+01 -0.15773446748E+03  0.33770027001E+03  0.39319140534E+03  0.12508974873E+03 0.  0.
          5    1    3    3  502    0  0.11937589519E+01 -0.15615349512E+03  0.34720557059E+03  0.38072893211E+03  0.41800000000E+01 0.  1.
         -5    1    3    3    0  502 -0.67075052173E+01 -0.15809723658E+01 -0.95053005792E+01  0.12462473228E+02  0.41800000000E+01 0.  1.
        -11    1    1    2    0    0  0.35677950551E+02  0.42226579234E+02  0.14079322847E+02  0.57045836668E+02  0.00000000000E+00 0.  1.
         11    1    1    2    0    0 -0.30164204285E+02  0.11550788825E+03  0.11990229830E+03  0.16919962354E+03  0.00000000000E+00 0. -1.
</event>
<event>
 7    1  0.1068210E-005  0.8485790E+02  0.7561462E-02  0.1315805E+00
         -1   -1    0    0    0  501 -0.00000000000E+00  0.00000000000E+00  0.25688981501E+03  0.25688981501E+03  0.00000000000E+00 0.  1.
          1   -1    0    0  501    0  0.00000000000E+00 -0.00000000000E+00 -0.66897607652E+02  0.66897607652E+02  0.00000000000E+00 0. -1.
         23    2    1    2    0    0  0.49339753238E+01  0.16409281169E+01  0.19674186502E+03  0.23319806833E+03  0.12508773266E+03 0.  0.
          5    1    3    3  502    0  0.37159520708E+02  0.25290754720E+02  0.18627480929E+03  0.19166697480E+03  0.41800000000E+01 0.  1.
         -5    1    3    3    0  502 -0.32225545384E+02 -0.23649826603E+02  0.10467055733E+02  0.41531093525E+02  0.41800000000E+01 0.  1.
        -11    1    1    2    0    0 -0.30125870689E+02  0.30949094349E+02  0.12725252572E+02  0.45026065549E+02  0.00000000000E+00 0. -1.
         11    1    1    2    0    0  0.25191895365E+02 -0.32590022466E+02 -0.19474910236E+02  0.45563288787E+02  0.00000000000E+00 0.  1.
</event>
<event>
 7    1  0.1068210E-005  0.1191307E+03  0.7561462E-02  0.1244538E+00
          2   -1    0    0  501    0  0.00000000000E+00  0.00000000000E+00  0.18037334527E+03  0.18037334527E+03  0.00000000000E+00 0.  1.
         -2   -1    0    0    0  501 -0.00000000000E+00 -0.00000000000E+00 -0.10441166934E+03  0.10441166934E+03  0.00000000000E+00 0. -1.
         23    2    1    2    0    0  0.79152437243E+02  0.25107527413E+02  0.59004557957E+02  0.16131965535E+03  0.12508795741E+03 0.  0.
          5    1    3    3  502    0 -0.26181198448E+02  0.19470880597E+02 -0.10960495563E+02  0.34672398336E+02  0.41800000000E+01 0.  1.
         -5    1    3    3    0  502  0.10533363569E+03  0.56366468161E+01  0.69965053520E+02  0.12664725701E+03  0.41800000000E+01 0.  1.
        -11    1    1    2    0    0 -0.67152572183E+02 -0.41906152839E+02  0.43120004834E+02  0.90138384795E+02  0.00000000000E+00 0.  1.
         11    1    1    2    0    0 -0.11999865059E+02  0.16798625426E+02 -0.26162886864E+02  0.33326974461E+02  0.00000000000E+00 0. -1.
</event>
<event>
 7    1  0.1068210E-005  0.2318251E+03  0.7561462E-02  0.1125362E+00
         -1   -1    0    0    0  501 -0.00000000000E+00  0.00000000000E+00  0.12635768181E+03  0.12635768181E+03  0.00000000000E+00 0.  1.
          1   -1    0    0  501    0  0.00000000000E+00 -0.00000000000E+00 -0.49270544055E+03  0.49270544055E+03  0.00000000000E+00 0. -1.
         23    2    1    2    0    0 -0.10809282574E+03 -0.17687520331E+03 -0.82753720202E+02  0.25585937656E+03  0.12508775256E+03 0.  0.
          5    1    3    3  502    0  0.27848633257E+02 -0.20381061446E+02 -0.12681457418E+02  0.37003051255E+02  0.41800000000E+01 0. -1.
         -5    1    3    3    0  502 -0.13594145900E+03 -0.15649414187E+03 -0.70072262784E+02  0.21885632530E+03  0.41800000000E+01 0. -1.
        -11    1    1    2    0    0  0.74802002088E+02  0.49017141027E+02 -0.77198726600E+02  0.11814255380E+03  0.00000000000E+00 0.  1.
         11    1    1    2    0    0  0.33290823652E+02  0.12785806229E+03 -0.20639531194E+03  0.24506119199E+03  0.00000000000E+00 0. -1.
</event>
<event>
 7    1  0.1068210E-005  0.7133993E+02  0.7561462E-02  0.1355595E+00
         -2   -1    0    0    0  501 -0.00000000000E+00  0.00000000000E+00  0.12865064707E+02  0.12865064707E+02  0.00000000000E+00 0.  1.
          2   -1    0    0  501    0  0.00000000000E+00 -0.00000000000E+00 -0.10052858323E+04  0.10052858323E+04  0.00000000000E+00 0. -1.
         23    2    1    2    0    0 -0.30301853807E+02  0.15042872762E+02 -0.51952084320E+03  0.53543503652E+03  0.12507710200E+03 0.  0.
          5    1    3    3  502    0 -0.30798358409E+01 -0.10281247193E+02  0.27370990468E+01  0.11838646199E+02  0.41800000000E+01 0.  1.
         -5    1    3    3    0  502 -0.27222017966E+02  0.25324119955E+02 -0.52225794225E+03  0.52359639032E+03  0.41800000000E+01 0.  1.
        -11    1    1    2    0    0 -0.31115095764E+02 -0.52597642152E+01 -0.10655433370E+03  0.11112893563E+03  0.00000000000E+00 0.  1.
         11    1    1    2    0    0  0.61416949571E+02 -0.97831085471E+01 -0.36634559073E+03  0.37158692489E+03  0.00000000000E+00 0. -1.
</event>
<event>
 7    1  0.1068210E-005  0.7193575E+02  0.7561462E-02  0.1353631E+00
          3   -1    0    0  501    0  0.00000000000E+00  0.00000000000E+00  0.24220058538E+02  0.24220058538E+02  0.00000000000E+00 0. -1.
         -3   -1    0    0    0  501 -0.00000000000E+00 -0.00000000000E+00 -0.63868108035E+03  0.63868108035E+03  0.00000000000E+00 0.  1.
         23    2    1    2    0    0  0.55497386151E+02 -0.13076839286E+01 -0.42475147630E+03  0.44625372627E+03  0.12508757605E+03 0.  0.
          5    1    3    3  502    0  0.55120223152E+02  0.26326289009E+00 -0.43318800473E+03  0.43670084514E+03  0.41800000000E+01 0.  1.
         -5    1    3    3    0  502  0.37716299845E+00 -0.15709468187E+01  0.84365284296E+01  0.95528811244E+01  0.41800000000E+01 0.  1.
        -11    1    1    2    0    0 -0.56385557853E+02 -0.22191307078E+02 -0.18212172305E+03  0.19193776922E+03  0.00000000000E+00 0.  1.
         11    1    1    2    0    0  0.88817170241E+00  0.23498991006E+02 -0.75878224563E+01  0.24709643399E+02  0.00000000000E+00 0. -1.
</event>
<event>
 7    1  0.1068210E-005  0.2781989E+03  0.7561462E-02  0.1096677E+00
         -1   -1    0    0    0  501 -0.00000000000E+00  0.00000000000E+00  0.36342474298E+03  0.36342474298E+03  0.00000000000E+00 0.  1.
          1   -1    0    0  501    0  0.00000000000E+00 -0.00000000000E+00 -0.27786057573E+03  0.27786057573E+03  0.00000000000E+00 0. -1.
         23    2    1    2    0    0  0.24157004238E+03 -0.10949871922E+03  0.18206925282E+03  0.34516955611E+03  0.12508698875E+03 0.  0.
          5    1    3    3  502    0  0.14443197177E+03 -0.10831057500E+03  0.16851338858E+03  0.24699394660E+03  0.41800000000E+01 0. -1.
         -5    1    3    3    0  502  0.97138070601E+02 -0.11881442268E+01  0.13555864247E+02  0.98175609508E+02  0.41800000000E+01 0. -1.
        -11    1    1    2    0    0 -0.19112455201E+03  0.12182917910E+03 -0.66804435825E+02  0.23629171781E+03  0.00000000000E+00 0.  1.
         11    1    1    2    0    0 -0.50445490366E+02 -0.12330459875E+02 -0.29700649748E+02  0.59824044785E+02  0.00000000000E+00 0. -1.
</event>
<event>
 7    1  0.1068210E-005  0.2534477E+03  0.7561462E-02  0.1111145E+00
          2   -1    0    0  501    0  0.00000000000E+00  0.00000000000E+00  0.14347002231E+03  0.14347002231E+03  0.00000000000E+00 0. -1.
         -2   -1    0    0    0  501 -0.00000000000E+00 -0.00000000000E+00 -0.46166409052E+03  0.46166409052E+03  0.00000000000E+00 0.  1.
         23    2    1    2    0    0  0.11048520007E+03  0.20281436831E+03 -0.12320940218E+03  0.29011576900E+03  0.12508379275E+03 0.  0.
          5    1    3    3  502    0 -0.11339867290E+02 -0.92119632854E+01 -0.18848296818E+02  0.24211227781E+02  0.41800000000E+01 0.  1.
         -5    1    3    3    0  502  0.12182506736E+03  0.21202633160E+03 -0.10436110536E+03  0.26590454122E+03  0.41800000000E+01 0.  1.
        -11    1    1    2    0    0 -0.67000051679E+02 -0.38745895599E+02 -0.68245024921E+02  0.10318737702E+03  0.00000000000E+00 0.  1.
         11    1    1    2    0    0 -0.43485148392E+02 -0.16406847271E+03 -0.12673964112E+03  0.21183096681E+03  0.00000000000E+00 0. -1.
</event>
<event>
 7    1  0.1549924E-005  0.3420993E+03  0.7561462E-02  0.1065905E+00
          1   -1    0    0  501    0  0.00000000000E+00  0.00000000000E+00  0.32959097701E+03  0.32959097701E+03  0.00000000000E+00 0. -1.
         -1   -1    0    0    0  501 -0.00000000000E+00 -0.00000000000E+00 -0.40739638359E+03  0.40739638359E+03  0.00000000000E+00 0.  1.
         23    2    1    2    0    0 -0.27608394267E+03  0.18037539600E+03 -0.15665385076E+03  0.38593357327E+03  0.12508663852E+03 0.  0.
          5    1    3    3  502    0 -0.84124644804E+01  0.56970653899E+02 -0.30427241621E+02  0.65266487548E+02  0.41800000000E+01 0. -1.
         -5    1    3    3    0  502 -0.26767147819E+03  0.12340474210E+03 -0.12622660914E+03  0.32066708572E+03  0.41800000000E+01 0. -1.
        -11    1    1    2    0    0  0.99455838427E+02 -0.45112221057E+02 -0.13768691769E+02  0.11007339896E+03  0.00000000000E+00 0.  1.
         11    1    1    2    0    0  0.17662810425E+03 -0.13526317495E+03  0.92617135950E+02  0.24098038837E+03  0.00000000000E+00 0. -1.
</event>
<event>
 7    1  0.1068210E-005  0.1391342E+03  0.7561462E-02  0.1214499E+00
         -2   -1    0    0    0  501 -0.00000000000E+00  0.00000000000E+00  0.10017916671E+03  0.10017916671E+03  0.00000000000E+00 0.  1.
          2   -1    0    0  501    0  0.00000000000E+00 -0.00000000000E+00 -0.23992929234E+03  0.23992929234E+03  0.00000000000E+00 0. -1.
         23    2    1    2    0    0 -0.87972336771E+02 -0.53630936221E+02 -0.11992734095E+03  0.20160289649E+03  0.12508297809E+03 0.  0.
          5    1    3    3  502    0  0.10487769893E+02 -0.42531118719E+02  0.24675959107E+01  0.44073243657E+02  0.41800000000E+01 0. -1.
         -5    1    3    3    0  502 -0.98460106664E+02 -0.11099817502E+02 -0.12239493686E+03  0.15752965283E+03  0.41800000000E+01 0. -1.
        -11    1    1    2    0    0  0.10018697325E+03  0.23969430411E+02 -0.49121590016E+01  0.10313143318E+03  0.00000000000E+00 0.  1.
         11    1    1    2    0    0 -0.12214636477E+02  0.29661505810E+02 -0.14910625690E+02  0.35374129384E+02  0.00000000000E+00 0. -1.
</event>
<event>
 7    1  0.1068210E-005  0.1434639E+03  0.7561462E-02  0.1208743E+00
         -2   -1    0    0    0  501 -0.00000000000E+00  0.00000000000E+00  0.86179371587E+02  0.86179371587E+02  0.00000000000E+00 0. -1.
          2   -1    0    0  501    0  0.00000000000E+00 -0.00000000000E+00 -0.34922926542E+03  0.34922926542E+03  0.00000000000E+00 0.  1.
         23    2    1    2    0    0 -0.77889592274E+02 -0.98000612883E+02 -0.85864080967E+02  0.19669979523E+03  0.12508900964E+03 0.  0.
          5    1    3    3  502    0 -0.37228412491E+02 -0.87701136309E+02 -0.11199999621E+03  0.14710171840E+03  0.41800000000E+01 0.  1.
         -5    1    3    3    0  502 -0.40661179783E+02 -0.10299476574E+02  0.26135915243E+02  0.49598076824E+02  0.41800000000E+01 0.  1.
        -11    1    1    2    0    0  0.76478089996E+02  0.31208979765E+02 -0.13918737571E+03  0.16185185888E+03  0.00000000000E+00 0.  1.
         11    1    1    2    0    0  0.14115022782E+01  0.66791633118E+02 -0.37998437157E+02  0.76856982894E+02  0.00000000000E+00 0. -1.
</event>
<event>
 7    1  0.1068210E-005  0.2180870E+03  0.7561462E-02  0.1135317E+00
          1   -1    0    0  501    0  0.00000000000E+00  0.00000000000E+00  0.22190117908E+03  0.22190117908E+03  0.00000000000E+00 0. -1.
         -1   -1    0    0    0  501 -0.00000000000E+00 -0.00000000000E+00 -0.26170580785E+03  0.26170580785E+03  0.00000000000E+00 0.  1.
         23    2    1    2    0    0 -0.20321324027E+03  0.31066998209E+02 -0.80607489703E+02  0.25378444344E+03  0.12509275333E+03 0.  0.
          5    1    3    3  502    0 -0.20208513429E+03  0.49441366281E+02 -0.96248931358E+02  0.22926879288E+03  0.41800000000E+01 0.  1.
         -5    1    3    3    0  502 -0.11281059806E+01 -0.18374368072E+02  0.15641441656E+02  0.24515650557E+02  0.41800000000E+01 0.  1.
        -11    1    1    2    0    0  0.23406454008E+02 -0.16850860992E+02 -0.24656028584E+02  0.37943818350E+02  0.00000000000E+00 0.  1.
         11    1    1    2    0    0  0.17980678626E+03 -0.14216137217E+02  0.65458889518E+02  0.19187872514E+03  0.00000000000E+00 0. -1.
</event>
<event>
 7    1  0.2193648E-005  0.1218348E+03  0.7561462E-02  0.1240100E+00
         -1   -1    0    0    0  501 -0.00000000000E+00  0.00000000000E+00  0.46464758198E+02  0.46464758198E+02  0.00000000000E+00 0.  1.
          1   -1    0    0  501    0  0.00000000000E+00 -0.00000000000E+00 -0.42230965968E+03  0.42230965968E+03  0.00000000000E+00 0. -1.
         23    2    1    2    0    0  0.81415383310E+02 -0.33629073633E+01 -0.14432182931E+03  0.20764430849E+03  0.12509034594E+03 0.  0.
          5    1    3    3  502    0  0.23438162990E+02 -0.59590742196E+02 -0.88748399576E+02  0.10951782899E+03  0.41800000000E+01 0.  1.
         -5    1    3    3    0  502  0.57977220320E+02  0.56227834833E+02 -0.55573429733E+02  0.98126479496E+02  0.41800000000E+01 0.  1.
        -11    1    1    2    0    0 -0.29649227100E+02 -0.25719570033E+02 -0.25704284816E+02  0.46917834649E+02  0.00000000000E+00 0.  1.
         11    1    1    2    0    0 -0.51766156210E+02  0.29082477396E+02 -0.20581878736E+03  0.21421227474E+03  0.00000000000E+00 0. -1.
</event>
<event>
 7    1  0.1068210E-005  0.1135124E+03  0.7561462E-02  0.1254200E+00
         -3   -1    0    0    0  501 -0.00000000000E+00  0.00000000000E+00  0.43939626250E+02  0.43939626250E+02  0.00000000000E+00 0.  1.
          3   -1    0    0  501    0  0.00000000000E+00 -0.00000000000E+00 -0.35173209195E+03  0.35173209195E+03  0.00000000000E+00 0. -1.
         23    2    1    2    0    0  0.44346270607E+01  0.39447217365E+02 -0.94908943442E+02  0.16195538335E+03  0.12508433066E+03 0.  0.
          5    1    3    3  502    0  0.51315547839E+02 -0.19582452038E+02 -0.48068385001E+02  0.73108138496E+02  0.41800000000E+01 0.  1.
         -5    1    3    3    0  502 -0.46880920778E+02  0.59029669403E+02 -0.46840558442E+02  0.88847244853E+02  0.41800000000E+01 0.  1.
        -11    1    1    2    0    0 -0.15813290376E+02 -0.65834917084E+02 -0.14768711859E+03  0.16246778591E+03  0.00000000000E+00 0.  1.
         11    1    1    2    0    0  0.11378663315E+02  0.26387699719E+02 -0.65196403668E+02  0.71248548943E+02  0.00000000000E+00 0. -1.
</event>
<event>
 7    1  0.1068210E-005  0.1115666E+03  0.7561462E-02  0.1257696E+00
         -2   -1    0    0    0  501 -0.00000000000E+00  0.00000000000E+00  0.22056268781E+02  0.22056268781E+02  0.00000000000E+00 0.  1.
          2   -1    0    0  501    0  0.00000000000E+00 -0.00000000000E+00 -0.58656540228E+03  0.58656540228E+03  0.00000000000E+00 0. -1.
         23    2    1    2    0    0  0.12046645957E+02 -0.36264441137E+02 -0.32089210535E+03  0.34652247080E+03  0.12508336470E+03 0.  0.
          5    1    3    3  502    0  0.82095981964E+01 -0.80920774281E+02 -0.24612391576E+03  0.25924896050E+03  0.41800000000E+01 0.  1.
         -5    1    3    3    0  502  0.38370477606E+01  0.44656333144E+02 -0.74768189593E+02  0.87273510302E+02  0.41800000000E+01 0.  1.
        -11    1    1    2    0    0 -0.41885389833E+02  0.48799163181E+02 -0.16319724792E+03  0.17541119102E+03  0.00000000000E+00 0.  1.
         11    1    1    2    0    0  0.29838743876E+02 -0.12534722044E+02 -0.80419780230E+02  0.86688009235E+02  0.00000000000E+00 0. -1.
</event>
<event>
 7    1  0.1068210E-005  0.2385442E+03  0.7561462E-02  0.1120766E+00
         -4   -1    0    0    0  501 -0.00000000000E+00  0.00000000000E+00  0.13363852916E+03  0.13363852916E+03  0.00000000000E+00 0.  1.
          4   -1    0    0  501    0  0.00000000000E+00 -0.00000000000E+00 -0.51169402138E+03  0.51169402138E+03  0.00000000000E+00 0. -1.
         23    2    1    2    0    0  0.53596467887E+02  0.22645717365E+03 -0.22215626491E+03  0.34519017793E+03  0.12508964797E+03 0.  0.
          5    1    3    3  502    0  0.60408501272E+02  0.20762863876E+03 -0.13340559529E+03  0.25411289600E+03  0.41800000000E+01 0.  1.
         -5    1    3    3    0  502 -0.68120333853E+01  0.18828534895E+02 -0.88750669620E+02  0.91077281926E+02  0.41800000000E+01 0.  1.
        -11    1    1    2    0    0 -0.50081153561E+02 -0.83585026668E+02 -0.11653573378E+03  0.15190508837E+03  0.00000000000E+00 0.  1.
         11    1    1    2    0    0 -0.35153143252E+01 -0.14287214698E+03 -0.39363493527E+02  0.14823728425E+03  0.00000000000E+00 0. -1.
</event>
<event>
 7    1  0.1068210E-005  0.1212568E+03  0.7561462E-02  0.1241038E+00
         -2   -1    0    0    0  501 -0.00000000000E+00  0.00000000000E+00  0.13466157652E+02  0.13466157652E+02  0.00000000000E+00 0. -1.
          2   -1    0    0  501    0  0.00000000000E+00 -0.00000000000E+00 -0.11639124747E+04  0.11639124747E+04  0.00000000000E+00 0.  1.
         23    2    1    2    0    0 -0.49990820803E+02  0.35860707726E+02 -0.63768025759E+03  0.65273849839E+03  0.12508542616E+03 0.  0.
          5    1    3    3  502    0 -0.65200151586E+02  0.69304432615E+02 -0.35136227333E+03  0.36404269484E+03  0.41800000000E+01 0. -1.
         -5    1    3    3    0  502  0.15209330782E+02 -0.33443724889E+02 -0.28631798426E+03  0.28869580355E+03  0.41800000000E+01 0. -1.
        -11    1    1    2    0    0 -0.15064318952E+02  0.19658356024E+02 -0.92366131988E+02  0.95628902564E+02  0.00000000000E+00 0.  1.
         11    1    1    2    0    0  0.65055139755E+02 -0.55519063750E+02 -0.42039992742E+03  0.42901123135E+03  0.00000000000E+00 0. -1.
</event>
<event>
 7    1  0.1068210E-005  0.1282358E+03  0.7561462E-02  0.1230097E+00
          3   -1    0    0  501    0  0.00000000000E+00  0.00000000000E+00  0.29626424528E+03  0.29626424528E+03  0.00000000000E+00 0. -1.
         -3   -1    0    0    0  501 -0.00000000000E+00 -0.00000000000E+00 -0.84349369117E+02  0.84349369117E+02  0.00000000000E+00 0.  1.
         23    2    1    2    0    0  0.57705358548E+02 -0.42713352518E+02  0.56477777166E+01  0.14434234476E+03  0.12509386959E+03 0.  0.
          5    1    3    3  502    0 -0.31218928770E+02  0.15295237567E+02  0.14111340462E+02  0.37751399119E+02  0.41800000000E+01 0.  1.
         -5    1    3    3    0  502  0.88924287318E+02 -0.58008590085E+02 -0.84635627459E+01  0.10659094564E+03  0.41800000000E+01 0.  1.
        -11    1    1    2    0    0 -0.77416887854E+02  0.11471957927E+02  0.13768388459E+03  0.15837244842E+03  0.00000000000E+00 0.  1.
         11    1    1    2    0    0  0.19711529306E+02  0.31241394591E+02  0.68583213859E+02  0.77898821215E+02  0.00000000000E+00 0. -1.
</event>
<event>
 7    1  0.1068210E-005  0.1783050E+03  0.7561462E-02  0.1169454E+00
         -1   -1    0    0    0  501 -0.00000000000E+00  0.00000000000E+00  0.60872756916E+03  0.60872756916E+03  0.00000000000E+00 0.  1.
          1   -1    0    0  501    0  0.00000000000E+00 -0.00000000000E+00 -0.82030990366E+02  0.82030990366E+02  0.00000000000E+00 0. -1.
         23    2    1    2    0    0 -0.60282485425E+02  0.15192305506E+03  0.43805777253E+03  0.48400423840E+03  0.12510354915E+03 0.  0.
          5    1    3    3  502    0 -0.63265578481E+02  0.15317074993E+03  0.27669183661E+03  0.32255178949E+03  0.41800000000E+01 0.  1.
         -5    1    3    3    0  502  0.29830930557E+01 -0.12476948647E+01  0.16136593591E+03  0.16145244891E+03  0.41800000000E+01 0.  1.
        -11    1    1    2    0    0 -0.17267246952E+02 -0.72570270477E+02  0.24087476439E+02  0.78388828895E+02  0.00000000000E+00 0. -1.
         11    1    1    2    0    0  0.77549732377E+02 -0.79352784587E+02  0.64551329833E+02  0.12836549223E+03  0.00000000000E+00 0.  1.
</event>
<event>
 7    1  0.1068210E-005  0.1126017E+03  0.7561462E-02  0.1255826E+00
          4   -1    0    0  501    0  0.00000000000E+00  0.00000000000E+00  0.61050864230E+02  0.61050864230E+02  0.00000000000E+00 0.  1.
         -4   -1    0    0    0  501 -0.00000000000E+00 -0.00000000000E+00 -0.29540607373E+03  0.29540607373E+03  0.00000000000E+00 0. -1.
         23    2    1    2    0    0 -0.12220814730E+02 -0.65864463627E+02 -0.19007159907E+03  0.23719574401E+03  0.12508849797E+03 0.  0.
          5    1    3    3  502    0  0.56365814199E+02 -0.24027107448E+02 -0.84800182120E+02  0.10470410780E+03  0.41800000000E+01 0. -1.
         -5    1    3    3    0  502 -0.68586628929E+02 -0.41837356179E+02 -0.10527141695E+03  0.13249163621E+03  0.41800000000E+01 0. -1.
        -11    1    1    2    0    0  0.31372823573E+02  0.46583038991E+02  0.11392465837E+02  0.57306385843E+02  0.00000000000E+00 0.  1.
         11    1    1    2    0    0 -0.19152008843E+02  0.19281424636E+02 -0.55676076271E+02  0.61954808107E+02  0.00000000000E+00 0. -1.
</event>
<event>
 7    1  0.1068210E-005  0.1072978E+03  0.7561462E-02  0.1265657E+00
          1   -1    0    0  501    0  0.00000000000E+00  0.00000000000E+00  0.75143430872E+03  0.75143430872E+03  0.00000000000E+00 0. -1.
         -1   -1    0    0    0  501 -0.00000000000E+00 -0.00000000000E+00 -0.20289902451E+02  0.20289902451E+02  0.00000000000E+00 0.  1.
         23    2    1    2    0    0  0.10305640235E+01  0.49973617963E+02  0.31922999050E+03  0.34648776049E+03  0.12509019456E+03 0.  0.
          5    1    3    3  502    0 -0.48531376687E+02  0.18087190147E+02  0.54720143787E+02  0.75459972877E+02  0.41800000000E+01 0.  1.
         -5    1    3    3    0  502  0.49561940711E+02  0.31886427816E+02  0.26450984672E+03  0.27102778761E+03  0.41800000000E+01 0.  1.
        -11    1    1    2    0    0  0.28739079548E+02 -0.64363649063E+02  0.23851938728E+03  0.24871693172E+03  0.00000000000E+00 0.  1.
         11    1    1    2    0    0 -0.29769643572E+02  0.14390031099E+02  0.17339502848E+03  0.17651951896E+03  0.00000000000E+00 0. -1.
</event>
<event>
 7    1  0.1068210E-005  0.1145115E+03  0.7561462E-02  0.1252436E+00
         -1   -1    0    0    0  501 -0.00000000000E+00  0.00000000000E+00  0.24989327695E+02  0.24989327695E+02  0.00000000000E+00 0.  1.
          1   -1    0    0  501    0  0.00000000000E+00 -0.00000000000E+00 -0.73296816884E+03  0.73296816884E+03  0.00000000000E+00 0. -1.
         23    2    1    2    0    0 -0.16531193689E+02 -0.75779669150E+02 -0.40439599856E+03  0.43034828191E+03  0.12509069296E+03 0.  0.
          5    1    3    3  502    0 -0.35596958575E+02 -0.10005488805E+03 -0.23232873263E+03  0.25548431750E+03  0.41800000000E+01 0.  1.
         -5    1    3    3    0  502  0.19065764886E+02  0.24275218899E+02 -0.17206726593E+03  0.17486396441E+03  0.41800000000E+01 0.  1.
        -11    1    1    2    0    0  0.11481124899E+01  0.76195817827E+02 -0.30275506872E+03  0.31219825825E+03  0.00000000000E+00 0. -1.
         11    1    1    2    0    0  0.15383081199E+02 -0.41614867659E+00 -0.82777385978E+00  0.15410956377E+02  0.00000000000E+00 0.  1.
</event>
<event>
 7    1  0.1068210E-005  0.8391083E+02  0.7561462E-02  0.1318306E+00
         -2   -1    0    0    0  501 -0.00000000000E+00  0.00000000000E+00  0.37699255355E+02  0.37699255355E+02  0.00000000000E+00 0.  1.
          2   -1    0    0  501    0  0.00000000000E+00 -0.00000000000E+00 -0.33020491979E+03  0.33020491979E+03  0.00000000000E+00 0. -1.
         23    2    1    2    0    0  0.20119311161E+02 -0.93496141232E+01 -0.15811494351E+03  0.20282919803E+03  0.12508855362E+03 0.  0.
          5    1    3    3  502    0  0.67523328780E+02 -0.24897306033E+02 -0.11967735409E+03  0.13971190808E+03  0.41800000000E+01 0. -1.
         -5    1    3    3    0  502 -0.47404017619E+02  0.15547691910E+02 -0.38437589421E+02  0.63117289950E+02  0.41800000000E+01 0. -1.
        -11    1    1    2    0    0  0.10032378036E+02  0.11717131270E+02  0.94494296562E+01  0.18089541041E+02  0.00000000000E+00 0.  1.
         11    1    1    2    0    0 -0.30151689198E+02 -0.23675171465E+01 -0.14384015059E+03  0.14698543608E+03  0.00000000000E+00 0. -1.
</event>
<event>
 7    1  0.1068210E-005  0.1286110E+03  0.7561462E-02  0.1229531E+00
         -1   -1    0    0    0  501 -0.00000000000E+00  0.00000000000E+00  0.26563176243E+03  0.26563176243E+03  0.00000000000E+00 0.  1.
          1   -1    0    0  501    0  0.00000000000E+00 -0.00000000000E+00 -0.79820559934E+02  0.79820559934E+02  0.00000000000E+00 0. -1.
         23    2    1    2    0    0 -0.43825275604E+02  0.82612140555E+02  0.69679400436E+02  0.17102118059E+03  0.12509038658E+03 0.  0.
          5    1    3    3  502    0 -0.11742087650E+02 -0.21008941159E+02  0.56643670479E+02  0.61686546640E+02  0.41800000000E+01 0.  1.
         -5    1    3    3    0  502 -0.32083187954E+02  0.10362108171E+03  0.13035729957E+02  0.10933463395E+03  0.41800000000E+01 0.  1.
        -11    1    1    2    0    0  0.11768091031E+00 -0.80479632608E+02  0.98637584355E+02  0.12730419538E+03  0.00000000000E+00 0.  1.
         11    1    1    2    0    0  0.43707594693E+02 -0.21325079464E+01  0.17494217710E+02  0.47126946404E+02  0.00000000000E+00 0. -1.
</event>
<event>
 7    1  0.1068210E-005  0.1615733E+03  0.7561462E-02  0.1186932E+00
          1   -1    0    0  501    0  0.00000000000E+00  0.00000000000E+00  0.95726881521E+03  0.95726881521E+03  0.00000000000E+00 0. -1.
         -1   -1    0    0    0  501 -0.00000000000E+00 -0.00000000000E+00 -0.35362007797E+02  0.35362007797E+02  0.00000000000E+00 0.  1.
         23    2    1    2    0    0  0.12325955984E+03  0.49802805374E+02  0.30859706251E+03  0.35855501690E+03  0.12512519587E+03 0.  0.
          5    1    3    3  502    0  0.34401406089E+02  0.66201438785E+02  0.66198480675E+02  0.99828845940E+02  0.41800000000E+01 0. -1.
         -5    1    3    3    0  502  0.88858153748E+02 -0.16398633411E+02  0.24239858183E+03  0.25872617096E+03  0.41800000000E+01 0. -1.
        -11    1    1    2    0    0 -0.40678786698E+02  0.23985668184E+02  0.13209722684E+03  0.14028454407E+03  0.00000000000E+00 0.  1.
         11    1    1    2    0    0 -0.82580773140E+02 -0.73788473559E+02  0.48121251807E+03  0.49379126204E+03  0.00000000000E+00 0. -1.
</event>
<event>
 6    1  0.1068210E-005  0.1481923E+03  0.7561462E-02  0.1202712E+00
          1   -1    0    0  501    0  0.00000000000E+00  0.00000000000E+00  0.28073048168E+03  0.28073048168E+03  0.00000000000E+00 0. -1.
         -1   -1    0    0    0  501 -0.00000000000E+00 -0.00000000000E+00 -0.32280162853E+03  0.32280162853E+03  0.00000000000E+00 0.  1.
          5    1    1    2  502    0  0.46660746531E+02 -0.68697799755E+02 -0.22213937681E+03  0.23719188032E+03  0.41800000000E+01 0. -1.
         -5    1    1    2    0  502 -0.57294774537E+02 -0.60128885953E+02 -0.51732688225E+02  0.97938335427E+02  0.41800000000E+01 0.  1.
        -11    1    1    2    0    0  0.14223450155E+02  0.10901991793E+03  0.21750315193E+03  0.24371144852E+03  0.00000000000E+00 0. -1.
         11    1    1    2    0    0 -0.35894221489E+01  0.19806767779E+02  0.14297766252E+02  0.24690445945E+02  0.00000000000E+00 0.  1.
</event>
<event>
 6    1  0.1068210E-005  0.1315531E+03  0.7561462E-02  0.1225169E+00
         -1   -1    0    0    0  501 -0.00000000000E+00  0.00000000000E+00  0.75246318067E+03  0.75246318067E+03  0.00000000000E+00 0.  1.
          1   -1    0    0  501    0  0.00000000000E+00 -0.00000000000E+00 -0.28213686485E+02  0.28213686485E+02  0.00000000000E+00 0. -1.
          5    1    1    2  502    0 -0.10179360654E+03  0.53473809533E+01  0.27536659955E+03  0.29365757161E+03  0.41800000000E+01 0. -1.
         -5    1    1    2    0  502  0.75310339531E+02  0.10911911657E+02  0.31017470508E+03  0.31940027728E+03  0.41800000000E+01 0.  1.
        -11    1    1    2    0    0  0.54001033338E+02 -0.23755739715E+01  0.11987645552E+03  0.13149950396E+03  0.00000000000E+00 0.  1.
         11    1    1    2    0    0 -0.27517766330E+02 -0.13883718639E+02  0.18831734039E+02  0.36119514309E+02  0.00000000000E+00 0. -1.
</event>
<event>
 7    1  0.1068210E-005  0.1173594E+03  0.7561462E-02  0.1247518E+00
         -1   -1    0    0    0  501 -0.00000000000E+00  0.00000000000E+00  0.41291981351E+03  0.41291981351E+03  0.00000000000E+00 0.  1.
          1   -1    0    0  501    0  0.00000000000E+00 -0.00000000000E+00 -0.46274502294E+02  0.46274502294E+02  0.00000000000E+00 0. -1.
         23    2    1    2    0    0  0.49703969582E+02 -0.66684789328E+02  0.18697044478E+03  0.23987988688E+03  0.12516815565E+03 0.  0.
          5    1    3    3  502    0  0.67906121026E+02 -0.46224270935E+02  0.42129796938E+02  0.92413833847E+02  0.41800000000E+01 0. -1.
         -5    1    3    3    0  502 -0.18202151445E+02 -0.20460518393E+02  0.14484064784E+03  0.14746605303E+03  0.41800000000E+01 0. -1.
        -11    1    1    2    0    0 -0.63551429320E+02  0.75132155290E+01  0.78349929557E+02  0.10116295783E+03  0.00000000000E+00 0.  1.
         11    1    1    2    0    0  0.13847459738E+02  0.59171573799E+02  0.10132493688E+03  0.11815147109E+03  0.00000000000E+00 0. -1.
</event>
<event>
 7    1  0.1068210E-005  0.1192032E+03  0.7561462E-02  0.1244417E+00
          1   -1    0    0  501    0  0.00000000000E+00  0.00000000000E+00  0.10893718945E+03  0.10893718945E+03  0.00000000000E+00 0. -1.
         -1   -1    0    0    0  501 -0.00000000000E+00 -0.00000000000E+00 -0.16292034923E+03  0.16292034923E+03  0.00000000000E+00 0.  1.
         23    2    1    2    0    0  0.23909981098E+02  0.69194777122E+02 -0.54059705786E+02  0.15446385419E+03  0.12480795682E+03 0.  0.
          5    1    3    3  502    0  0.39769270963E+02 -0.92201242612E+01 -0.61578664935E+02  0.74000067428E+02  0.41800000000E+01 0.  1.
         -5    1    3    3    0  502 -0.15859289864E+02  0.78414901383E+02  0.75189591484E+01  0.80463786765E+02  0.41800000000E+01 0.  1.
        -11    1    1    2    0    0 -0.58998965031E+02 -0.49532283927E+02 -0.26375241737E+01  0.77079709129E+02  0.00000000000E+00 0. -1.
         11    1    1    2    0    0  0.35088983932E+02 -0.19662493195E+02  0.27140701718E+01  0.40313975355E+02  0.00000000000E+00 0.  1.
</event>
<event>
 7    1  0.1068210E-005  0.1065303E+03  0.7561462E-02  0.1267133E+00
         -1   -1    0    0    0  501 -0.00000000000E+00  0.00000000000E+00  0.18194542512E+02  0.18194542512E+02  0.00000000000E+00 0.  1.
          1   -1    0    0  501    0  0.00000000000E+00 -0.00000000000E+00 -0.69044350764E+03  0.69044350764E+03  0.00000000000E+00 0. -1.
         23    2    1    2    0    0 -0.35781228609E+02 -0.87900559018E+00 -0.32582237745E+03  0.35083976637E+03  0.12508897254E+03 0.  0.
          5    1    3    3  502    0 -0.19835221609E+02  0.58992189101E+02 -0.21429737390E+03  0.22319128848E+03  0.41800000000E+01 0.  1.
         -5    1    3    3    0  502 -0.15946006999E+02 -0.59871194691E+02 -0.11152500354E+03  0.12764847789E+03  0.41800000000E+01 0.  1.
        -11    1    1    2    0    0  0.38094073710E+02 -0.35535745386E+02 -0.22810713536E+03  0.23398036852E+03  0.00000000000E+00 0.  1.
         11    1    1    2    0    0 -0.23128451018E+01  0.36414750976E+02 -0.11831945232E+03  0.12381791526E+03  0.00000000000E+00 0. -1.
</event>
<event>
 7    1  0.1068210E-005  0.1429775E+03  0.7561462E-02  0.1209378E+00
          2   -1    0    0  501    0  0.00000000000E+00  0.00000000000E+00  0.99526955972E+03  0.99526955972E+03  0.00000000000E+00 0.  1.
         -2   -1    0    0    0  501 -0.00000000000E+00 -0.00000000000E+00 -0.29948472308E+02  0.29948472308E+02  0.00000000000E+00 0. -1.
         23    2    1    2    0    0 -0.41214414130E+01 -0.12411600594E+03  0.37055615262E+03  0.41034244320E+03  0.12508912517E+03 0.  0.
          5    1    3    3  502    0 -0.21717395581E+02 -0.12427658058E+03  0.37137132135E+03  0.39223773974E+03  0.41800000000E+01 0. -1.
         -5    1    3    3    0  502  0.17595954168E+02  0.16057464777E+00 -0.81516873201E+00  0.18104703460E+02  0.41800000000E+01 0. -1.
        -11    1    1    2    0    0 -0.16447534289E+02  0.11941224229E+03  0.56873210563E+03  0.58136564481E+03  0.00000000000E+00 0.  1.
         11    1    1    2    0    0  0.20568975702E+02  0.47037636502E+01  0.26032829161E+02  0.33509944017E+02  0.00000000000E+00 0. -1.
</event>
<event>
 7    1  0.1068210E-005  0.1208189E+03  0.7561462E-02  0.1241752E+00
         -1   -1    0    0    0  501 -0.00000000000E+00  0.00000000000E+00  0.24612539975E+03  0.24612539975E+03  0.00000000000E+00 0.  1.
          1   -1    0    0  501    0  0.00000000000E+00 -0.00000000000E+00 -0.61992522065E+02  0.61992522065E+02  0.00000000000E+00 0. -1.
         23    2    1    2    0    0 -0.47986225493E+02 -0.31470573995E+02  0.11667631352E+03  0.18042666082E+03  0.12508933981E+03 0.  0.
          5    1    3    3  502    0 -0.66006982121E+02 -0.67144200621E+02  0.98485179444E+02  0.13631606045E+03  0.41800000000E+01 0. -1.
         -5    1    3    3    0  502  0.18020756628E+02  0.35673626627E+02  0.18191134075E+02  0.44110600371E+02  0.41800000000E+01 0. -1.
        -11    1    1    2    0    0  0.42350239263E+02  0.62594096007E+02  0.38534979482E+02  0.84832235996E+02  0.00000000000E+00 0. -1.
         11    1    1    2    0    0  0.56359862305E+01 -0.31123522012E+02  0.28921584680E+02  0.42859024996E+02  0.00000000000E+00 0.  1.
</event>
<event>
 7    1  0.1068210E-005  0.1772557E+03  0.7561462E-02  0.1170486E+00
          2   -1    0    0  501    0  0.00000000000E+00  0.00000000000E+00  0.58174506642E+02  0.58174506642E+02  0.00000000000E+00 0.  1.
         -2   -1    0    0    0  501 -0.00000000000E+00 -0.00000000000E+00 -0.92556298517E+03  0.92556298517E+03  0.00000000000E+00 0. -1.
         23    2    1    2    0    0 -0.10178019510E+03 -0.11794862926E+03 -0.60179124614E+03  0.63409010666E+03  0.12508585924E+03 0.  0.
          5    1    3    3  502    0  0.22668539877E+02 -0.52308172802E+02 -0.13685582032E+03  0.14831384156E+03  0.41800000000E+01 0.  1.
         -5    1    3    3    0  502 -0.12444873497E+03 -0.65640456461E+02 -0.46493542581E+03  0.48577626510E+03  0.41800000000E+01 0.  1.
        -11    1    1    2    0    0  0.32635019062E+02  0.49530216104E+02 -0.24252765356E+03  0.24967568868E+03  0.00000000000E+00 0. -1.
         11    1    1    2    0    0  0.69145176034E+02  0.68418413158E+02 -0.23069578834E+02  0.99971696471E+02  0.00000000000E+00 0.  1.
</event>
<event>
 7    1  0.1068210E-005  0.1416510E+03  0.7561462E-02  0.1211125E+00
          1   -1    0    0  501    0  0.00000000000E+00  0.00000000000E+00  0.21549865292E+03  0.21549865292E+03  0.00000000000E+00 0. -1.
         -1   -1    0    0    0  501 -0.00000000000E+00 -0.00000000000E+00 -0.11010234367E+03  0.11010234367E+03  0.00000000000E+00 0.  1.
         23    2    1    2    0    0 -0.56858753624E+02  0.92902909242E+02  0.44723698853E+02  0.17178871938E+03  0.12508911407E+03 0.  0.
          5    1    3    3  502    0 -0.78751805329E+02  0.10319856442E+03  0.59790068345E+02  0.14298291931E+03  0.41800000000E+01 0.  1.
         -5    1    3    3    0  502  0.21893051704E+02 -0.10295655177E+02 -0.15066369492E+02  0.28805800078E+02  0.41800000000E+01 0.  1.
        -11    1    1    2    0    0  0.72124996900E+02 -0.85632765100E+02  0.72314548778E+02  0.13328308070E+03  0.00000000000E+00 0. -1.
         11    1    1    2    0    0 -0.15266243275E+02 -0.72701441424E+01 -0.11641938386E+02  0.20529196501E+02  0.00000000000E+00 0.  1.
</event>
<event>
 7    1  0.1068210E-005  0.8571687E+02  0.7561462E-02  0.1313568E+00
         -2   -1    0    0    0  501 -0.00000000000E+00  0.00000000000E+00  0.64503969699E+02  0.64503969699E+02  0.00000000000E+00 0.  1.
          2   -1    0    0  501    0  0.00000000000E+00 -0.00000000000E+00 -0.25786482433E+03  0.25786482433E+03  0.00000000000E+00 0. -1.
         23    2    1    2    0    0  0.28439519588E+02  0.29431908219E+02 -0.36906306361E+02  0.13669028259E+03  0.12508842637E+03 0.  0.
          5    1    3    3  502    0  0.16062858171E+02  0.53079395038E+02  0.30955475248E+02  0.63648656216E+02  0.41800000000E+01 0.  1.
         -5    1    3    3    0  502  0.12376661417E+02 -0.23647486819E+02 -0.67861781610E+02  0.73041626378E+02  0.41800000000E+01 0.  1.
        -11    1    1    2    0    0  0.98612249335E+01  0.22331223995E+02 -0.89561866337E+02  0.92829172269E+02  0.00000000000E+00 0.  1.
         11    1    1    2    0    0 -0.38300744522E+02 -0.51763132215E+02 -0.66892681934E+02  0.92849339168E+02  0.00000000000E+00 0. -1.
</event>
<event>
 7    1  0.1068210E-005  0.1693462E+03  0.7561462E-02  0.1178531E+00
         -2   -1    0    0    0  501 -0.00000000000E+00  0.00000000000E+00  0.58281400684E+02  0.58281400684E+02  0.00000000000E+00 0.  1.
          2   -1    0    0  501    0  0.00000000000E+00 -0.00000000000E+00 -0.63478882586E+03  0.63478882586E+03  0.00000000000E+00 0. -1.
         23    2    1    2    0    0  0.14939748295E+03  0.51322971087E+02 -0.33841888612E+03  0.39386425311E+03  0.12509217451E+03 0.  0.
          5    1    3    3  502    0  0.91748060363E+02  0.17129289817E+02 -0.68849527163E+02  0.11605537015E+03  0.41800000000E+01 0. -1.
         -5    1    3    3    0  502  0.57649422584E+02  0.34193681271E+02 -0.26956935896E+03  0.27780888296E+03  0.41800000000E+01 0. -1.
        -11    1    1    2    0    0 -0.59201238995E+02  0.20666690614E+02 -0.58635411344E+02  0.85848763899E+02  0.00000000000E+00 0.  1.
         11    1    1    2    0    0 -0.90196243952E+02 -0.71989661701E+02 -0.17945312772E+03  0.21335720954E+03  0.00000000000E+00 0. -1.
</event>
<event>
 7    1  0.1068210E-005  0.5985011E+02  0.7561462E-02  0.1398462E+00
          2   -1    0    0  501    0  0.00000000000E+00  0.00000000000E+00  0.56069000853E+02  0.56069000853E+02  0.00000000000E+00 0. -1.
         -2   -1    0    0    0  501 -0.00000000000E+00 -0.00000000000E+00 -0.27124637883E+03  0.27124637883E+03  0.00000000000E+00 0.  1.
         23    2    1    2    0    0  0.33465902579E+02 -0.11226525251E+02 -0.18195639308E+03  0.22361057633E+03  0.12509020489E+03 0.  0.
          5    1    3    3  502    0  0.72345906883E+01 -0.15180174595E+02 -0.19357577181E+03  0.19434975903E+03  0.41800000000E+01 0. -1.
         -5    1    3    3    0  502  0.26231311891E+02  0.39536493436E+01  0.11619378736E+02  0.29260817297E+02  0.41800000000E+01 0. -1.
        -11    1    1    2    0    0  0.20494388499E+02  0.49397291272E+00  0.18926147620E+02  0.27900950395E+02  0.00000000000E+00 0. -1.
         11    1    1    2    0    0 -0.53960291079E+02  0.10732552339E+02 -0.52147132518E+02  0.75803852956E+02  0.00000000000E+00 0.  1.
</event>
<event>
 7    1  0.1068210E-005  0.9552486E+02  0.7561462E-02  0.1289998E+00
          1   -1    0    0  501    0  0.00000000000E+00  0.00000000000E+00  0.23797429914E+03  0.23797429914E+03  0.00000000000E+00 0. -1.
         -1   -1    0    0    0  501 -0.00000000000E+00 -0.00000000000E+00 -0.54008076170E+02  0.54008076170E+02  0.00000000000E+00 0.  1.
         23    2    1    2    0    0 -0.15662101480E+02  0.26151593617E+02  0.12585534527E+03  0.18004864715E+03  0.12509492450E+03 0.  0.
          5    1    3    3  502    0  0.54885815816E+02  0.94848313085E+01  0.60735491366E+02  0.82514769067E+02  0.41800000000E+01 0. -1.
         -5    1    3    3    0  502 -0.70547917297E+02  0.16666762309E+02  0.65119853905E+02  0.97533878080E+02  0.41800000000E+01 0. -1.
        -11    1    1    2    0    0  0.22774765374E+02 -0.40559074816E+02 -0.50239538148E+01  0.46786414691E+02  0.00000000000E+00 0.  1.
         11    1    1    2    0    0 -0.71126638937E+01  0.14407481198E+02  0.63134831519E+02  0.65147313476E+02  0.00000000000E+00 0. -1.
</event>
<event>
 7    1  0.1068210E-005  0.1375899E+03  0.7561462E-02  0.1216609E+00
         -2   -1    0    0    0  501 -0.00000000000E+00  0.00000000000E+00  0.30713695615E+02  0.30713695615E+02  0.00000000000E+00 0.  1.
          2   -1    0    0  501    0  0.00000000000E+00 -0.00000000000E+00 -0.86088013274E+03  0.86088013274E+03  0.00000000000E+00 0. -1.
         23    2    1    2    0    0  0.46370275129E+02 -0.10366652995E+03 -0.33639592210E+03  0.37644423620E+03  0.12510433530E+03 0.  0.
          5    1    3    3  502    0  0.59500891385E+02 -0.70036442570E+02 -0.32587097215E+03  0.33860717986E+03  0.41800000000E+01 0. -1.
         -5    1    3    3    0  502 -0.13130616256E+02 -0.33630087384E+02 -0.10524949950E+02  0.37837056336E+02  0.41800000000E+01 0. -1.
        -11    1    1    2    0    0 -0.72184878873E+02  0.51612446668E+02 -0.30298609491E+03  0.31571359663E+03  0.00000000000E+00 0. -1.
         11    1    1    2    0    0  0.25814603744E+02  0.52054083286E+02 -0.19078442012E+03  0.19943599553E+03  0.00000000000E+00 0.  1.
</event>
<event>
 7    1  0.1068210E-005  0.1025366E+03  0.7561462E-02  0.1275051E+00
         -1   -1    0    0    0  501 -0.00000000000E+00  0.00000000000E+00  0.13576974432E+03  0.13576974432E+03  0.00000000000E+00 0.  1.
          1   -1    0    0  501    0  0.00000000000E+00 -0.00000000000E+00 -0.23433273643E+03  0.23433273643E+03  0.00000000000E+00 0. -1.
         23    2    1    2    0    0  0.64003049192E+02  0.16837187902E+02  0.77021910611E+02  0.16111942402E+03  0.12508881997E+03 0.  0.
          5    1    3    3  502    0 -0.28017073822E+02  0.34948094316E+02  0.40022183243E+02  0.60212733482E+02  0.41800000000E+01 0. -1.
         -5    1    3    3    0  502  0.92020123014E+02 -0.18110906414E+02  0.36999727368E+02  0.10090669054E+03  0.41800000000E+01 0. -1.
        -11    1    1    2    0    0 -0.20394560832E+02 -0.62841569810E+01  0.58133625265E+01  0.22118406912E+02  0.00000000000E+00 0.  1.
         11    1    1    2    0    0 -0.43608488361E+02 -0.10553030921E+02 -0.18139826524E+03  0.18686464982E+03  0.00000000000E+00 0. -1.
</event>
<event>
 7    1  0.1068210E-005  0.2804635E+03  0.7561462E-02  0.1095436E+00
          1   -1    0    0  501    0  0.00000000000E+00  0.00000000000E+00  0.78781100281E+03  0.78781100281E+03  0.00000000000E+00 0. -1.
         -1   -1    0    0    0  501 -0.00000000000E+00 -0.00000000000E+00 -0.10666219653E+03  0.10666219653E+03  0.00000000000E+00 0.  1.
         23    2    1    2    0    0 -0.12943175894E+03  0.22928492354E+03  0.42994737082E+03  0.51944866650E+03  0.12509204240E+03 0.  0.
          5    1    3    3  502    0 -0.74696758635E+02  0.22031900672E+03  0.31360681081E+03  0.39049555011E+03  0.41800000000E+01 0.  1.
         -5    1    3    3    0  502 -0.54735000303E+02  0.89659168188E+01  0.11634056001E+03  0.12895311639E+03  0.41800000000E+01 0.  1.
        -11    1    1    2    0    0  0.76000203780E+02 -0.19463619542E+03  0.15718219278E+03  0.26146801194E+03  0.00000000000E+00 0.  1.
         11    1    1    2    0    0  0.53431555158E+02 -0.34648728119E+02  0.94019242673E+02  0.11355652090E+03  0.00000000000E+00 0. -1.
</event>
<event>
 6    1  0.1068210E-005  0.2391958E+03  0.7561462E-02  0.1120330E+00
          4   -1    0    0  501    0  0.00000000000E+00  0.00000000000E+00  0.21218505420E+03  0.21218505420E+03  0.00000000000E+00 0. -1.
         -4   -1    0    0    0  501 -0.00000000000E+00 -0.00000000000E+00 -0.49164039843E+03  0.49164039843E+03  0.00000000000E+00 0.  1.
          5    1    1    2  502    0 -0.13238008365E+03  0.15410307514E+03  0.63363898314E+02  0.21284900828E+03  0.41800000000E+01 0. -1.
         -5    1    1    2    0  502  0.11968751070E+03 -0.24775537986E+02 -0.30495158001E+03  0.32856029287E+03  0.41800000000E+01 0.  1.
        -11    1    1    2    0    0  0.13643714153E+02  0.78332424237E+01  0.81761822590E+01  0.17730216555E+02  0.00000000000E+00 0. -1.
         11    1    1    2    0    0 -0.95114120962E+00 -0.13716077958E+03 -0.46043844792E+02  0.14468593494E+03  0.00000000000E+00 0.  1.
</event>
<event>
 7    1  0.1068210E-005  0.7627756E+03  0.7561462E-02  0.9615518E-01
          2   -1    0    0  501    0  0.00000000000E+00  0.00000000000E+00  0.11762376338E+04  0.11762376338E+04  0.00000000000E+00 0. -1.
         -2   -1    0    0    0  501 -0.00000000000E+00 -0.00000000000E+00 -0.51672367802E+03  0.51672367802E+03  0.00000000000E+00 0.  1.
         23    2    1    2    0    0 -0.56400581879E+02 -0.16144812646E+02  0.12235137387E+02  0.13619643948E+03  0.12230327440E+03 0.  0.
          5    1    3    3  502    0 -0.82833254713E+02 -0.88671734191E+01 -0.27422804895E+02  0.87803516325E+02  0.41800000000E+01 0. -1.
         -5    1    3    3    0  502  0.26432672833E+02 -0.72776392273E+01  0.39657942282E+02  0.48392923159E+02  0.41800000000E+01 0.  1.
        -11    1    1    2    0    0  0.37953144265E+03 -0.60502780560E+03  0.29207180992E+03  0.77162730878E+03  0.00000000000E+00 0.  1.
         11    1    1    2    0    0 -0.32313086077E+03  0.62117261824E+03  0.35520700846E+03  0.78513756355E+03  0.00000000000E+00 0. -1.
</event>
<event>
 7    1  0.1068210E-005  0.1035320E+03  0.7561462E-02  0.1273039E+00
         -1   -1    0    0    0  501 -0.00000000000E+00  0.00000000000E+00  0.88546464701E+02  0.88546464701E+02  0.00000000000E+00 0.  1.
          1   -1    0    0  501    0  0.00000000000E+00 -0.00000000000E+00 -0.14318911303E+03  0.14318911303E+03  0.00000000000E+00 0. -1.
         23    2    1    2    0    0 -0.24133940053E+01  0.88808102499E+01 -0.42394806594E+02  0.13239881698E+03  0.12508970321E+03 0.  0.
          5    1    3    3  502    0 -0.54500547825E+02 -0.26004545464E+02 -0.32782779082E+02  0.68838427513E+02  0.41800000000E+01 0.  1.
         -5    1    3    3    0  502  0.52087153820E+02  0.34885355714E+02 -0.96120275120E+01  0.63560389468E+02  0.41800000000E+01 0.  1.
        -11    1    1    2    0    0 -0.33389111897E+02  0.18917846133E+02  0.20413667611E+02  0.43467637628E+02  0.00000000000E+00 0.  1.
         11    1    1    2    0    0  0.35802505903E+02 -0.27798656383E+02 -0.32661509341E+02  0.55869123119E+02  0.00000000000E+00 0. -1.
</event>
<event>
 7    1  0.1068210E-005  0.1040549E+03  0.7561462E-02  0.1271993E+00
         -3   -1    0    0    0  501 -0.00000000000E+00  0.00000000000E+00  0.80478904818E+02  0.80478904818E+02  0.00000000000E+00 0.  1.
          3   -1    0    0  501    0  0.00000000000E+00 -0.00000000000E+00 -0.15486473481E+03  0.15486473481E+03  0.00000000000E+00 0. -1.
         23    2    1    2    0    0 -0.11680528331E+02 -0.23534392297E+02 -0.35936775479E+02  0.13277596733E+03  0.12509078026E+03 0.  0.
          5    1    3    3  502    0 -0.63445193246E+02  0.16689248493E+01  0.21101989259E+01  0.63639635415E+02  0.41800000000E+01 0. -1.
         -5    1    3    3    0  502  0.51764664916E+02 -0.25203317147E+02 -0.38046974405E+02  0.69136331913E+02  0.41800000000E+01 0. -1.
        -11    1    1    2    0    0 -0.15662629894E+02  0.47751110807E+02 -0.42503287661E+02  0.65818052390E+02  0.00000000000E+00 0. -1.
         11    1    1    2    0    0  0.27343158225E+02 -0.24216718509E+02  0.40542331476E+01  0.36749619909E+02  0.00000000000E+00 0.  1.
</event>
<event>
 7    1  0.1068210E-005  0.5783605E+02  0.7561462E-02  0.1407144E+00
         -1   -1    0    0    0  501 -0.00000000000E+00  0.00000000000E+00  0.28135568186E+03  0.28135568186E+03  0.00000000000E+00 0.  1.
          1   -1    0    0  501    0  0.00000000000E+00 -0.00000000000E+00 -0.45439224955E+02  0.45439224955E+02  0.00000000000E+00 0. -1.
         23    2    1    2    0    0  0.91286814395E+01  0.19202092342E+02  0.17727847779E+03  0.21800538191E+03  0.12508650879E+03 0.  0.
          5    1    3    3  502    0 -0.18864047481E+02  0.32947308583E+02  0.18219842132E+03  0.18615884229E+03  0.41800000000E+01 0.  1.
         -5    1    3    3    0  502  0.27992728920E+02 -0.13745216241E+02 -0.49199435302E+01  0.31846539628E+02  0.41800000000E+01 0.  1.
        -11    1    1    2    0    0  0.14328061740E+02  0.19096103700E+01  0.72784256867E+02  0.74205714151E+02  0.00000000000E+00 0.  1.
         11    1    1    2    0    0 -0.23456743180E+02 -0.21111702712E+02 -0.14146277749E+02  0.34583810752E+02  0.00000000000E+00 0. -1.
</event>
<event>
 7    1  0.1068210E-005  0.2196897E+03  0.7561462E-02  0.1134115E+00
          2   -1    0    0  501    0  0.00000000000E+00  0.00000000000E+00  0.64823045019E+02  0.64823045019E+02  0.00000000000E+00 0. -1.
         -2   -1    0    0    0  501 -0.00000000000E+00 -0.00000000000E+00 -0.78722349414E+03  0.78722349414E+03  0.00000000000E+00 0.  1.
         23    2    1    2    0    0 -0.19498408669E+03  0.12767377944E+02 -0.31434081850E+03  0.39069153463E+03  0.12509166660E+03 0.  0.
          5    1    3    3  502    0 -0.15219278201E+03 -0.45857477442E+02 -0.22485227944E+03  0.27539348413E+03  0.41800000000E+01 0.  1.
         -5    1    3    3    0  502 -0.42791304684E+02  0.58624855386E+02 -0.89488539061E+02  0.11529805050E+03  0.41800000000E+01 0.  1.
        -11    1    1    2    0    0  0.13714132043E+03  0.23868939377E+02 -0.21138463625E+03  0.25310261255E+03  0.00000000000E+00 0. -1.
         11    1    1    2    0    0  0.57842766256E+02 -0.36636317321E+02 -0.19667499437E+03  0.20825239198E+03  0.00000000000E+00 0.  1.
</event>
<event>
 7    1  0.1068210E-005  0.1688742E+03  0.7561462E-02  0.1179027E+00
          2   -1    0    0  501    0  0.00000000000E+00  0.00000000000E+00  0.39005599227E+03  0.39005599227E+03  0.00000000000E+00 0. -1.
         -2   -1    0    0    0  501 -0.00000000000E+00 -0.00000000000E+00 -0.10596319594E+03  0.10596319594E+03  0.00000000000E+00 0.  1.
         23    2    1    2    0    0 -0.15648152322E+03  0.84703764603E+01  0.63189753798E+02  0.21023368973E+03  0.12508814862E+03 0.  0.
          5    1    3    3  502    0 -0.62017096039E+02  0.99665902978E+01 -0.36546065382E+02  0.72791073754E+02  0.41800000000E+01 0.  1.
         -5    1    3    3    0  502 -0.94464427186E+02 -0.14962138374E+01  0.99735819181E+02  0.13744261598E+03  0.41800000000E+01 0.  1.
        -11    1    1    2    0    0  0.84679538591E+01 -0.29533205480E+02  0.26722237087E+02  0.40718477666E+02  0.00000000000E+00 0.  1.
         11    1    1    2    0    0  0.14801356937E+03  0.21062829019E+02  0.19418080544E+03  0.24506702080E+03  0.00000000000E+00 0. -1.
</event>
<event>
 7    1  0.1068210E-005  0.1052266E+03  0.7561462E-02  0.1269674E+00
         -2   -1    0    0    0  501 -0.00000000000E+00  0.00000000000E+00  0.26616535937E+02  0.26616535937E+02  0.00000000000E+00 0. -1.
          2   -1    0    0  501    0  0.00000000000E+00 -0.00000000000E+00 -0.42307871421E+03  0.42307871421E+03  0.00000000000E+00 0.  1.
         23    2    1    2    0    0  0.55215848781E+00  0.44433096341E+01 -0.22920717089E+03  0.26115799431E+03  0.12509005926E+03 0.  0.
          5    1    3    3  502    0  0.90251793785E+01  0.63599491520E+02 -0.13421304643E+03  0.14885215288E+03  0.41800000000E+01 0.  1.
         -5    1    3    3    0  502 -0.84730208907E+01 -0.59156181886E+02 -0.94994124460E+02  0.11230584143E+03  0.41800000000E+01 0.  1.
        -11    1    1    2    0    0 -0.26070787817E+02  0.32256479277E+02 -0.93638098351E+02  0.10241220579E+03  0.00000000000E+00 0.  1.
         11    1    1    2    0    0  0.25518629329E+02 -0.36699788911E+02 -0.73616909032E+02  0.86125050040E+02  0.00000000000E+00 0. -1.
</event>
<event>
 7    1  0.1068210E-005  0.1341054E+03  0.7561462E-02  0.1221488E+00
          2   -1    0    0  501    0  0.00000000000E+00  0.00000000000E+00  0.95903968117E+03  0.95903968117E+03  0.00000000000E+00 0. -1.
         -2   -1    0    0    0  501 -0.00000000000E+00 -0.00000000000E+00 -0.22574765931E+02  0.22574765931E+02  0.00000000000E+00 0.  1.
         23    2    1    2    0    0 -0.10722603050E+03 -0.10643169714E+01  0.46717975164E+03  0.49538139525E+03  0.12508897643E+03 0.  0.
          5    1    3    3  502    0  0.59070692566E+01 -0.38616258380E+02  0.18327528519E+03  0.18743908728E+03  0.41800000000E+01 0. -1.
         -5    1    3    3    0  502 -0.11313309976E+03  0.37551941409E+02  0.28390446645E+03  0.30794230797E+03  0.41800000000E+01 0. -1.
        -11    1    1    2    0    0  0.73849668420E+02 -0.99112716644E+01  0.41453919420E+03  0.42118256180E+03  0.00000000000E+00 0. -1.
         11    1    1    2    0    0  0.33376362083E+02  0.10975588636E+02  0.54745969396E+02  0.65050490059E+02  0.00000000000E+00 0.  1.
</event>
<event>
 7    1  0.1068210E-005  0.1175379E+03  0.7561462E-02  0.1247215E+00
         -3   -1    0    0    0  501 -0.00000000000E+00  0.00000000000E+00  0.10797643112E+03  0.10797643112E+03  0.00000000000E+00 0.  1.
          3   -1    0    0  501    0  0.00000000000E+00 -0.00000000000E+00 -0.17099070694E+03  0.17099070694E+03  0.00000000000E+00 0. -1.
         23    2    1    2    0    0 -0.49744397027E+02  0.64350678309E+02 -0.36735555237E+02  0.15365717560E+03  0.12508202014E+03 0.  0.
          5    1    3    3  502    0 -0.25909308875E+02  0.10151513906E+03 -0.25703094678E+02  0.10795710825E+03  0.41800000000E+01 0. -1.
         -5    1    3    3    0  502 -0.23835088152E+02 -0.37164460753E+02 -0.11032460559E+02  0.45700067355E+02  0.41800000000E+01 0. -1.
        -11    1    1    2    0    0  0.18006354989E+02 -0.45564789939E+02  0.30421585924E+02  0.57670198476E+02  0.00000000000E+00 0.  1.
         11    1    1    2    0    0  0.31738042038E+02 -0.18785888369E+02 -0.56700306502E+02  0.67639763983E+02  0.00000000000E+00 0. -1.
</event>
<event>
 7    1  0.1068210E-005  0.1008460E+03  0.7561462E-02  0.1278527E+00
         -1   -1    0    0    0  501 -0.00000000000E+00  0.00000000000E+00  0.39387227194E+02  0.39387227194E+02  0.00000000000E+00 0.  1.
          1   -1    0    0  501    0  0.00000000000E+00 -0.00000000000E+00 -0.32622976935E+03  0.32622976935E+03  0.00000000000E+00 0. -1.
         23    2    1    2    0    0  0.57470330566E+01 -0.16404755173E+02 -0.78218029484E+02  0.13774889463E+03  0.11204710373E+03 0.  0.
          5    1    3    3  502    0 -0.20305788853E+02 -0.57633011509E+02 -0.59358818285E+02  0.85292618583E+02  0.41800000000E+01 0. -1.
         -5    1    3    3    0  502  0.26052821909E+02  0.41228256336E+02 -0.18859211199E+02  0.52456276050E+02  0.41800000000E+01 0.  1.
        -11    1    1    2    0    0 -0.52352740788E+01 -0.37361318546E+02 -0.79564370696E+02  0.88055467192E+02  0.00000000000E+00 0. -1.
         11    1    1    2    0    0 -0.51175897779E+00  0.53766073719E+02 -0.12906014198E+03  0.13981263472E+03  0.00000000000E+00 0.  1.
</event>
<event>
 7    1  0.1068210E-005  0.1153578E+03  0.7561462E-02  0.1250958E+00
         -2   -1    0    0    0  501 -0.00000000000E+00  0.00000000000E+00  0.56940807508E+02  0.56940807508E+02  0.00000000000E+00 0.  1.
          2   -1    0    0  501    0  0.00000000000E+00 -0.00000000000E+00 -0.33886644458E+03  0.33886644458E+03  0.00000000000E+00 0. -1.
         23    2    1    2    0    0  0.46285544769E+00  0.66005211089E+02 -0.76345246062E+02  0.16071218575E+03  0.12507161119E+03 0.  0.
          5    1    3    3  502    0 -0.18335348665E+02 -0.29353753980E+02 -0.48111614433E+02  0.59414036445E+02  0.41800000000E+01 0.  1.
         -5    1    3    3    0  502  0.18798204113E+02  0.95358965069E+02 -0.28233631629E+02  0.10129814930E+03  0.41800000000E+01 0.  1.
        -11    1    1    2    0    0  0.13373322113E+02 -0.78678704279E+02 -0.10040397978E+03  0.12825811244E+03  0.00000000000E+00 0.  1.
         11    1    1    2    0    0 -0.13836177561E+02  0.12673493190E+02 -0.10517641123E+03  0.10683695390E+03  0.00000000000E+00 0. -1.
</event>
<event>
 7    1  0.1068210E-005  0.1754616E+03  0.7561462E-02  0.1172269E+00
         -1   -1    0    0    0  501 -0.00000000000E+00  0.00000000000E+00  0.25757506559E+03  0.25757506559E+03  0.00000000000E+00 0.  1.
          1   -1    0    0  501    0  0.00000000000E+00 -0.00000000000E+00 -0.24751503799E+03  0.24751503799E+03  0.00000000000E+00 0. -1.
         23    2    1    2    0    0 -0.12255044150E+03 -0.11887687504E+03  0.15555598947E+03  0.26266961203E+03  0.12508931645E+03 0.  0.
          5    1    3    3  502    0 -0.73185056408E+02 -0.59167466743E+02  0.15921561201E+03  0.18499709487E+03  0.41800000000E+01 0. -1.
         -5    1    3    3    0  502 -0.49365385091E+02 -0.59709408296E+02 -0.36596225356E+01  0.77672517156E+02  0.41800000000E+01 0. -1.
        -11    1    1    2    0    0  0.73797984333E+02  0.10519137360E+03 -0.57238469070E+02  0.14066843965E+03  0.00000000000E+00 0.  1.
         11    1    1    2    0    0  0.48752457166E+02  0.13685501437E+02 -0.88257492810E+02  0.10175205190E+03  0.00000000000E+00 0. -1.
</event>
<event>
 7    1  0.1068210E-005  0.7843754E+02  0.7561462E-02  0.1333545E+00
          1   -1    0    0  501    0  0.00000000000E+00  0.00000000000E+00  0.38826640933E+02  0.38826640933E+02  0.00000000000E+00 0. -1.
         -1   -1    0    0    0  501 -0.00000000000E+00 -0.00000000000E+00 -0.41300577400E+03  0.41300577400E+03  0.00000000000E+00 0.  1.
         23    2    1    2    0    0 -0.18353741702E+02  0.61366608374E+02 -0.21003763672E+03  0.25271717915E+03  0.12508974115E+03 0.  0.
          5    1    3    3  502    0  0.18362635607E+02  0.48841716930E+02 -0.15915691547E+02  0.54712716406E+02  0.41800000000E+01 0. -1.
         -5    1    3    3    0  502 -0.36716377309E+02  0.12524891444E+02 -0.19412194518E+03  0.19800446275E+03  0.41800000000E+01 0. -1.
        -11    1    1    2    0    0  0.79253846726E+01 -0.47516283620E+02 -0.17304518806E+03  0.17962529344E+03  0.00000000000E+00 0.  1.
         11    1    1    2    0    0  0.10428357030E+02 -0.13850324754E+02  0.89036917219E+01  0.19489942340E+02  0.00000000000E+00 0. -1.
</event>
<event>
 7    1  0.1068210E-005  0.1011405E+03  0.7561462E-02  0.1277916E+00
         -3   -1    0    0    0  501 -0.00000000000E+00  0.00000000000E+00  0.19834965624E+03  0.19834965624E+03  0.00000000000E+00 0.  1.
          3   -1    0    0  501    0  0.00000000000E+00 -0.00000000000E+00 -0.10301455904E+03  0.10301455904E+03  0.00000000000E+00 0. -1.
         23    2    1    2    0    0  0.27820039802E+02 -0.43137842733E+02  0.12943999713E+03  0.18718104653E+03  0.12508878140E+03 0.  0.
          5    1    3    3  502    0 -0.12809130128E+02  0.33902082522E+02  0.74549577664E+01  0.37235383834E+02  0.41800000000E+01 0. -1.
         -5    1    3    3    0  502  0.40629169930E+02 -0.77039925256E+02  0.12198503936E+03  0.14994566269E+03  0.41800000000E+01 0. -1.
        -11    1    1    2    0    0 -0.21020489922E+02 -0.11215433550E+02  0.24354716367E+02  0.34070502719E+02  0.00000000000E+00 0. -1.
         11    1    1    2    0    0 -0.67995498806E+01  0.54353276283E+02 -0.58459616299E+02  0.80112666034E+02  0.00000000000E+00 0.  1.
</event>
<event>
 7    1  0.1068210E-005  0.1914260E+03  0.7561462E-02  0.1157181E+00
         -1   -1    0    0    0  501 -0.00000000000E+00  0.00000000000E+00  0.22615977249E+02  0.22615977249E+02  0.00000000000E+00 0.  1.
          1   -1    0    0  501    0  0.00000000000E+00 -0.00000000000E+00 -0.18483418132E+04  0.18483418132E+04  0.00000000000E+00 0. -1.
         23    2    1    2    0    0  0.15962202266E+03  0.67185891553E+02 -0.98517831087E+03  0.10080748541E+04  0.12508186532E+03 0.  0.
          5    1    3    3  502    0  0.15661123556E+03  0.92707720425E+02 -0.92095732389E+03  0.93877668557E+03  0.41800000000E+01 0. -1.
         -5    1    3    3    0  502  0.30107871045E+01 -0.25521828871E+02 -0.64220986972E+02  0.69298168487E+02  0.41800000000E+01 0. -1.
        -11    1    1    2    0    0 -0.12362742472E+03 -0.62334774138E+02 -0.78065931865E+03  0.79284193633E+03  0.00000000000E+00 0. -1.
         11    1    1    2    0    0 -0.35994597944E+02 -0.48511174159E+01 -0.59888206488E+02  0.70041000119E+02  0.00000000000E+00 0.  1.
</event>
<event>
 7    1  0.1068210E-005  0.1051796E+03  0.7561462E-02  0.1269766E+00
         -1   -1    0    0    0  501 -0.00000000000E+00  0.00000000000E+00  0.19688154520E+03  0.19688154520E+03  0.00000000000E+00 0.  1.
          1   -1    0    0  501    0  0.00000000000E+00 -0.00000000000E+00 -0.95177199980E+02  0.95177199980E+02  0.00000000000E+00 0. -1.
         23    2    1    2    0    0  0.74642479273E+02  0.24331041026E+02  0.78888272082E+02  0.16743732793E+03  0.12509356516E+03 0.  0.
          5    1    3    3  502    0  0.23967924314E+02  0.28945212433E+02 -0.29281221985E+02  0.47824147454E+02  0.41800000000E+01 0.  1.
         -5    1    3    3    0  502  0.50674554959E+02 -0.46141714076E+01  0.10816949407E+03  0.11961318048E+03  0.41800000000E+01 0.  1.
        -11    1    1    2    0    0 -0.56533564012E+02 -0.59412720835E+02  0.22872854390E+02  0.85141545234E+02  0.00000000000E+00 0. -1.
         11    1    1    2    0    0 -0.18108915261E+02  0.35081679809E+02 -0.56781248034E-01  0.39479872015E+02  0.00000000000E+00 0.  1.
</event>
<event>
 7    1  0.1068210E-005  0.1459652E+03  0.7561462E-02  0.1205520E+00
         -2   -1    0    0    0  501 -0.00000000000E+00  0.00000000000E+00  0.76353384373E+02  0.76353384373E+02  0.00000000000E+00 0.  1.
          2   -1    0    0  501    0  0.00000000000E+00 -0.00000000000E+00 -0.46972788218E+03  0.46972788218E+03  0.00000000000E+00 0. -1.
         23    2    1    2    0    0  0.93361452185E+02  0.23453927611E+01 -0.42476170990E+02  0.16179014043E+03  0.12509981141E+03 0.  0.
          5    1    3    3  502    0  0.34065235304E+01 -0.45751517070E+02  0.97906710862E+01  0.47097084379E+02  0.41800000000E+01 0. -1.
         -5    1    3    3    0  502  0.89954928655E+02  0.48096909831E+02 -0.52266842076E+02  0.11469305605E+03  0.41800000000E+01 0. -1.
        -11    1    1    2    0    0 -0.41960984787E+02  0.53420451748E+02 -0.91031102320E+02  0.11358314355E+03  0.00000000000E+00 0.  1.
         11    1    1    2    0    0 -0.51400467398E+02 -0.55765844509E+02 -0.25986722450E+03  0.27070798257E+03  0.00000000000E+00 0. -1.
</event>
<event>
 7    1  0.1068210E-005  0.7285406E+02  0.7561462E-02  0.1350648E+00
          2   -1    0    0  501    0  0.00000000000E+00  0.00000000000E+00  0.74373464362E+02  0.74373464362E+02  0.00000000000E+00 0. -1.
         -2   -1    0    0    0  501 -0.00000000000E+00 -0.00000000000E+00 -0.10478560235E+03  0.10478560235E+03  0.00000000000E+00 0.  1.
         23    2    1    2    0    0  0.39300141645E+02  0.11429250049E+02 -0.38952262799E+02  0.13670578907E+03  0.12448319203E+03 0.  0.
          5    1    3    3  502    0  0.46121487727E+02 -0.34380712779E+02  0.20512609806E+02  0.61216538634E+02  0.41800000000E+01 0. -1.
         -5    1    3    3    0  502 -0.68213460815E+01  0.45809962828E+02 -0.59464872605E+02  0.75489250431E+02  0.41800000000E+01 0.  1.
        -11    1    1    2    0    0 -0.30106888053E+02 -0.55480964270E+01  0.72781226942E+01  0.31467080452E+02  0.00000000000E+00 0.  1.
         11    1    1    2    0    0 -0.91932535917E+01 -0.58811536223E+01  0.12620021136E+01  0.10986197198E+02  0.00000000000E+00 0. -1.
</event>
<event>
 7    1  0.1068210E-005  0.8441149E+02  0.7561462E-02  0.1316979E+00
         -1   -1    0    0    0  501 -0.00000000000E+00  0.00000000000E+00  0.12038306320E+03  0.12038306320E+03  0.00000000000E+00 0.  1.
          1   -1    0    0  501    0  0.00000000000E+00 -0.00000000000E+00 -0.12971722910E+03  0.12971722910E+03  0.00000000000E+00 0. -1.
         23    2    1    2    0    0  0.13477167189E+02  0.88703907536E+01  0.53300367704E+02  0.13692784729E+03  0.12509191940E+03 0.  0.
          5    1    3    3  502    0  0.12252853083E+02  0.60929488578E+02  0.57163905208E+02  0.84544186351E+02  0.41800000000E+01 0.  1.
         -5    1    3    3    0  502  0.12243141056E+01 -0.52059097825E+02 -0.38635375046E+01  0.52383660939E+02  0.41800000000E+01 0.  1.
        -11    1    1    2    0    0  0.18329228120E+02 -0.12637492678E+02 -0.75456617874E+02  0.78672536540E+02  0.00000000000E+00 0. -1.
         11    1    1    2    0    0 -0.31806395308E+02  0.37671019249E+01  0.12822084271E+02  0.34499908471E+02  0.00000000000E+00 0.  1.
</event>
<event>
 7    1  0.1068210E-005  0.1161825E+03  0.7561462E-02  0.1249531E+00
         -1   -1    0    0    0  501 -0.00000000000E+00  0.00000000000E+00  0.17205985692E+03  0.17205985692E+03  0.00000000000E+00 0.  1.
          1   -1    0    0  501    0  0.00000000000E+00 -0.00000000000E+00 -0.17799821440E+03  0.17799821440E+03  0.00000000000E+00 0. -1.
         23    2    1    2    0    0 -0.28557548471E+02  0.93382321912E+02  0.10413744764E+03  0.18980964861E+03  0.12508918053E+03 0.  0.
          5    1    3    3  502    0 -0.73575518902E+01  0.10066965126E+03  0.20453618866E+02  0.10307441573E+03  0.41800000000E+01 0.  1.
         -5    1    3    3    0  502 -0.21199996580E+02 -0.72873293460E+01  0.83683828776E+02  0.86735232879E+02  0.41800000000E+01 0.  1.
        -11    1    1    2    0    0  0.41839874497E+02 -0.74600370952E+02 -0.10708472793E+03  0.13705082780E+03  0.00000000000E+00 0. -1.
         11    1    1    2    0    0 -0.13282326026E+02 -0.18781950960E+02 -0.29910771854E+01  0.23197594902E+02  0.00000000000E+00 0.  1.
</event>
<event>
 7    1  0.1068210E-005  0.9993620E+02  0.7561462E-02  0.1280430E+00
          2   -1    0    0  501    0  0.00000000000E+00  0.00000000000E+00  0.91946224828E+03  0.91946224828E+03  0.00000000000E+00 0. -1.
         -2   -1    0    0    0  501 -0.00000000000E+00 -0.00000000000E+00 -0.17663880058E+02  0.17663880058E+02  0.00000000000E+00 0.  1.
         23    2    1    2    0    0 -0.53302240540E+02  0.16225989582E+02  0.35788364007E+03  0.38318697060E+03  0.12508854073E+03 0.  0.
          5    1    3    3  502    0  0.17857426593E+02 -0.82212068538E+01  0.29166055017E+01  0.20308986048E+02  0.41800000000E+01 0.  1.
         -5    1    3    3    0  502 -0.71159667132E+02  0.24447196436E+02  0.35496703457E+03  0.36287798455E+03  0.41800000000E+01 0.  1.
        -11    1    1    2    0    0  0.74889104684E+02 -0.27848031884E+02  0.43758046768E+03  0.44481519373E+03  0.00000000000E+00 0.  1.
         11    1    1    2    0    0 -0.21586864144E+02  0.11622042302E+02  0.10633426046E+03  0.10912396400E+03  0.00000000000E+00 0. -1.
</event>
<event>
 7    1  0.1068210E-005  0.1356005E+03  0.7561462E-02  0.1219374E+00
         -3   -1    0    0    0  501 -0.00000000000E+00  0.00000000000E+00  0.20049656027E+04  0.20049656027E+04  0.00000000000E+00 0.  1.
          3   -1    0    0  501    0  0.00000000000E+00 -0.00000000000E+00 -0.28267952656E+02  0.28267952656E+02  0.00000000000E+00 0. -1.
         23    2    1    2    0    0 -0.50234357635E+02 -0.10764503914E+03  0.17680704831E+04  0.17764660518E+04  0.12508978618E+03 0.  0.
          5    1    3    3  502    0 -0.46969834504E+02 -0.71284551251E+02  0.45959983675E+03  0.46747955564E+03  0.41800000000E+01 0.  1.
         -5    1    3    3    0  502 -0.32645231310E+01 -0.36360487887E+02  0.13084706464E+04  0.13089864961E+04  0.41800000000E+01 0.  1.
        -11    1    1    2    0    0  0.63281931468E+02  0.29608636316E+02  0.85563058320E+02  0.11046407173E+03  0.00000000000E+00 0.  1.
         11    1    1    2    0    0 -0.13047573833E+02  0.78036402823E+02  0.12306410855E+03  0.14630343182E+03  0.00000000000E+00 0. -1.
</event>
<event>
 7    1  0.1068210E-005  0.1381914E+03  0.7561462E-02  0.1215784E+00
         -2   -1    0    0    0  501 -0.00000000000E+00  0.00000000000E+00  0.15038013806E+03  0.15038013806E+03  0.00000000000E+00 0.  1.
          2   -1    0    0  501    0  0.00000000000E+00 -0.00000000000E+00 -0.25094759009E+03  0.25094759009E+03  0.00000000000E+00 0. -1.
         23    2    1    2    0    0  0.59049557268E+02  0.83640277279E+02  0.76616025872E+02  0.17889446280E+03  0.12510262668E+03 0.  0.
          5    1    3    3  502    0 -0.36006407701E+02  0.27150023059E+02  0.44926919609E+02  0.63792520355E+02  0.41800000000E+01 0. -1.
         -5    1    3    3    0  502  0.95055964969E+02  0.56490254220E+02  0.31689106263E+02  0.11510194244E+03  0.41800000000E+01 0. -1.
        -11    1    1    2    0    0 -0.13149263852E+01 -0.56724848545E+02 -0.13388136653E+03  0.14540858908E+03  0.00000000000E+00 0.  1.
         11    1    1    2    0    0 -0.57734630883E+02 -0.26915428734E+02 -0.43302111367E+02  0.77024676280E+02  0.00000000000E+00 0. -1.
</event>
<event>
 7    1  0.1068210E-005  0.9970514E+02  0.7561462E-02  0.1280917E+00
          1   -1    0    0  501    0  0.00000000000E+00  0.00000000000E+00  0.50518687416E+03  0.50518687416E+03  0.00000000000E+00 0. -1.
         -1   -1    0    0    0  501 -0.00000000000E+00 -0.00000000000E+00 -0.33489304866E+02  0.33489304866E+02  0.00000000000E+00 0.  1.
         23    2    1    2    0    0 -0.33026099028E+02 -0.59025021237E+02  0.25710657096E+03  0.29381151126E+03  0.12508692563E+03 0.  0.
          5    1    3    3  502    0 -0.52681688303E+02 -0.15815758304E+02  0.32118832030E+02  0.63832517294E+02  0.41800000000E+01 0.  1.
         -5    1    3    3    0  502  0.19655589275E+02 -0.43209262933E+02  0.22498773893E+03  0.22997899396E+03  0.41800000000E+01 0.  1.
        -11    1    1    2    0    0 -0.14245187656E+02  0.45126490682E+02  0.35604202685E+02  0.59219800586E+02  0.00000000000E+00 0.  1.
         11    1    1    2    0    0  0.47271286684E+02  0.13898530556E+02  0.17898679565E+03  0.18564486718E+03  0.00000000000E+00 0. -1.
</event>
<event>
 6    1  0.1068210E-005  0.1093357E+03  0.7561462E-02  0.1261805E+00
         -2   -1    0    0    0  501 -0.00000000000E+00  0.00000000000E+00  0.44027400207E+02  0.44027400207E+02  0.00000000000E+00 0.  1.
          2   -1    0    0  501    0  0.00000000000E+00 -0.00000000000E+00 -0.32025663295E+03  0.32025663295E+03  0.00000000000E+00 0. -1.
          5    1    1    2  502    0 -0.53409130081E+02  0.53657170116E+01 -0.10878355568E+03  0.12137817136E+03  0.41800000000E+01 0. -1.
         -5    1    1    2    0  502  0.73343496002E+02  0.10948932248E+02 -0.40283080720E+02  0.84494653768E+02  0.41800000000E+01 0.  1.
        -11    1    1    2    0    0 -0.24094492648E+02 -0.50587535425E+02 -0.99414794723E+02  0.11411811743E+03  0.00000000000E+00 0.  1.
         11    1    1    2    0    0  0.41601267273E+01  0.34272886166E+02 -0.27747801624E+02  0.44293090606E+02  0.00000000000E+00 0. -1.
</event>
<event>
 7    1  0.1068210E-005  0.1130142E+03  0.7561462E-02  0.1255088E+00
         -2   -1    0    0    0  501 -0.00000000000E+00  0.00000000000E+00  0.12452617469E+03  0.12452617469E+03  0.00000000000E+00 0. -1.
          2   -1    0    0  501    0  0.00000000000E+00 -0.00000000000E+00 -0.23771139309E+03  0.23771139309E+03  0.00000000000E+00 0.  1.
         23    2    1    2    0    0 -0.41804858328E+02  0.81027729435E+02  0.42963798770E+02  0.16063847012E+03  0.12508273646E+03 0.  0.
          5    1    3    3  502    0 -0.39430774713E+02  0.10255253782E+03 -0.26383811538E+01  0.10998291896E+03  0.41800000000E+01 0. -1.
         -5    1    3    3    0  502 -0.23740836147E+01 -0.21524808387E+02  0.45602179924E+02  0.50655551156E+02  0.41800000000E+01 0. -1.
        -11    1    1    2    0    0 -0.19288546925E+01 -0.13046944503E+02  0.10185155980E+02  0.16663752387E+02  0.00000000000E+00 0. -1.
         11    1    1    2    0    0  0.43733713020E+02 -0.67980784932E+02 -0.16633417315E+03  0.18493534528E+03  0.00000000000E+00 0.  1.
</event>
<event>
 7    1  0.1068210E-005  0.1195501E+03  0.7561462E-02  0.1243841E+00
         -1   -1    0    0    0  501 -0.00000000000E+00  0.00000000000E+00  0.35051927028E+02  0.35051927028E+02  0.00000000000E+00 0.  1.
          1   -1    0    0  501    0  0.00000000000E+00 -0.00000000000E+00 -0.52724205337E+03  0.52724205337E+03  0.00000000000E+00 0. -1.
         23    2    1    2    0    0  0.80431919904E+02 -0.10449663374E+02 -0.30546980509E+03  0.33991003166E+03  0.12509411895E+03 0.  0.
          5    1    3    3  502    0  0.10663062498E+03 -0.16624132401E+02 -0.16765773572E+03  0.19943179463E+03  0.41800000000E+01 0.  1.
         -5    1    3    3    0  502 -0.26198705073E+02  0.61744690272E+01 -0.13781206937E+03  0.14047823703E+03  0.41800000000E+01 0.  1.
        -11    1    1    2    0    0  0.11299448208E+02 -0.13272631486E+01  0.26098561314E+01  0.11672639217E+02  0.00000000000E+00 0.  1.
         11    1    1    2    0    0 -0.91731368112E+02  0.11776926522E+02 -0.18933017738E+03  0.21071130953E+03  0.00000000000E+00 0. -1.
</event>
<event>
 6    1  0.1068210E-005  0.9358411E+02  0.7561462E-02  0.1294397E+00
          1   -1    0    0  501    0  0.00000000000E+00  0.00000000000E+00  0.27749744089E+03  0.27749744089E+03  0.00000000000E+00 0. -1.
         -1   -1    0    0    0  501 -0.00000000000E+00 -0.00000000000E+00 -0.49218679660E+03  0.49218679660E+03  0.00000000000E+00 0.  1.
          5    1    1    2  502    0 -0.33605919042E+02  0.10169312300E+02 -0.12290092449E+02  0.37433828013E+02  0.41800000000E+01 0. -1.
         -5    1    1    2    0  502  0.72479163364E+02  0.33071820679E+02 -0.45262341374E+03  0.45960026274E+03  0.41800000000E+01 0.  1.
        -11    1    1    2    0    0 -0.11789520524E+01 -0.32932314679E+02  0.18778049760E+02  0.37928121900E+02  0.00000000000E+00 0.  1.
         11    1    1    2    0    0 -0.37694292270E+02 -0.10308818300E+02  0.23144610072E+03  0.23472202484E+03  0.00000000000E+00 0. -1.
</event>
<event>
 7    1  0.1068210E-005  0.1253158E+03  0.7561462E-02  0.1234577E+00
         -1   -1    0    0    0  501 -0.00000000000E+00  0.00000000000E+00  0.14427757525E+03  0.14427757525E+03  0.00000000000E+00 0.  1.
          1   -1    0    0  501    0  0.00000000000E+00 -0.00000000000E+00 -0.16683567196E+03  0.16683567196E+03  0.00000000000E+00 0. -1.
         23    2    1    2    0    0  0.53468046474E+01 -0.10812614913E+03  0.74813099071E+01  0.16561053507E+03  0.12510406421E+03 0.  0.
          5    1    3    3  502    0 -0.42620013852E+02 -0.44395789331E+02 -0.39209329711E+02  0.73091009210E+02  0.41800000000E+01 0.  1.
         -5    1    3    3    0  502  0.47966818499E+02 -0.63730359802E+02  0.46690639618E+02  0.92519525860E+02  0.41800000000E+01 0.  1.
        -11    1    1    2    0    0 -0.93271279645E+01  0.53859750953E+02  0.31715659201E+02  0.63196132218E+02  0.00000000000E+00 0.  1.
         11    1    1    2    0    0  0.39803233171E+01  0.54266398179E+02 -0.61755065814E+02  0.82306579924E+02  0.00000000000E+00 0. -1.
</event>
<event>
 7    1  0.1068210E-005  0.1089418E+03  0.7561462E-02  0.1262542E+00
          1   -1    0    0  501    0  0.00000000000E+00  0.00000000000E+00  0.58724307808E+02  0.58724307808E+02  0.00000000000E+00 0. -1.
         -1   -1    0    0    0  501 -0.00000000000E+00 -0.00000000000E+00 -0.25513231111E+03  0.25513231111E+03  0.00000000000E+00 0.  1.
         23    2    1    2    0    0  0.20416779467E+02 -0.18843592586E+02 -0.17311046297E+03  0.21537644021E+03  0.12509137757E+03 0.  0.
          5    1    3    3  502    0  0.49462629273E+02 -0.56056659233E+02 -0.13574644975E+03  0.15502732585E+03  0.41800000000E+01 0. -1.
         -5    1    3    3    0  502 -0.29045849806E+02  0.37213066647E+02 -0.37364013217E+02  0.60349114359E+02  0.41800000000E+01 0. -1.
        -11    1    1    2    0    0  0.33540784584E+02  0.24249788913E+02 -0.82451891389E+01  0.42202128344E+02  0.00000000000E+00 0. -1.
         11    1    1    2    0    0 -0.53957564051E+02 -0.54061963267E+01 -0.15052351199E+02  0.56278050372E+02  0.00000000000E+00 0.  1.
</event>
<event>
 7    1  0.1068210E-005  0.1016531E+03  0.7561462E-02  0.1276858E+00
          2   -1    0    0  501    0  0.00000000000E+00  0.00000000000E+00  0.82878677396E+03  0.82878677396E+03  0.00000000000E+00 0. -1.
         -2   -1    0    0    0  501 -0.00000000000E+00 -0.00000000000E+00 -0.24071677596E+02  0.24071677596E+02  0.00000000000E+00 0.  1.
         23    2    1    2    0    0  0.27969166385E+02  0.60355549161E+02  0.31174741888E+03  0.34243004176E+03  0.12508722453E+03 0.  0.
          5    1    3    3  502    0  0.16778671040E+02  0.55355666401E+02  0.32120242694E+03  0.32639584109E+03  0.41800000000E+01 0. -1.
         -5    1    3    3    0  502  0.11190495345E+02  0.49998827600E+01 -0.94550080665E+01  0.16034200673E+02  0.41800000000E+01 0. -1.
        -11    1    1    2    0    0 -0.39241866930E+02  0.24828122121E+02  0.17347938733E+03  0.17958690819E+03  0.00000000000E+00 0. -1.
         11    1    1    2    0    0  0.11272700544E+02 -0.85183671282E+02  0.31948829016E+03  0.33084150160E+03  0.00000000000E+00 0.  1.
</event>
<event>
 7    1  0.1068210E-005  0.1038142E+03  0.7561462E-02  0.1272474E+00
          2   -1    0    0  501    0  0.00000000000E+00  0.00000000000E+00  0.37812373374E+02  0.37812373374E+02  0.00000000000E+00 0. -1.
         -2   -1    0    0    0  501 -0.00000000000E+00 -0.00000000000E+00 -0.88521910663E+03  0.88521910663E+03  0.00000000000E+00 0.  1.
         23    2    1    2    0    0 -0.29702811580E+01  0.90008403569E+02 -0.73959338978E+03  0.75548514451E+03  0.12509630725E+03 0.  0.
          5    1    3    3  502    0  0.18007434468E+02  0.15104059475E+02 -0.54992596010E+03  0.55044385209E+03  0.41800000000E+01 0. -1.
         -5    1    3    3    0  502 -0.20977715626E+02  0.74904344094E+02 -0.18966742968E+03  0.20504129242E+03  0.41800000000E+01 0. -1.
        -11    1    1    2    0    0  0.17406218919E+02 -0.30036652550E+01 -0.68936747484E+02  0.71163709962E+02  0.00000000000E+00 0.  1.
         11    1    1    2    0    0 -0.14435937761E+02 -0.87004738314E+02 -0.38876595992E+02  0.96382625530E+02  0.00000000000E+00 0. -1.
</event>
<event>
 7    1  0.1068210E-005  0.7427956E+02  0.7561462E-02  0.1346117E+00
         -2   -1    0    0    0  501 -0.00000000000E+00  0.00000000000E+00  0.40531253718E+03  0.40531253718E+03  0.00000000000E+00 0.  1.
          2   -1    0    0  501    0  0.00000000000E+00 -0.00000000000E+00 -0.35517297610E+02  0.35517297610E+02  0.00000000000E+00 0. -1.
         23    2    1    2    0    0 -0.23081723593E+01 -0.18682960914E+02  0.29165513594E+03  0.31790800846E+03  0.12509357633E+03 0.  0.
          5    1    3    3  502    0  0.96341071180E+01  0.14792980007E+02  0.27953645542E+03  0.28012452692E+03  0.41800000000E+01 0.  1.
         -5    1    3    3    0  502 -0.11942279477E+02 -0.33475940922E+02  0.12118680519E+02  0.37783481539E+02  0.41800000000E+01 0.  1.
        -11    1    1    2    0    0  0.41630504427E+02  0.32643973302E+02  0.39155191321E+02  0.65816843582E+02  0.00000000000E+00 0.  1.
         11    1    1    2    0    0 -0.39322332067E+02 -0.13961012388E+02  0.38984912313E+02  0.57104982744E+02  0.00000000000E+00 0. -1.
</event>
<event>
 7    1  0.1068210E-005  0.1148360E+03  0.7561462E-02  0.1251868E+00
          1   -1    0    0  501    0  0.00000000000E+00  0.00000000000E+00  0.49963755233E+02  0.49963755233E+02  0.00000000000E+00 0. -1.
         -1   -1    0    0    0  501 -0.00000000000E+00 -0.00000000000E+00 -0.35398722190E+03  0.35398722190E+03  0.00000000000E+00 0.  1.
         23    2    1    2    0    0  0.37239651300E+02  0.11962069646E+02 -0.26897144859E+03  0.29920328671E+03  0.12508830433E+03 0.  0.
          5    1    3    3  502    0 -0.28912070795E+02  0.47552856688E+02 -0.11696326213E+03  0.12959575265E+03  0.41800000000E+01 0. -1.
         -5    1    3    3    0  502  0.66151722095E+02 -0.35590787041E+02 -0.15200818646E+03  0.16960753406E+03  0.41800000000E+01 0. -1.
        -11    1    1    2    0    0  0.29865605784E+02  0.25421960292E+01 -0.87195486714E+01  0.31216144838E+02  0.00000000000E+00 0.  1.
         11    1    1    2    0    0 -0.67105257083E+02 -0.14504265675E+02 -0.26332469400E+02  0.73531545582E+02  0.00000000000E+00 0. -1.
</event>
<event>
 7    1  0.1068210E-005  0.1184898E+03  0.7561462E-02  0.1245609E+00
         -4   -1    0    0    0  501 -0.00000000000E+00  0.00000000000E+00  0.18437363546E+03  0.18437363546E+03  0.00000000000E+00 0.  1.
          4   -1    0    0  501    0  0.00000000000E+00 -0.00000000000E+00 -0.10305275965E+03  0.10305275965E+03  0.00000000000E+00 0. -1.
         23    2    1    2    0    0  0.69103864949E+02 -0.26337936506E+02  0.88071962435E+02  0.16992406686E+03  0.12509391225E+03 0.  0.
          5    1    3    3  502    0  0.26723091485E+02  0.46546183515E+02  0.60813219991E+02  0.81218168805E+02  0.41800000000E+01 0.  1.
         -5    1    3    3    0  502  0.42380773463E+02 -0.72884120021E+02  0.27258742444E+02  0.88705898058E+02  0.41800000000E+01 0.  1.
        -11    1    1    2    0    0 -0.51965343108E+02  0.48250863487E+02  0.25090368152E+02  0.75220138830E+02  0.00000000000E+00 0.  1.
         11    1    1    2    0    0 -0.17138521840E+02 -0.21912926981E+02 -0.31841454779E+02  0.42282189420E+02  0.00000000000E+00 0. -1.
</event>
<event>
 7    1  0.1068210E-005  0.9326901E+02  0.7561462E-02  0.1295123E+00
          1   -1    0    0  501    0  0.00000000000E+00  0.00000000000E+00  0.22812556058E+02  0.22812556058E+02  0.00000000000E+00 0. -1.
         -1   -1    0    0    0  501 -0.00000000000E+00 -0.00000000000E+00 -0.59025423552E+03  0.59025423552E+03  0.00000000000E+00 0.  1.
         23    2    1    2    0    0 -0.12774582059E+02 -0.55811557219E+01 -0.42515039767E+03  0.44339037096E+03  0.12509125140E+03 0.  0.
          5    1    3    3  502    0  0.17284444092E+02  0.43016405430E+02 -0.32242037005E+03  0.32576299754E+03  0.41800000000E+01 0. -1.
         -5    1    3    3    0  502 -0.30059026151E+02 -0.48597561152E+02 -0.10273002763E+03  0.11762737343E+03  0.41800000000E+01 0. -1.
        -11    1    1    2    0    0  0.37567905719E+02 -0.23629704424E+02 -0.11313900630E+03  0.12153248626E+03  0.00000000000E+00 0.  1.
         11    1    1    2    0    0 -0.24793323660E+02  0.29210860146E+02 -0.29152275496E+02  0.48143934355E+02  0.00000000000E+00 0. -1.
</event>
<event>
 7    1  0.1068210E-005  0.1004361E+03  0.7561462E-02  0.1279382E+00
         -2   -1    0    0    0  501 -0.00000000000E+00  0.00000000000E+00  0.23158354333E+02  0.23158354333E+02  0.00000000000E+00 0.  1.
          2   -1    0    0  501    0  0.00000000000E+00 -0.00000000000E+00 -0.72411719683E+03  0.72411719683E+03  0.00000000000E+00 0. -1.
         23    2    1    2    0    0 -0.61073367340E+02  0.31193297078E+02 -0.34174507866E+03  0.37032380142E+03  0.12508813344E+03 0.  0.
          5    1    3    3  502    0 -0.61061108883E+02 -0.13562337015E+02 -0.66336302858E+02  0.91270879695E+02  0.41800000000E+01 0. -1.
         -5    1    3    3    0  502 -0.12258456092E-01  0.44755634093E+02 -0.27540877580E+03  0.27905292172E+03  0.41800000000E+01 0. -1.
        -11    1    1    2    0    0 -0.13213376034E+02 -0.17688455813E+01 -0.56623570076E+01  0.14483936198E+02  0.00000000000E+00 0.  1.
         11    1    1    2    0    0  0.74286743373E+02 -0.29424451497E+02 -0.35355140683E+03  0.36246781355E+03  0.00000000000E+00 0. -1.
</event>
<event>
 7    1  0.1068210E-005  0.1098232E+03  0.7561462E-02  0.1260898E+00
         -1   -1    0    0    0  501 -0.00000000000E+00  0.00000000000E+00  0.21834855580E+03  0.21834855580E+03  0.00000000000E+00 0.  1.
          1   -1    0    0  501    0  0.00000000000E+00 -0.00000000000E+00 -0.68097274846E+02  0.68097274846E+02  0.00000000000E+00 0. -1.
         23    2    1    2    0    0  0.35393509693E+02  0.42675771341E+02  0.13166089473E+03  0.18988741859E+03  0.12509483822E+03 0.  0.
          5    1    3    3  502    0  0.44077707699E+02 -0.30864116448E+02  0.89662801331E+02  0.10465337234E+03  0.41800000000E+01 0.  1.
         -5    1    3    3    0  502 -0.86841980058E+01  0.73539887788E+02  0.41998093398E+02  0.85234046249E+02  0.41800000000E+01 0.  1.
        -11    1    1    2    0    0 -0.56569266491E+02 -0.18843077584E+02  0.23902629530E+02  0.64237677282E+02  0.00000000000E+00 0.  1.
         11    1    1    2    0    0  0.21175756798E+02 -0.23832693757E+02 -0.53122433002E+01  0.32320734777E+02  0.00000000000E+00 0. -1.
</event>
<event>
 7    1  0.1068210E-005  0.1036125E+03  0.7561462E-02  0.1272878E+00
         -4   -1    0    0    0  501 -0.00000000000E+00  0.00000000000E+00  0.69938463501E+03  0.69938463501E+03  0.00000000000E+00 0.  1.
          4   -1    0    0  501    0  0.00000000000E+00 -0.00000000000E+00 -0.21405247109E+02  0.21405247109E+02  0.00000000000E+00 0. -1.
         23    2    1    2    0    0  0.18734939541E+02 -0.15804865628E+02  0.57172169990E+03  0.58648455833E+03  0.12844315195E+03 0.  0.
          5    1    3    3  502    0  0.70620281228E+02 -0.17953107356E+02  0.24517564660E+03  0.25580873376E+03  0.41800000000E+01 0. -1.
         -5    1    3    3    0  502 -0.51885341686E+02  0.21482417281E+01  0.32654605331E+03  0.33067582457E+03  0.41800000000E+01 0.  1.
        -11    1    1    2    0    0 -0.35089007671E+02  0.39827550119E+02  0.68425874432E+02  0.86600072168E+02  0.00000000000E+00 0.  1.
         11    1    1    2    0    0  0.16354068129E+02 -0.24022684491E+02  0.37831813568E+02  0.47705251623E+02  0.00000000000E+00 0. -1.
</event>
<event>
 7    1  0.1068210E-005  0.1339992E+03  0.7561462E-02  0.1221639E+00
         -1   -1    0    0    0  501 -0.00000000000E+00  0.00000000000E+00  0.30224418847E+03  0.30224418847E+03  0.00000000000E+00 0.  1.
          1   -1    0    0  501    0  0.00000000000E+00 -0.00000000000E+00 -0.88308463082E+02  0.88308463082E+02  0.00000000000E+00 0. -1.
         23    2    1    2    0    0 -0.82624758621E+02  0.84558726043E+02  0.14908478087E+03  0.22770669503E+03  0.12508812169E+03 0.  0.
          5    1    3    3  502    0  0.74933085573E+01 -0.13792051357E+02  0.71525150575E+02  0.73346369498E+02  0.41800000000E+01 0.  1.
         -5    1    3    3    0  502 -0.90118067178E+02  0.98350777400E+02  0.77559630296E+02  0.15436032553E+03  0.41800000000E+01 0.  1.
        -11    1    1    2    0    0  0.20058312837E+02 -0.18074938089E+02 -0.23504005814E+02  0.35797731633E+02  0.00000000000E+00 0. -1.
         11    1    1    2    0    0  0.62566445785E+02 -0.66483787955E+02  0.88354950328E+02  0.12704822489E+03  0.00000000000E+00 0.  1.
</event>
<event>
 7    1  0.1068210E-005  0.1295448E+03  0.7561462E-02  0.1228133E+00
         -3   -1    0    0    0  501 -0.00000000000E+00  0.00000000000E+00  0.18183457450E+03  0.18183457450E+03  0.00000000000E+00 0.  1.
          3   -1    0    0  501    0  0.00000000000E+00 -0.00000000000E+00 -0.10361200541E+03  0.10361200541E+03  0.00000000000E+00 0. -1.
         23    2    1    2    0    0 -0.69545205387E+02 -0.37378491213E+02  0.69459303294E+02  0.16341984832E+03  0.12509102612E+03 0.  0.
          5    1    3    3  502    0 -0.99844905158E+02 -0.27893042331E+01  0.35438081737E+02  0.10606656090E+03  0.41800000000E+01 0.  1.
         -5    1    3    3    0  502  0.30299699770E+02 -0.34589186980E+02  0.34021221557E+02  0.57353287424E+02  0.41800000000E+01 0.  1.
        -11    1    1    2    0    0  0.31553601639E+02 -0.24763041797E+02  0.25187447354E+02  0.47362912913E+02  0.00000000000E+00 0.  1.
         11    1    1    2    0    0  0.37991603749E+02  0.62141533009E+02 -0.16424181558E+02  0.74663818681E+02  0.00000000000E+00 0. -1.
</event>
<event>
 7    1  0.1068210E-005  0.1176802E+03  0.7561462E-02  0.1246974E+00
         -3   -1    0    0    0  501 -0.00000000000E+00  0.00000000000E+00  0.20952733438E+03  0.20952733438E+03  0.00000000000E+00 0.  1.
          3   -1    0    0  501    0  0.00000000000E+00 -0.00000000000E+00 -0.11737001171E+03  0.11737001171E+03  0.00000000000E+00 0. -1.
         23    2    1    2    0    0 -0.37332493368E+02 -0.10388191180E+03  0.74293749917E+02  0.18262783797E+03  0.12509276265E+03 0.  0.
          5    1    3    3  502    0 -0.24413216610E+01 -0.29860686079E+01  0.75566275433E+02  0.75780017419E+02  0.41800000000E+01 0.  1.
         -5    1    3    3    0  502 -0.34891171707E+02 -0.10089584319E+03 -0.12725255158E+01  0.10684782055E+03  0.41800000000E+01 0.  1.
        -11    1    1    2    0    0  0.44575198688E+02  0.44413447133E+02 -0.27948983150E+02  0.68852365852E+02  0.00000000000E+00 0. -1.
         11    1    1    2    0    0 -0.72427053196E+01  0.59468464665E+02  0.45812555905E+02  0.75417142272E+02  0.00000000000E+00 0.  1.
</event>
<event>
 7    1  0.1167031E-005  0.1490807E+03  0.7561462E-02  0.1201607E+00
          1   -1    0    0  501    0  0.00000000000E+00  0.00000000000E+00  0.20282781522E+03  0.20282781522E+03  0.00000000000E+00 0. -1.
         -1   -1    0    0    0  501 -0.00000000000E+00 -0.00000000000E+00 -0.14744805935E+03  0.14744805935E+03  0.00000000000E+00 0.  1.
         23    2    1    2    0    0 -0.71564263278E+02 -0.99590313964E+02 -0.26198754504E+02  0.17712579758E+03  0.12508996369E+03 0.  0.
          5    1    3    3  502    0 -0.75047295929E+02 -0.21184790664E+02 -0.52669592341E+02  0.94193685240E+02  0.41800000000E+01 0.  1.
         -5    1    3    3    0  502  0.34830326513E+01 -0.78405523301E+02  0.26470837837E+02  0.82932112335E+02  0.41800000000E+01 0.  1.
        -11    1    1    2    0    0  0.51642784147E+02  0.13873429439E+02  0.47579314974E+00  0.53475934569E+02  0.00000000000E+00 0.  1.
         11    1    1    2    0    0  0.19921479131E+02  0.85716884525E+02  0.81102717228E+02  0.11967414243E+03  0.00000000000E+00 0. -1.
</event>
<event>
 7    1  0.1068210E-005  0.8637784E+02  0.7561462E-02  0.1311868E+00
          4   -1    0    0  501    0  0.00000000000E+00  0.00000000000E+00  0.14145076485E+03  0.14145076485E+03  0.00000000000E+00 0.  1.
         -4   -1    0    0    0  501 -0.00000000000E+00 -0.00000000000E+00 -0.10364643395E+03  0.10364643395E+03  0.00000000000E+00 0. -1.
         23    2    1    2    0    0 -0.28461980934E+01 -0.43152122560E+02 -0.44363242917E+01  0.13243078141E+03  0.12509206356E+03 0.  0.
          5    1    3    3  502    0 -0.27625268529E+02 -0.28044185798E+02 -0.58671277025E+02  0.70777277188E+02  0.41800000000E+01 0.  1.
         -5    1    3    3    0  502  0.24779070435E+02 -0.15107936762E+02  0.54234952734E+02  0.61653504222E+02  0.41800000000E+01 0.  1.
        -11    1    1    2    0    0  0.48333024130E+02  0.28244024690E+02  0.28764365102E+02  0.62938023896E+02  0.00000000000E+00 0.  1.
         11    1    1    2    0    0 -0.45486826037E+02  0.14908097870E+02  0.13476290091E+02  0.49728393495E+02  0.00000000000E+00 0. -1.
</event>
<event>
 7    1  0.1068210E-005  0.8985886E+02  0.7561462E-02  0.1303194E+00
          1   -1    0    0  501    0  0.00000000000E+00  0.00000000000E+00  0.44477548752E+03  0.44477548752E+03  0.00000000000E+00 0. -1.
         -1   -1    0    0    0  501 -0.00000000000E+00 -0.00000000000E+00 -0.31218490623E+02  0.31218490623E+02  0.00000000000E+00 0.  1.
         23    2    1    2    0    0 -0.19791513662E+02 -0.54020276435E+02  0.16590994932E+03  0.21561351636E+03  0.12511268071E+03 0.  0.
          5    1    3    3  502    0 -0.24417284966E+02 -0.74535941350E+02  0.40476927274E+02  0.88360989128E+02  0.41800000000E+01 0.  1.
         -5    1    3    3    0  502  0.46257713047E+01  0.20515664915E+02  0.12543302204E+03  0.12725252723E+03  0.41800000000E+01 0.  1.
        -11    1    1    2    0    0 -0.89387131718E+01  0.49914709317E+02  0.14043078686E+03  0.14930567537E+03  0.00000000000E+00 0. -1.
         11    1    1    2    0    0  0.28730226833E+02  0.41055671178E+01  0.10721626072E+03  0.11107478642E+03  0.00000000000E+00 0.  1.
</event>
<event>
 7    1  0.1068210E-005  0.1032741E+03  0.7561462E-02  0.1273558E+00
          2   -1    0    0  501    0  0.00000000000E+00  0.00000000000E+00  0.29721905022E+02  0.29721905022E+02  0.00000000000E+00 0. -1.
         -2   -1    0    0    0  501 -0.00000000000E+00 -0.00000000000E+00 -0.60178606393E+03  0.60178606393E+03  0.00000000000E+00 0.  1.
         23    2    1    2    0    0 -0.48664942200E+02  0.53242774566E+02 -0.38395942287E+03  0.41021250096E+03  0.12508552231E+03 0.  0.
          5    1    3    3  502    0 -0.59052953180E+02  0.52327774417E+02 -0.38967686875E+03  0.39760656646E+03  0.41800000000E+01 0.  1.
         -5    1    3    3    0  502  0.10388010980E+02  0.91500014895E+00  0.57174458753E+01  0.12605934504E+02  0.41800000000E+01 0.  1.
        -11    1    1    2    0    0  0.53210663222E+02  0.89367165322E+01 -0.79826695106E+02  0.96351133021E+02  0.00000000000E+00 0.  1.
         11    1    1    2    0    0 -0.45457210219E+01 -0.62179491098E+02 -0.10827804094E+03  0.12494433497E+03  0.00000000000E+00 0. -1.
</event>
<event>
 7    1  0.1068210E-005  0.9030063E+02  0.7561462E-02  0.1302125E+00
          2   -1    0    0  501    0  0.00000000000E+00  0.00000000000E+00  0.86993009615E+02  0.86993009615E+02  0.00000000000E+00 0. -1.
         -2   -1    0    0    0  501 -0.00000000000E+00 -0.00000000000E+00 -0.12867223423E+03  0.12867223423E+03  0.00000000000E+00 0.  1.
         23    2    1    2    0    0  0.39396661828E+02 -0.52101922464E+02 -0.23568477582E+02  0.13167467715E+03  0.11187510975E+03 0.  0.
          5    1    3    3  502    0 -0.74222973344E+01 -0.62528757338E+02  0.20552458096E+02  0.66368757150E+02  0.41800000000E+01 0. -1.
         -5    1    3    3    0  502  0.46818959163E+02  0.10426834873E+02 -0.44120935678E+02  0.65305920004E+02  0.41800000000E+01 0.  1.
        -11    1    1    2    0    0  0.14431578294E+01  0.12081573559E+02 -0.23595943336E+02  0.26548364660E+02  0.00000000000E+00 0. -1.
         11    1    1    2    0    0 -0.40839819658E+02  0.40020348905E+02  0.54851962990E+01  0.57442202035E+02  0.00000000000E+00 0.  1.
</event>
<event>
 7    1  0.1068210E-005  0.1120080E+03  0.7561462E-02  0.1256896E+00
         -2   -1    0    0    0  501 -0.00000000000E+00  0.00000000000E+00  0.18617343007E+03  0.18617343007E+03  0.00000000000E+00 0.  1.
          2   -1    0    0  501    0  0.00000000000E+00 -0.00000000000E+00 -0.15558702444E+03  0.15558702444E+03  0.00000000000E+00 0. -1.
         23    2    1    2    0    0  0.71471726011E+02  0.72185047220E+02  0.96135934124E+02  0.18764047356E+03  0.12509172966E+03 0.  0.
          5    1    3    3  502    0  0.45934679245E+02  0.65211125172E+02  0.12494425169E+03  0.14829370868E+03  0.41800000000E+01 0.  1.
         -5    1    3    3    0  502  0.25537046766E+02  0.69739220480E+01 -0.28808317563E+02  0.39346764887E+02  0.41800000000E+01 0.  1.
        -11    1    1    2    0    0  0.80508965914E+01 -0.21703468172E+02  0.17122334010E+02  0.28792912123E+02  0.00000000000E+00 0.  1.
         11    1    1    2    0    0 -0.79522622603E+02 -0.50481579048E+02 -0.82671862512E+02  0.12532706882E+03  0.00000000000E+00 0. -1.
</event>
<event>
 7    1  0.1068210E-005  0.9079136E+02  0.7561462E-02  0.1300947E+00
         -1   -1    0    0    0  501 -0.00000000000E+00  0.00000000000E+00  0.14230912835E+03  0.14230912835E+03  0.00000000000E+00 0.  1.
          1   -1    0    0  501    0  0.00000000000E+00 -0.00000000000E+00 -0.13772585931E+03  0.13772585931E+03  0.00000000000E+00 0. -1.
         23    2    1    2    0    0 -0.54771017773E+02  0.15942566433E+02  0.66820186470E+02  0.15287112252E+03  0.12510240992E+03 0.  0.
          5    1    3    3  502    0 -0.33283586358E+02 -0.44292493047E+02  0.69190536619E+02  0.88737955908E+02  0.41800000000E+01 0. -1.
         -5    1    3    3    0  502 -0.21487431415E+02  0.60235059480E+02 -0.23703501494E+01  0.64133166608E+02  0.41800000000E+01 0. -1.
        -11    1    1    2    0    0  0.46969592478E+02 -0.33121611927E+01  0.14292686950E+02  0.49207661289E+02  0.00000000000E+00 0.  1.
         11    1    1    2    0    0  0.78014252952E+01 -0.12630405241E+02 -0.76529604377E+02  0.77956203853E+02  0.00000000000E+00 0. -1.
</event>
<event>
 7    1  0.1068210E-005  0.1152006E+03  0.7561462E-02  0.1251231E+00
          1   -1    0    0  501    0  0.00000000000E+00  0.00000000000E+00  0.85767907937E+02  0.85767907937E+02  0.00000000000E+00 0. -1.
         -1   -1    0    0    0  501 -0.00000000000E+00 -0.00000000000E+00 -0.22361218083E+03  0.22361218083E+03  0.00000000000E+00 0.  1.
         23    2    1    2    0    0  0.32804828278E+02  0.69094366830E+02 -0.11718156034E+03  0.18769450910E+03  0.12509005707E+03 0.  0.
          5    1    3    3  502    0 -0.99993084668E+01  0.90416389874E+02 -0.10333525506E+03  0.13773437140E+03  0.41800000000E+01 0. -1.
         -5    1    3    3    0  502  0.42804136745E+02 -0.21322023043E+02 -0.13846305280E+02  0.49960137701E+02  0.41800000000E+01 0. -1.
        -11    1    1    2    0    0 -0.38434504642E+02 -0.22777704891E+02 -0.49622250112E+02  0.66771271467E+02  0.00000000000E+00 0. -1.
         11    1    1    2    0    0  0.56296763631E+01 -0.46316661940E+02  0.28959537558E+02  0.54914308197E+02  0.00000000000E+00 0.  1.
</event>
<event>
 7    1  0.1068210E-005  0.1041278E+03  0.7561462E-02  0.1271848E+00
         -1   -1    0    0    0  501 -0.00000000000E+00  0.00000000000E+00  0.20897906455E+03  0.20897906455E+03  0.00000000000E+00 0.  1.
          1   -1    0    0  501    0  0.00000000000E+00 -0.00000000000E+00 -0.10040033496E+03  0.10040033496E+03  0.00000000000E+00 0. -1.
         23    2    1    2    0    0 -0.18413734899E+02  0.66452126489E+02  0.13353620050E+03  0.19553646422E+03  0.12509053220E+03 0.  0.
          5    1    3    3  502    0  0.13765034812E+02 -0.23658384711E+02  0.82478142742E+02  0.87001791825E+02  0.41800000000E+01 0.  1.
         -5    1    3    3    0  502 -0.32178769711E+02  0.90110511201E+02  0.51058057759E+02  0.10853467239E+03  0.41800000000E+01 0.  1.
        -11    1    1    2    0    0  0.32875637084E+02 -0.26256784596E+02  0.24343939157E+02  0.48609192799E+02  0.00000000000E+00 0.  1.
         11    1    1    2    0    0 -0.14461902184E+02 -0.40195341894E+02 -0.49301410072E+02  0.65233742494E+02  0.00000000000E+00 0. -1.
</event>
<event>
 7    1  0.1068210E-005  0.1240607E+03  0.7561462E-02  0.1236545E+00
          2   -1    0    0  501    0  0.00000000000E+00  0.00000000000E+00  0.41770865780E+03  0.41770865780E+03  0.00000000000E+00 0. -1.
         -2   -1    0    0    0  501 -0.00000000000E+00 -0.00000000000E+00 -0.43929439157E+02  0.43929439157E+02  0.00000000000E+00 0.  1.
         23    2    1    2    0    0  0.71487606627E+02 -0.33735897009E+02  0.20087143027E+03  0.24949248114E+03  0.12509427645E+03 0.  0.
          5    1    3    3  502    0  0.98644379560E+02 -0.32803973779E+02  0.97704074724E+02  0.14272481540E+03  0.41800000000E+01 0.  1.
         -5    1    3    3    0  502 -0.27156772933E+02 -0.93192322971E+00  0.10316735554E+03  0.10676766574E+03  0.41800000000E+01 0.  1.
        -11    1    1    2    0    0 -0.26334890235E+02  0.59169919818E+02  0.61678951062E+02  0.89436563323E+02  0.00000000000E+00 0.  1.
         11    1    1    2    0    0 -0.45152716392E+02 -0.25434022809E+02  0.11122883731E+03  0.12270905249E+03  0.00000000000E+00 0. -1.
</event>
<event>
 7    1  0.1068210E-005  0.1113080E+03  0.7561462E-02  0.1258167E+00
         -1   -1    0    0    0  501 -0.00000000000E+00  0.00000000000E+00  0.36245350046E+03  0.36245350046E+03  0.00000000000E+00 0.  1.
          1   -1    0    0  501    0  0.00000000000E+00 -0.00000000000E+00 -0.52398177061E+02  0.52398177061E+02  0.00000000000E+00 0. -1.
         23    2    1    2    0    0  0.32682788392E+02  0.62242837970E+02  0.24035384405E+03  0.27992845522E+03  0.12509050386E+03 0.  0.
          5    1    3    3  502    0  0.41602354056E+02 -0.20262851632E+02  0.34300402932E+02  0.57752307837E+02  0.41800000000E+01 0. -1.
         -5    1    3    3    0  502 -0.89195656638E+01  0.82505689602E+02  0.20605344112E+03  0.22217614738E+03  0.41800000000E+01 0. -1.
        -11    1    1    2    0    0 -0.17803037530E+02 -0.72717134270E+02  0.13788745009E+02  0.76123972904E+02  0.00000000000E+00 0. -1.
         11    1    1    2    0    0 -0.14879750862E+02  0.10474296300E+02  0.55912734335E+02  0.58799249395E+02  0.00000000000E+00 0.  1.
</event>
<event>
 6    1  0.1068210E-005  0.8394374E+02  0.7561462E-02  0.1318218E+00
          1   -1    0    0  501    0  0.00000000000E+00  0.00000000000E+00  0.14204959743E+03  0.14204959743E+03  0.00000000000E+00 0. -1.
         -1   -1    0    0    0  501 -0.00000000000E+00 -0.00000000000E+00 -0.11002165375E+03  0.11002165375E+03  0.00000000000E+00 0.  1.
          5    1    1    2  502    0  0.38038091003E+01  0.56778822929E+02  0.75017681055E+02  0.94251941984E+02  0.41800000000E+01 0. -1.
         -5    1    1    2    0  502 -0.14562030116E+01 -0.61077271605E+01 -0.51601871069E+02  0.52150267076E+02  0.41800000000E+01 0.  1.
        -11    1    1    2    0    0  0.92088348278E+01 -0.75415172110E+02  0.15418192081E+02  0.77524005768E+02  0.00000000000E+00 0.  1.
         11    1    1    2    0    0 -0.11556440916E+02  0.24744076341E+02 -0.68060583861E+01  0.28145036354E+02  0.00000000000E+00 0. -1.
</event>
<event>
 7    1  0.1068210E-005  0.1299912E+03  0.7561462E-02  0.1227469E+00
          1   -1    0    0  501    0  0.00000000000E+00  0.00000000000E+00  0.69087138208E+03  0.69087138208E+03  0.00000000000E+00 0. -1.
         -1   -1    0    0    0  501 -0.00000000000E+00 -0.00000000000E+00 -0.26867929010E+02  0.26867929010E+02  0.00000000000E+00 0.  1.
         23    2    1    2    0    0 -0.84287299636E+02  0.50050144097E+01  0.37308477792E+03  0.40245328891E+03  0.12508796583E+03 0.  0.
          5    1    3    3  502    0  0.26456828264E+02 -0.62601826684E+01  0.15652385759E+03  0.15892244663E+03  0.41800000000E+01 0. -1.
         -5    1    3    3    0  502 -0.11074412790E+03  0.11265197078E+02  0.21656092033E+03  0.24353084228E+03  0.41800000000E+01 0. -1.
        -11    1    1    2    0    0  0.22103304758E+02 -0.42900914786E+02  0.10279929488E+03  0.11356381289E+03  0.00000000000E+00 0.  1.
         11    1    1    2    0    0  0.62183994878E+02  0.37895900376E+02  0.18811938028E+03  0.20172220929E+03  0.00000000000E+00 0. -1.
</event>
<event>
 7    1  0.1068210E-005  0.1146891E+03  0.7561462E-02  0.1252125E+00
          1   -1    0    0  501    0  0.00000000000E+00  0.00000000000E+00  0.15112389705E+03  0.15112389705E+03  0.00000000000E+00 0. -1.
         -1   -1    0    0    0  501 -0.00000000000E+00 -0.00000000000E+00 -0.10285340108E+03  0.10285340108E+03  0.00000000000E+00 0.  1.
         23    2    1    2    0    0  0.43073531055E+02 -0.51631561901E+01 -0.17567482959E+02  0.13356317090E+03  0.12509403224E+03 0.  0.
          5    1    3    3  502    0  0.49288829417E+02 -0.59014404202E+02 -0.18463045940E+02  0.79186141931E+02  0.41800000000E+01 0.  1.
         -5    1    3    3    0  502 -0.62152983622E+01  0.53851248011E+02  0.89556298099E+00  0.54377028966E+02  0.41800000000E+01 0.  1.
        -11    1    1    2    0    0 -0.41941373223E+02 -0.36938143253E+02  0.23291255233E+02  0.60547401142E+02  0.00000000000E+00 0.  1.
         11    1    1    2    0    0 -0.11321578322E+01  0.42101299443E+02  0.42546723689E+02  0.59866726090E+02  0.00000000000E+00 0. -1.
</event>
<event>
 7    1  0.1068210E-005  0.1020705E+03  0.7561462E-02  0.1276001E+00
         -2   -1    0    0    0  501 -0.00000000000E+00  0.00000000000E+00  0.37236848817E+02  0.37236848817E+02  0.00000000000E+00 0.  1.
          2   -1    0    0  501    0  0.00000000000E+00 -0.00000000000E+00 -0.43391898137E+03  0.43391898137E+03  0.00000000000E+00 0. -1.
         23    2    1    2    0    0  0.16749224866E+02  0.61591553593E+02 -0.17923600989E+03  0.22770176014E+03  0.12509391801E+03 0.  0.
          5    1    3    3  502    0  0.24925868168E+01  0.86877828676E+02 -0.17825334857E+03  0.19835750246E+03  0.41800000000E+01 0.  1.
         -5    1    3    3    0  502  0.14256638049E+02 -0.25286275083E+02 -0.98266132189E+00  0.29344257689E+02  0.41800000000E+01 0.  1.
        -11    1    1    2    0    0  0.21944986106E+02 -0.33236922047E+02 -0.17475968141E+03  0.17924068079E+03  0.00000000000E+00 0. -1.
         11    1    1    2    0    0 -0.38694210972E+02 -0.28354631546E+02 -0.42686441250E+02  0.64213389253E+02  0.00000000000E+00 0.  1.
</event>
<event>
 7    1  0.1068210E-005  0.1589778E+03  0.7561462E-02  0.1189856E+00
         -1   -1    0    0    0  501 -0.00000000000E+00  0.00000000000E+00  0.10306771697E+04  0.10306771697E+04  0.00000000000E+00 0.  1.
          1   -1    0    0  501    0  0.00000000000E+00 -0.00000000000E+00 -0.31682256942E+02  0.31682256942E+02  0.00000000000E+00 0. -1.
         23    2    1    2    0    0  0.35023170281E+02  0.12489081838E+03  0.71029989851E+03  0.73280134266E+03  0.12509005963E+03 0.  0.
          5    1    3    3  502    0  0.58007385961E+02  0.84016875701E+01  0.17973179132E+03  0.18909371854E+03  0.41800000000E+01 0. -1.
         -5    1    3    3    0  502 -0.22984215679E+02  0.11648913081E+03  0.53056810718E+03  0.54370762412E+03  0.41800000000E+01 0. -1.
        -11    1    1    2    0    0 -0.24179443744E+02 -0.12033327263E+02  0.13993817553E+03  0.14252066318E+03  0.00000000000E+00 0.  1.
         11    1    1    2    0    0 -0.10843726538E+02 -0.11285749112E+03  0.14875683868E+03  0.18703742074E+03  0.00000000000E+00 0. -1.
</event>
<event>
 7    1  0.1068210E-005  0.1326197E+03  0.7561462E-02  0.1223620E+00
         -1   -1    0    0    0  501 -0.00000000000E+00  0.00000000000E+00  0.16400339648E+03  0.16400339648E+03  0.00000000000E+00 0.  1.
          1   -1    0    0  501    0  0.00000000000E+00 -0.00000000000E+00 -0.13650770146E+03  0.13650770146E+03  0.00000000000E+00 0. -1.
         23    2    1    2    0    0 -0.11877431907E+02  0.97895942969E+02  0.41070043146E+02  0.16449497153E+03  0.12508860130E+03 0.  0.
          5    1    3    3  502    0 -0.60053295826E+02  0.27830551389E+02  0.43524425957E+02  0.79327082293E+02  0.41800000000E+01 0. -1.
         -5    1    3    3    0  502  0.48175863919E+02  0.70065391580E+02 -0.24543828111E+01  0.85167889234E+02  0.41800000000E+01 0. -1.
        -11    1    1    2    0    0 -0.12956084601E+02 -0.84660175507E+02  0.24118886813E+02  0.88977110237E+02  0.00000000000E+00 0.  1.
         11    1    1    2    0    0  0.24833516508E+02 -0.13235767462E+02 -0.37693234937E+02  0.47039016173E+02  0.00000000000E+00 0. -1.
</event>
<event>
 7    1  0.1068210E-005  0.1136576E+03  0.7561462E-02  0.1253943E+00
          2   -1    0    0  501    0  0.00000000000E+00  0.00000000000E+00  0.98044668542E+02  0.98044668542E+02  0.00000000000E+00 0. -1.
         -2   -1    0    0    0  501 -0.00000000000E+00 -0.00000000000E+00 -0.16403454510E+03  0.16403454510E+03  0.00000000000E+00 0.  1.
         23    2    1    2    0    0  0.61878289159E+02  0.94566016375E+01 -0.37744994621E+02  0.14488206352E+03  0.12509107773E+03 0.  0.
          5    1    3    3  502    0  0.20625682417E+02 -0.42357617082E+02  0.25047916570E+02  0.53520622423E+02  0.41800000000E+01 0. -1.
         -5    1    3    3    0  502  0.41252606742E+02  0.51814218719E+02 -0.62792911190E+02  0.91361441102E+02  0.41800000000E+01 0. -1.
        -11    1    1    2    0    0 -0.18337806596E+02 -0.50557202817E+02 -0.15659415622E+02  0.56013598394E+02  0.00000000000E+00 0.  1.
         11    1    1    2    0    0 -0.43540482564E+02  0.41100601180E+02 -0.12585466317E+02  0.61183551725E+02  0.00000000000E+00 0. -1.
</event>
<event>
 7    1  0.1068210E-005  0.1061152E+03  0.7561462E-02  0.1267938E+00
         -2   -1    0    0    0  501 -0.00000000000E+00  0.00000000000E+00  0.69903133073E+03  0.69903133073E+03  0.00000000000E+00 0.  1.
          2   -1    0    0  501    0  0.00000000000E+00 -0.00000000000E+00 -0.29321536932E+02  0.29321536932E+02  0.00000000000E+00 0. -1.
         23    2    1    2    0    0 -0.43882035708E+02 -0.54336026780E+01  0.58130539067E+03  0.59514064952E+03  0.11967154376E+03 0.  0.
          5    1    3    3  502    0 -0.21246136118E+02  0.49330871312E+02  0.14270735437E+03  0.15253784630E+03  0.41800000000E+01 0. -1.
         -5    1    3    3    0  502 -0.22635899590E+02 -0.54764473990E+02  0.43859803631E+03  0.44260280321E+03  0.41800000000E+01 0.  1.
        -11    1    1    2    0    0  0.64837880630E+02 -0.18220483008E+02  0.52595687215E+02  0.85453163074E+02  0.00000000000E+00 0. -1.
         11    1    1    2    0    0 -0.20955844922E+02  0.23654085686E+02  0.35808715904E+02  0.47759055065E+02  0.00000000000E+00 0.  1.
</event>
<event>
 7    1  0.1068210E-005  0.1731212E+03  0.7561462E-02  0.1174631E+00
          2   -1    0    0  501    0  0.00000000000E+00  0.00000000000E+00  0.50964896642E+03  0.50964896642E+03  0.00000000000E+00 0.  1.
         -2   -1    0    0    0  501 -0.00000000000E+00 -0.00000000000E+00 -0.66058221860E+03  0.66058221860E+03  0.00000000000E+00 0. -1.
         23    2    1    2    0    0 -0.15481722228E+03 -0.67634589986E+02 -0.62453002679E+03  0.65895829489E+03  0.12508185306E+03 0.  0.
          5    1    3    3  502    0 -0.98445269517E+02 -0.31247122579E+02 -0.54548092597E+03  0.55518894690E+03  0.41800000000E+01 0. -1.
         -5    1    3    3    0  502 -0.56371952761E+02 -0.36387467406E+02 -0.79049100818E+02  0.10376934799E+03  0.41800000000E+01 0. -1.
        -11    1    1    2    0    0  0.81157935491E+02  0.61316658370E+02  0.16409159968E+03  0.19306060233E+03  0.00000000000E+00 0. -1.
         11    1    1    2    0    0  0.73659286787E+02  0.63179316158E+01  0.30950517494E+03  0.31821228780E+03  0.00000000000E+00 0.  1.
</event>
<event>
 7    1  0.1068210E-005  0.8688594E+02  0.7561462E-02  0.1310573E+00
         -4   -1    0    0    0  501 -0.00000000000E+00  0.00000000000E+00  0.18345978963E+03  0.18345978963E+03  0.00000000000E+00 0.  1.
          4   -1    0    0  501    0  0.00000000000E+00 -0.00000000000E+00 -0.10314676723E+03  0.10314676723E+03  0.00000000000E+00 0. -1.
         23    2    1    2    0    0 -0.74903401709E+01  0.63717862001E+02  0.98746922637E+02  0.17219197869E+03  0.12563061594E+03 0.  0.
          5    1    3    3  502    0 -0.88383332989E+01  0.95099273675E+01  0.11470535491E+03  0.11551340052E+03  0.41800000000E+01 0. -1.
         -5    1    3    3    0  502  0.13479931280E+01  0.54207934634E+02 -0.15958432275E+02  0.56678578170E+02  0.41800000000E+01 0.  1.
        -11    1    1    2    0    0  0.45027761979E+02 -0.45531996477E+02 -0.30591284590E+02  0.70968223487E+02  0.00000000000E+00 0. -1.
         11    1    1    2    0    0 -0.37537421808E+02 -0.18185865524E+02  0.12157384352E+02  0.43446354682E+02  0.00000000000E+00 0.  1.
</event>
<event>
 7    1  0.1068210E-005  0.1278535E+03  0.7561462E-02  0.1230676E+00
          1   -1    0    0  501    0  0.00000000000E+00  0.00000000000E+00  0.19266005156E+03  0.19266005156E+03  0.00000000000E+00 0. -1.
         -1   -1    0    0    0  501 -0.00000000000E+00 -0.00000000000E+00 -0.11216293778E+03  0.11216293778E+03  0.00000000000E+00 0.  1.
         23    2    1    2    0    0 -0.28939058760E+02 -0.68082912374E+02 -0.19520445417E+02  0.14664155933E+03  0.12509974842E+03 0.  0.
          5    1    3    3  502    0  0.47875170077E+02 -0.37232094670E+02 -0.19216886574E+02  0.63757524364E+02  0.41800000000E+01 0. -1.
         -5    1    3    3    0  502 -0.76814228837E+02 -0.30850817704E+02 -0.30355884333E+00  0.82884034969E+02  0.41800000000E+01 0. -1.
        -11    1    1    2    0    0  0.38493041850E+02 -0.45601786970E+01  0.63775390069E+01  0.39283361674E+02  0.00000000000E+00 0.  1.
         11    1    1    2    0    0 -0.95539830902E+01  0.72643091071E+02  0.93640020186E+02  0.11889806833E+03  0.00000000000E+00 0. -1.
</event>
<event>
 7    1  0.1068210E-005  0.1038431E+03  0.7561462E-02  0.1272416E+00
         -1   -1    0    0    0  501 -0.00000000000E+00  0.00000000000E+00  0.28234574615E+03  0.28234574615E+03  0.00000000000E+00 0.  1.
          1   -1    0    0  501    0  0.00000000000E+00 -0.00000000000E+00 -0.58745813509E+02  0.58745813509E+02  0.00000000000E+00 0. -1.
         23    2    1    2    0    0  0.64088647673E+02  0.21545274596E+02  0.14829015541E+03  0.20544772556E+03  0.12508894487E+03 0.  0.
          5    1    3    3  502    0  0.92362279511E+02  0.45227669646E+02  0.92170556452E+02  0.13816373133E+03  0.41800000000E+01 0.  1.
         -5    1    3    3    0  502 -0.28273631837E+02 -0.23682395050E+02  0.56119598958E+02  0.67283994232E+02  0.41800000000E+01 0.  1.
        -11    1    1    2    0    0 -0.47337834012E+02 -0.16825583096E+02  0.96155262390E+02  0.10848873334E+03  0.00000000000E+00 0.  1.
         11    1    1    2    0    0 -0.16750813661E+02 -0.47196914998E+01 -0.20845485157E+02  0.27155100765E+02  0.00000000000E+00 0. -1.
</event>
<event>
 7    1  0.1068210E-005  0.1499794E+03  0.7561462E-02  0.1200498E+00
         -3   -1    0    0    0  501 -0.00000000000E+00  0.00000000000E+00  0.32630445961E+02  0.32630445961E+02  0.00000000000E+00 0.  1.
          3   -1    0    0  501    0  0.00000000000E+00 -0.00000000000E+00 -0.10151846251E+04  0.10151846251E+04  0.00000000000E+00 0. -1.
         23    2    1    2    0    0  0.77710254208E+02 -0.94795568563E+02 -0.29432767355E+03  0.34249184131E+03  0.12508716368E+03 0.  0.
          5    1    3    3  502    0  0.31934761281E+02  0.78402033142E+01 -0.69154489245E+01  0.33861388039E+02  0.41800000000E+01 0.  1.
         -5    1    3    3    0  502  0.45775492927E+02 -0.10263577188E+03 -0.28741222462E+03  0.30863045327E+03  0.41800000000E+01 0.  1.
        -11    1    1    2    0    0 -0.18525649272E+02 -0.18718318307E+02 -0.11865092140E+03  0.12153853821E+03  0.00000000000E+00 0.  1.
         11    1    1    2    0    0 -0.59184604936E+02  0.11351388687E+03 -0.56957558418E+03  0.58378469153E+03  0.00000000000E+00 0. -1.
</event>
<event>
 7    1  0.1068210E-005  0.7407219E+02  0.7561462E-02  0.1346768E+00
         -1   -1    0    0    0  501 -0.00000000000E+00  0.00000000000E+00  0.62795861324E+02  0.62795861324E+02  0.00000000000E+00 0.  1.
          1   -1    0    0  501    0  0.00000000000E+00 -0.00000000000E+00 -0.18737938318E+03  0.18737938318E+03  0.00000000000E+00 0. -1.
         23    2    1    2    0    0  0.69945714254E+01  0.10782552098E+02 -0.64371088659E+02  0.14126526114E+03  0.12508816687E+03 0.  0.
          5    1    3    3  502    0  0.24775045913E+02  0.33503881370E+02 -0.92010715688E+02  0.10109281462E+03  0.41800000000E+01 0.  1.
         -5    1    3    3    0  502 -0.17780474488E+02 -0.22721329272E+02  0.27639627030E+02  0.40172446518E+02  0.41800000000E+01 0.  1.
        -11    1    1    2    0    0 -0.38480087938E+02 -0.21219828366E+02 -0.46354830537E+01  0.44186943623E+02  0.00000000000E+00 0.  1.
         11    1    1    2    0    0  0.31485516513E+02  0.10437276267E+02 -0.55576950144E+02  0.64723039740E+02  0.00000000000E+00 0. -1.
</event>
<event>
 7    1  0.1068210E-005  0.1108430E+03  0.7561462E-02  0.1259017E+00
         -2   -1    0    0    0  501 -0.00000000000E+00  0.00000000000E+00  0.58366913652E+02  0.58366913652E+02  0.00000000000E+00 0.  1.
          2   -1    0    0  501    0  0.00000000000E+00 -0.00000000000E+00 -0.21866674552E+03  0.21866674552E+03  0.00000000000E+00 0. -1.
         23    2    1    2    0    0 -0.24299299515E+02  0.26419685977E+02 -0.94696384862E+02  0.16094400953E+03  0.12508842126E+03 0.  0.
          5    1    3    3  502    0  0.13154346405E+02  0.68733268629E+02 -0.70205504121E+02  0.99214838883E+02  0.41800000000E+01 0. -1.
         -5    1    3    3    0  502 -0.37453645920E+02 -0.42313582652E+02 -0.24490880741E+02  0.61729170649E+02  0.41800000000E+01 0. -1.
        -11    1    1    2    0    0 -0.31850255897E+02  0.21402172112E+01 -0.29588107918E+02  0.43525572490E+02  0.00000000000E+00 0. -1.
         11    1    1    2    0    0  0.56149555412E+02 -0.28559903188E+02 -0.36015339088E+02  0.72564077150E+02  0.00000000000E+00 0.  1.
</event>
<event>
 7    1  0.1068210E-005  0.1444763E+03  0.7561462E-02  0.1207430E+00
          2   -1    0    0  501    0  0.00000000000E+00  0.00000000000E+00  0.70743114645E+02  0.70743114645E+02  0.00000000000E+00 0. -1.
         -2   -1    0    0    0  501 -0.00000000000E+00 -0.00000000000E+00 -0.34506152715E+03  0.34506152715E+03  0.00000000000E+00 0.  1.
         23    2    1    2    0    0 -0.95962122274E+02  0.32878777327E+02 -0.20979087048E+03  0.26448021647E+03  0.12509129729E+03 0.  0.
          5    1    3    3  502    0 -0.12308581425E+03  0.44844766717E+02 -0.17317645854E+03  0.21718362960E+03  0.41800000000E+01 0. -1.
         -5    1    3    3    0  502  0.27123691975E+02 -0.11965989390E+02 -0.36614411935E+02  0.47296586873E+02  0.41800000000E+01 0. -1.
        -11    1    1    2    0    0  0.10720264068E+03 -0.40243970632E+02 -0.72661519248E+02  0.13561592724E+03  0.00000000000E+00 0.  1.
         11    1    1    2    0    0 -0.11240518406E+02  0.73651933048E+01  0.81339772284E+01  0.15708498082E+02  0.00000000000E+00 0. -1.
</event>
<event>
 6    1  0.1068210E-005  0.9430057E+02  0.7561462E-02  0.1292759E+00
         -3   -1    0    0    0  501 -0.00000000000E+00  0.00000000000E+00  0.27438421758E+03  0.27438421758E+03  0.00000000000E+00 0.  1.
          3   -1    0    0  501    0  0.00000000000E+00 -0.00000000000E+00 -0.18021036624E+03  0.18021036624E+03  0.00000000000E+00 0. -1.
          5    1    1    2  502    0 -0.79877044637E+01  0.15182214092E+02 -0.25600817053E+02  0.31099473968E+02  0.41800000000E+01 0. -1.
         -5    1    1    2    0  502 -0.17148582588E+00  0.75313389147E+02  0.23695056738E+03  0.24866680473E+03  0.41800000000E+01 0.  1.
        -11    1    1    2    0    0 -0.84234436003E+01 -0.89129202166E+01  0.14532139662E+02  0.19015194767E+02  0.00000000000E+00 0.  1.
         11    1    1    2    0    0  0.16582633890E+02 -0.81582683022E+02 -0.13170803864E+03  0.15581311036E+03  0.00000000000E+00 0. -1.
</event>
<event>
 7    1  0.1068210E-005  0.1177989E+03  0.7561462E-02  0.1246773E+00
          1   -1    0    0  501    0  0.00000000000E+00  0.00000000000E+00  0.39672012150E+02  0.39672012150E+02  0.00000000000E+00 0. -1.
         -1   -1    0    0    0  501 -0.00000000000E+00 -0.00000000000E+00 -0.94495605740E+03  0.94495605740E+03  0.00000000000E+00 0.  1.
         23    2    1    2    0    0 -0.34481519030E+02 -0.68068645029E+02 -0.83338825314E+03  0.84617153527E+03  0.12509185044E+03 0.  0.
          5    1    3    3  502    0 -0.47213515953E+02  0.21569418895E+02 -0.40246767737E+03  0.40582269484E+03  0.41800000000E+01 0. -1.
         -5    1    3    3    0  502  0.12731996923E+02 -0.89638063924E+02 -0.43092057577E+03  0.44034884044E+03  0.41800000000E+01 0. -1.
        -11    1    1    2    0    0  0.16905174925E+02 -0.50846212892E+01 -0.59679920191E+02  0.62236092317E+02  0.00000000000E+00 0.  1.
         11    1    1    2    0    0  0.17576344106E+02  0.73153266319E+02 -0.12215871916E+02  0.76220441955E+02  0.00000000000E+00 0. -1.
</event>
<event>
 7    1  0.1068210E-005  0.1758566E+03  0.7561462E-02  0.1171874E+00
          2   -1    0    0  501    0  0.00000000000E+00  0.00000000000E+00  0.82829204797E+03  0.82829204797E+03  0.00000000000E+00 0.  1.
         -2   -1    0    0    0  501 -0.00000000000E+00 -0.00000000000E+00 -0.40713133578E+02  0.40713133578E+02  0.00000000000E+00 0. -1.
         23    2    1    2    0    0  0.76272602984E+02 -0.12584521273E+03  0.38304099838E+03  0.42897861028E+03  0.12509082344E+03 0.  0.
          5    1    3    3  502    0  0.98102460685E+02 -0.12749728623E+03  0.36918723567E+03  0.40273606515E+03  0.41800000000E+01 0.  1.
         -5    1    3    3    0  502 -0.21829857701E+02  0.16520734987E+01  0.13853762707E+02  0.26242545137E+02  0.41800000000E+01 0.  1.
        -11    1    1    2    0    0 -0.15657638030E+02  0.10226964412E+03  0.29522048204E+03  0.31282483078E+03  0.00000000000E+00 0.  1.
         11    1    1    2    0    0 -0.60614964953E+02  0.23575568614E+02  0.10931743398E+03  0.12720174049E+03  0.00000000000E+00 0. -1.
</event>
<event>
 7    1  0.1068210E-005  0.1634301E+03  0.7561462E-02  0.1184878E+00
         -2   -1    0    0    0  501 -0.00000000000E+00  0.00000000000E+00  0.81756248238E+02  0.81756248238E+02  0.00000000000E+00 0.  1.
          2   -1    0    0  501    0  0.00000000000E+00 -0.00000000000E+00 -0.42076352968E+03  0.42076352968E+03  0.00000000000E+00 0. -1.
         23    2    1    2    0    0  0.13232288154E+03 -0.35555022126E+02 -0.96428366243E+02  0.20909042100E+03  0.12508744846E+03 0.  0.
          5    1    3    3  502    0  0.35451401647E+01  0.26126475377E+02  0.12472621727E+02  0.29465224030E+02  0.41800000000E+01 0. -1.
         -5    1    3    3    0  502  0.12877774137E+03 -0.61681497503E+02 -0.10890098797E+03  0.17962519697E+03  0.41800000000E+01 0. -1.
        -11    1    1    2    0    0 -0.64763404350E+02 -0.22171250084E+02 -0.62839774055E+02  0.92923086887E+02  0.00000000000E+00 0. -1.
         11    1    1    2    0    0 -0.67559477187E+02  0.57726272210E+02 -0.17973914114E+03  0.20050627002E+03  0.00000000000E+00 0.  1.
</event>
<event>
 7    1  0.1068210E-005  0.1219589E+03  0.7561462E-02  0.1239900E+00
          2   -1    0    0  501    0  0.00000000000E+00  0.00000000000E+00  0.10375837455E+04  0.10375837455E+04  0.00000000000E+00 0. -1.
         -2   -1    0    0    0  501 -0.00000000000E+00 -0.00000000000E+00 -0.18614175434E+02  0.18614175434E+02  0.00000000000E+00 0.  1.
         23    2    1    2    0    0 -0.86659382420E+02 -0.10863008984E+01  0.52200352832E+03  0.54373288177E+03  0.12508690790E+03 0.  0.
          5    1    3    3  502    0 -0.37036822973E+02 -0.40972377755E+02  0.41846397222E+03  0.42211376481E+03  0.41800000000E+01 0. -1.
         -5    1    3    3    0  502 -0.49622559447E+02  0.39886076856E+02  0.10353955609E+03  0.12161911696E+03  0.41800000000E+01 0. -1.
        -11    1    1    2    0    0  0.81730504287E+02  0.36113763365E+02  0.33802878567E+03  0.34963915567E+03  0.00000000000E+00 0. -1.
         11    1    1    2    0    0  0.49288781327E+01 -0.35027462467E+02  0.15893725606E+03  0.16282588348E+03  0.00000000000E+00 0.  1.
</event>
<event>
 7    1  0.1068210E-005  0.1061674E+03  0.7561462E-02  0.1267836E+00
         -4   -1    0    0    0  501 -0.00000000000E+00  0.00000000000E+00  0.13499073351E+03  0.13499073351E+03  0.00000000000E+00 0.  1.
          4   -1    0    0  501    0  0.00000000000E+00 -0.00000000000E+00 -0.10999768183E+03  0.10999768183E+03  0.00000000000E+00 0. -1.
         23    2    1    2    0    0  0.20072781266E+02 -0.43269973029E+02  0.43513146181E+02  0.14076841614E+03  0.12508855255E+03 0.  0.
          5    1    3    3  502    0  0.67246692148E+02 -0.43683682526E+02  0.47406312832E+02  0.93248123950E+02  0.41800000000E+01 0. -1.
         -5    1    3    3    0  502 -0.47173910882E+02  0.41370949633E+00 -0.38931666502E+01  0.47520292192E+02  0.41800000000E+01 0. -1.
        -11    1    1    2    0    0 -0.29567016085E+02  0.59176117022E+02  0.13229650283E+02  0.67461432779E+02  0.00000000000E+00 0.  1.
         11    1    1    2    0    0  0.94942348182E+01 -0.15906143993E+02 -0.31749744789E+02  0.36758566425E+02  0.00000000000E+00 0. -1.
</event>
<event>
 7    1  0.1891959E-005  0.2028886E+03  0.7561462E-02  0.1147325E+00
         -1   -1    0    0    0  501 -0.00000000000E+00  0.00000000000E+00  0.10432089625E+03  0.10432089625E+03  0.00000000000E+00 0.  1.
          1   -1    0    0  501    0  0.00000000000E+00 -0.00000000000E+00 -0.44654323618E+03  0.44654323618E+03  0.00000000000E+00 0. -1.
         23    2    1    2    0    0  0.65798564987E+02  0.16651631421E+03 -0.11188374592E+03  0.24540286094E+03  0.12508979777E+03 0.  0.
          5    1    3    3  502    0  0.93129044540E+02  0.11681920566E+03 -0.41886442546E+02  0.15521498709E+03  0.41800000000E+01 0. -1.
         -5    1    3    3    0  502 -0.27330479553E+02  0.49697108556E+02 -0.69997303370E+02  0.90187873855E+02  0.41800000000E+01 0. -1.
        -11    1    1    2    0    0  0.21583597505E+01 -0.11281754691E+03 -0.11377026507E+03  0.16023773158E+03  0.00000000000E+00 0. -1.
         11    1    1    2    0    0 -0.67956924737E+02 -0.53698767298E+02 -0.11656832894E+03  0.14522353990E+03  0.00000000000E+00 0.  1.
</event>
<event>
 7    1  0.1068210E-005  0.1203883E+03  0.7561462E-02  0.1242458E+00
         -1   -1    0    0    0  501 -0.00000000000E+00  0.00000000000E+00  0.86503361408E+02  0.86503361408E+02  0.00000000000E+00 0.  1.
          1   -1    0    0  501    0  0.00000000000E+00 -0.00000000000E+00 -0.18777602899E+03  0.18777602899E+03  0.00000000000E+00 0. -1.
         23    2    1    2    0    0  0.22284073134E+02  0.45352355821E+02 -0.35400493463E+02  0.13947758457E+03  0.12508951022E+03 0.  0.
          5    1    3    3  502    0 -0.43824562319E+02  0.13761264507E+01  0.13581593115E+02  0.46091409807E+02  0.41800000000E+01 0.  1.
         -5    1    3    3    0  502  0.66108635453E+02  0.43976229370E+02 -0.48982086578E+02  0.93386174762E+02  0.41800000000E+01 0.  1.
        -11    1    1    2    0    0 -0.17986702164E+02  0.33622149104E+02 -0.26636857127E+02  0.46513358540E+02  0.00000000000E+00 0.  1.
         11    1    1    2    0    0 -0.42973709702E+01 -0.78974504925E+02 -0.39235316995E+02  0.88288447292E+02  0.00000000000E+00 0. -1.
</event>
<event>
 7    1  0.1068210E-005  0.1263790E+03  0.7561462E-02  0.1232930E+00
         -2   -1    0    0    0  501 -0.00000000000E+00  0.00000000000E+00  0.29094268505E+02  0.29094268505E+02  0.00000000000E+00 0.  1.
          2   -1    0    0  501    0  0.00000000000E+00 -0.00000000000E+00 -0.70897160850E+03  0.70897160850E+03  0.00000000000E+00 0. -1.
         23    2    1    2    0    0 -0.75633588593E+02 -0.31158521207E+02 -0.25168745850E+03  0.29271973302E+03  0.12508785779E+03 0.  0.
          5    1    3    3  502    0 -0.34700852897E+02 -0.72578251271E+02 -0.19654424981E+03  0.21241202010E+03  0.41800000000E+01 0. -1.
         -5    1    3    3    0  502 -0.40932735695E+02  0.41419730064E+02 -0.55143208692E+02  0.80307712923E+02  0.41800000000E+01 0. -1.
        -11    1    1    2    0    0  0.32698792452E+01  0.40698515244E+02 -0.24091068543E+03  0.24434610619E+03  0.00000000000E+00 0.  1.
         11    1    1    2    0    0  0.72363709348E+02 -0.95399940367E+01 -0.18727919605E+03  0.20100003779E+03  0.00000000000E+00 0. -1.
</event>
<event>
 7    1  0.1068210E-005  0.9691751E+02  0.7561462E-02  0.1286915E+00
          1   -1    0    0  501    0  0.00000000000E+00  0.00000000000E+00  0.23874511128E+03  0.23874511128E+03  0.00000000000E+00 0. -1.
         -1   -1    0    0    0  501 -0.00000000000E+00 -0.00000000000E+00 -0.67823829279E+02  0.67823829279E+02  0.00000000000E+00 0.  1.
         23    2    1    2    0    0  0.34328132016E+02 -0.23665214386E+02  0.34414194014E+02  0.13627072103E+03  0.12508760786E+03 0.  0.
          5    1    3    3  502    0  0.91521018661E+01 -0.70611535916E+02 -0.24280384341E+01  0.71366082585E+02  0.41800000000E+01 0.  1.
         -5    1    3    3    0  502  0.25176030150E+02  0.46946321530E+02  0.36842232448E+02  0.64904638440E+02  0.41800000000E+01 0.  1.
        -11    1    1    2    0    0  0.11977434583E+02  0.19100970357E+02  0.11814373814E+03  0.12027572020E+03  0.00000000000E+00 0. -1.
         11    1    1    2    0    0 -0.46305566599E+02  0.45642440284E+01  0.18363349842E+02  0.50022499328E+02  0.00000000000E+00 0.  1.
</event>
<event>
 7    1  0.1068210E-005  0.1112043E+03  0.7561462E-02  0.1258356E+00
         -2   -1    0    0    0  501 -0.00000000000E+00  0.00000000000E+00  0.22401603059E+03  0.22401603059E+03  0.00000000000E+00 0.  1.
          2   -1    0    0  501    0  0.00000000000E+00 -0.00000000000E+00 -0.70537831799E+02  0.70537831799E+02  0.00000000000E+00 0. -1.
         23    2    1    2    0    0  0.14234755884E+02  0.29760842020E+02  0.15116169169E+03  0.19896277477E+03  0.12509193706E+03 0.  0.
          5    1    3    3  502    0  0.24395139891E+01 -0.48288068680E+02  0.41959459892E+02  0.64154169621E+02  0.41800000000E+01 0. -1.
         -5    1    3    3    0  502  0.11795241895E+02  0.78048910700E+02  0.10920223180E+03  0.13480860515E+03  0.41800000000E+01 0. -1.
        -11    1    1    2    0    0 -0.50168261913E+02 -0.30828860878E+02 -0.42903237137E+01  0.59039648068E+02  0.00000000000E+00 0.  1.
         11    1    1    2    0    0  0.35933506029E+02  0.10680188579E+01  0.66068308140E+01  0.36551439550E+02  0.00000000000E+00 0. -1.
</event>
<event>
 7    1  0.1068210E-005  0.1396234E+03  0.7561462E-02  0.1213837E+00
          1   -1    0    0  501    0  0.00000000000E+00  0.00000000000E+00  0.10641401967E+03  0.10641401967E+03  0.00000000000E+00 0. -1.
         -1   -1    0    0    0  501 -0.00000000000E+00 -0.00000000000E+00 -0.22911667513E+03  0.22911667513E+03  0.00000000000E+00 0.  1.
         23    2    1    2    0    0 -0.10015110174E+03 -0.42497332793E+01 -0.12159031294E+03  0.20119498126E+03  0.12508762079E+03 0.  0.
          5    1    3    3  502    0  0.23348742502E+02 -0.40196408935E+01 -0.56764860801E+02  0.61652600197E+02  0.41800000000E+01 0. -1.
         -5    1    3    3    0  502 -0.12349984424E+03 -0.23009238575E+00 -0.64825452134E+02  0.13954238107E+03  0.41800000000E+01 0. -1.
        -11    1    1    2    0    0  0.52097645041E+02 -0.40474246555E+02  0.12873827418E+02  0.67216550681E+02  0.00000000000E+00 0.  1.
         11    1    1    2    0    0  0.48053456695E+02  0.44723979835E+02 -0.13986169949E+02  0.67119162856E+02  0.00000000000E+00 0. -1.
</event>
<event>
 7    1  0.1068210E-005  0.1143771E+03  0.7561462E-02  0.1252672E+00
         -2   -1    0    0    0  501 -0.00000000000E+00  0.00000000000E+00  0.10899899979E+03  0.10899899979E+03  0.00000000000E+00 0. -1.
          2   -1    0    0  501    0  0.00000000000E+00 -0.00000000000E+00 -0.18479952678E+03  0.18479952678E+03  0.00000000000E+00 0.  1.
         23    2    1    2    0    0 -0.20211767946E+02  0.36502143706E+02  0.42958655410E+02  0.13868799986E+03  0.12509193887E+03 0.  0.
          5    1    3    3  502    0  0.22630605867E+01  0.79878572655E+02  0.40272841557E+02  0.89582821901E+02  0.41800000000E+01 0. -1.
         -5    1    3    3    0  502 -0.22474828533E+02 -0.43376428949E+02  0.26858138531E+01  0.49105177955E+02  0.41800000000E+01 0. -1.
        -11    1    1    2    0    0  0.56326430196E+02 -0.26370286293E+02 -0.71151477757E+02  0.94501806992E+02  0.00000000000E+00 0. -1.
         11    1    1    2    0    0 -0.36114662250E+02 -0.10131857413E+02 -0.47607704651E+02  0.60608719720E+02  0.00000000000E+00 0.  1.
</event>
<event>
 7    1  0.1068210E-005  0.1213828E+03  0.7561462E-02  0.1240833E+00
         -2   -1    0    0    0  501 -0.00000000000E+00  0.00000000000E+00  0.58058777290E+02  0.58058777290E+02  0.00000000000E+00 0.  1.
          2   -1    0    0  501    0  0.00000000000E+00 -0.00000000000E+00 -0.43917071085E+03  0.43917071085E+03  0.00000000000E+00 0. -1.
         23    2    1    2    0    0 -0.94694823753E+02 -0.65141971238E+02 -0.13222908723E+03  0.20881934010E+03  0.11362393774E+03 0.  0.
          5    1    3    3  502    0 -0.71525057350E+02 -0.33268531021E+02 -0.14671416411E+03  0.16662877103E+03  0.41800000000E+01 0. -1.
         -5    1    3    3    0  502 -0.23169766403E+02 -0.31873440217E+02  0.14485076874E+02  0.42190569071E+02  0.41800000000E+01 0.  1.
        -11    1    1    2    0    0  0.55963411232E+02  0.64519463101E+02 -0.22994061215E+03  0.24529033742E+03  0.00000000000E+00 0. -1.
         11    1    1    2    0    0  0.38731412521E+02  0.62250813662E+00 -0.18942234178E+02  0.43119810619E+02  0.00000000000E+00 0.  1.
</event>
<event>
 7    1  0.1068210E-005  0.1100727E+03  0.7561462E-02  0.1260435E+00
          2   -1    0    0  501    0  0.00000000000E+00  0.00000000000E+00  0.12932608512E+03  0.12932608512E+03  0.00000000000E+00 0.  1.
         -2   -1    0    0    0  501 -0.00000000000E+00 -0.00000000000E+00 -0.11238466131E+03  0.11238466131E+03  0.00000000000E+00 0. -1.
         23    2    1    2    0    0  0.61119643726E+01 -0.28577546298E+02 -0.34991761956E+02  0.13314323853E+03  0.12509462938E+03 0.  0.
          5    1    3    3  502    0  0.58258617911E+02 -0.44866525304E+02 -0.18898862588E+02  0.76037563486E+02  0.41800000000E+01 0. -1.
         -5    1    3    3    0  502 -0.52146653538E+02  0.16288979006E+02 -0.16092899368E+02  0.57105675045E+02  0.41800000000E+01 0. -1.
        -11    1    1    2    0    0  0.35352541878E+02 -0.81853794071E+01  0.64056994670E+01  0.36848821405E+02  0.00000000000E+00 0. -1.
         11    1    1    2    0    0 -0.41464506251E+02  0.36762925706E+02  0.45527486296E+02  0.71718686501E+02  0.00000000000E+00 0.  1.
</event>
<event>
 7    1  0.1068210E-005  0.1093491E+03  0.7561462E-02  0.1261780E+00
         -1   -1    0    0    0  501 -0.00000000000E+00  0.00000000000E+00  0.33289659167E+02  0.33289659167E+02  0.00000000000E+00 0.  1.
          1   -1    0    0  501    0  0.00000000000E+00 -0.00000000000E+00 -0.56603394690E+03  0.56603394690E+03  0.00000000000E+00 0. -1.
         23    2    1    2    0    0 -0.47149978457E+02 -0.44578868395E+02 -0.19745189244E+03  0.24258015210E+03  0.12508990522E+03 0.  0.
          5    1    3    3  502    0 -0.49290039782E+01 -0.64275274644E+02 -0.18230580046E+03  0.19341272785E+03  0.41800000000E+01 0. -1.
         -5    1    3    3    0  502 -0.42220974479E+02  0.19696406249E+02 -0.15146091976E+02  0.49167424248E+02  0.41800000000E+01 0. -1.
        -11    1    1    2    0    0  0.60377959643E+02 -0.46144462383E+00 -0.10000650856E+03  0.11682042928E+03  0.00000000000E+00 0.  1.
         11    1    1    2    0    0 -0.13227981186E+02  0.45040313019E+02 -0.23528588673E+03  0.23992302469E+03  0.00000000000E+00 0. -1.
</event>
<event>
 7    1  0.1068210E-005  0.1271131E+03  0.7561462E-02  0.1231803E+00
         -1   -1    0    0    0  501 -0.00000000000E+00  0.00000000000E+00  0.59353065933E+03  0.59353065933E+03  0.00000000000E+00 0.  1.
          1   -1    0    0  501    0  0.00000000000E+00 -0.00000000000E+00 -0.35427267274E+02  0.35427267274E+02  0.00000000000E+00 0. -1.
         23    2    1    2    0    0  0.72825398449E+02  0.14461220071E+02  0.43686134278E+03  0.46044384682E+03  0.12509211690E+03 0.  0.
          5    1    3    3  502    0  0.75986522703E+02  0.61545609065E+02  0.30596621547E+03  0.32123918042E+03  0.41800000000E+01 0.  1.
         -5    1    3    3    0  502 -0.31611242535E+01 -0.47084388994E+02  0.13089512730E+03  0.13920466639E+03  0.41800000000E+01 0.  1.
        -11    1    1    2    0    0 -0.20203349935E+02  0.32618598194E+02  0.15536036474E+02  0.41394646104E+02  0.00000000000E+00 0. -1.
         11    1    1    2    0    0 -0.52622048514E+02 -0.47079818264E+02  0.10570601281E+03  0.12711943369E+03  0.00000000000E+00 0.  1.
</event>
<event>
 7    1  0.1068210E-005  0.1098241E+03  0.7561462E-02  0.1260896E+00
         -2   -1    0    0    0  501 -0.00000000000E+00  0.00000000000E+00  0.50134184020E+02  0.50134184020E+02  0.00000000000E+00 0.  1.
          2   -1    0    0  501    0  0.00000000000E+00 -0.00000000000E+00 -0.25659861191E+03  0.25659861191E+03  0.00000000000E+00 0. -1.
         23    2    1    2    0    0  0.12962926280E+02 -0.10994072420E+02 -0.83993282203E+02  0.15162703340E+03  0.12508788397E+03 0.  0.
          5    1    3    3  502    0  0.64788382002E+02 -0.28810215798E+02 -0.42624661253E+02  0.82836568759E+02  0.41800000000E+01 0. -1.
         -5    1    3    3    0  502 -0.51825455722E+02  0.17816143378E+02 -0.41368620950E+02  0.68790464637E+02  0.41800000000E+01 0. -1.
        -11    1    1    2    0    0  0.35357272563E+02  0.25054134466E+02 -0.70570338333E+02  0.82813157344E+02  0.00000000000E+00 0. -1.
         11    1    1    2    0    0 -0.48320198843E+02 -0.14060062046E+02 -0.51900807353E+02  0.72292605189E+02  0.00000000000E+00 0.  1.
</event>
<event>
 7    1  0.1068210E-005  0.1774750E+03  0.7561462E-02  0.1170269E+00
          2   -1    0    0  501    0  0.00000000000E+00  0.00000000000E+00  0.20625421082E+03  0.20625421082E+03  0.00000000000E+00 0. -1.
         -2   -1    0    0    0  501 -0.00000000000E+00 -0.00000000000E+00 -0.18993514772E+03  0.18993514772E+03  0.00000000000E+00 0.  1.
         23    2    1    2    0    0  0.10902455729E+03  0.11136569479E+03 -0.44899390990E+02  0.20482093917E+03  0.12508792805E+03 0.  0.
          5    1    3    3  502    0  0.48545776980E+02  0.12718780402E+03 -0.40107452971E+02  0.14198418975E+03  0.41800000000E+01 0.  1.
         -5    1    3    3    0  502  0.60478780312E+02 -0.15822109234E+02 -0.47919380188E+01  0.62836749428E+02  0.41800000000E+01 0.  1.
        -11    1    1    2    0    0 -0.45608220635E+02 -0.40474602412E+02  0.73456036418E+02  0.95467756421E+02  0.00000000000E+00 0. -1.
         11    1    1    2    0    0 -0.63416336657E+02 -0.70891092375E+02 -0.12237582329E+02  0.95900662951E+02  0.00000000000E+00 0.  1.
</event>
<event>
 7    1  0.1068210E-005  0.1665562E+03  0.7561462E-02  0.1181487E+00
         -1   -1    0    0    0  501 -0.00000000000E+00  0.00000000000E+00  0.32468991386E+02  0.32468991386E+02  0.00000000000E+00 0.  1.
          1   -1    0    0  501    0  0.00000000000E+00 -0.00000000000E+00 -0.10979520272E+04  0.10979520272E+04  0.00000000000E+00 0. -1.
         23    2    1    2    0    0  0.79794643767E+01 -0.14431223775E+03 -0.41868915751E+03  0.46025821231E+03  0.12508923842E+03 0.  0.
          5    1    3    3  502    0 -0.25990078994E+02 -0.13169101920E+03 -0.21624179185E+03  0.25455057197E+03  0.41800000000E+01 0.  1.
         -5    1    3    3    0  502  0.33969543371E+02 -0.12621218542E+02 -0.20244736566E+03  0.20570764034E+03  0.41800000000E+01 0.  1.
        -11    1    1    2    0    0  0.27687717910E+02  0.10778638434E+03 -0.54544652827E+03  0.55668341952E+03  0.00000000000E+00 0. -1.
         11    1    1    2    0    0 -0.35667182286E+02  0.36525853404E+02 -0.10134735009E+03  0.11347938680E+03  0.00000000000E+00 0.  1.
</event>
<event>
 7    1  0.1068210E-005  0.5707642E+02  0.7561462E-02  0.1410527E+00
          1   -1    0    0  501    0  0.00000000000E+00  0.00000000000E+00  0.35343601279E+02  0.35343601279E+02  0.00000000000E+00 0. -1.
         -1   -1    0    0    0  501 -0.00000000000E+00 -0.00000000000E+00 -0.33935253970E+03  0.33935253970E+03  0.00000000000E+00 0.  1.
         23    2    1    2    0    0 -0.56760502212E+01 -0.20221841190E+02 -0.19417887610E+03  0.23195742869E+03  0.12513062133E+03 0.  0.
          5    1    3    3  502    0 -0.17657683962E+02  0.53402691842E+01 -0.20158739092E+03  0.20247286449E+03  0.41800000000E+01 0. -1.
         -5    1    3    3    0  502  0.11981633740E+02 -0.25562110374E+02  0.74085148225E+01  0.29484564194E+02  0.41800000000E+01 0. -1.
        -11    1    1    2    0    0 -0.22393409681E+02 -0.10801123416E+02  0.36933060108E+00  0.24864944587E+02  0.00000000000E+00 0. -1.
         11    1    1    2    0    0  0.28069459902E+02  0.31022964606E+02 -0.11019939293E+03  0.11787376771E+03  0.00000000000E+00 0.  1.
</event>
<event>
 7    1  0.1068210E-005  0.1583948E+03  0.7561462E-02  0.1190521E+00
         -2   -1    0    0    0  501 -0.00000000000E+00  0.00000000000E+00  0.39771305417E+02  0.39771305417E+02  0.00000000000E+00 0.  1.
          2   -1    0    0  501    0  0.00000000000E+00 -0.00000000000E+00 -0.10496315694E+04  0.10496315694E+04  0.00000000000E+00 0. -1.
         23    2    1    2    0    0  0.14965463752E+03  0.25531979343E+02 -0.30701691496E+03  0.36462752351E+03  0.12508178256E+03 0.  0.
          5    1    3    3  502    0  0.97854204888E+02  0.26947087945E+02 -0.29397130563E+03  0.31102763847E+03  0.41800000000E+01 0.  1.
         -5    1    3    3    0  502  0.51800432631E+02 -0.14151086014E+01 -0.13045609338E+02  0.53599885038E+02  0.41800000000E+01 0.  1.
        -11    1    1    2    0    0 -0.13343683746E+02 -0.23345974168E+02 -0.40960395411E+02  0.48998391790E+02  0.00000000000E+00 0.  1.
         11    1    1    2    0    0 -0.13631095377E+03 -0.21860051756E+01 -0.66188295361E+03  0.67577695952E+03  0.00000000000E+00 0. -1.
</event>
<event>
 7    1  0.1068210E-005  0.6522014E+02  0.7561462E-02  0.1377145E+00
          1   -1    0    0  501    0  0.00000000000E+00  0.00000000000E+00  0.20387315557E+03  0.20387315557E+03  0.00000000000E+00 0. -1.
         -1   -1    0    0    0  501 -0.00000000000E+00 -0.00000000000E+00 -0.60709321055E+02  0.60709321055E+02  0.00000000000E+00 0.  1.
         23    2    1    2    0    0  0.23954924969E+02 -0.56686684332E+01  0.79706101025E+02  0.15035670007E+03  0.12509237580E+03 0.  0.
          5    1    3    3  502    0 -0.16222827254E+01 -0.86220900861E+01  0.10997256513E+03  0.11040113097E+03  0.41800000000E+01 0. -1.
         -5    1    3    3    0  502  0.25577207694E+02  0.29534216529E+01 -0.30266464105E+02  0.39955569102E+02  0.41800000000E+01 0. -1.
        -11    1    1    2    0    0 -0.25869362814E+01  0.47550010829E+02  0.27106210359E+02  0.54794547258E+02  0.00000000000E+00 0.  1.
         11    1    1    2    0    0 -0.21367988687E+02 -0.41881342396E+02  0.36351523131E+02  0.59431229294E+02  0.00000000000E+00 0. -1.
</event>
<event>
 7    1  0.1068210E-005  0.2132005E+03  0.7561462E-02  0.1139056E+00
         -2   -1    0    0    0  501 -0.00000000000E+00  0.00000000000E+00  0.12687693588E+03  0.12687693588E+03  0.00000000000E+00 0.  1.
          2   -1    0    0  501    0  0.00000000000E+00 -0.00000000000E+00 -0.44158068518E+03  0.44158068518E+03  0.00000000000E+00 0. -1.
         23    2    1    2    0    0  0.18833106192E+03 -0.40347954269E+02 -0.62005791795E+02  0.23788360320E+03  0.12508934471E+03 0.  0.
          5    1    3    3  502    0  0.12567109711E+01  0.29428574431E+02 -0.47215614367E+01  0.30122846112E+02  0.41800000000E+01 0. -1.
         -5    1    3    3    0  502  0.18707435095E+03 -0.69776528700E+02 -0.57284230359E+02  0.20776075709E+03  0.41800000000E+01 0. -1.
        -11    1    1    2    0    0 -0.71322648783E+02 -0.48993346039E+01 -0.35668304057E+02  0.79894628251E+02  0.00000000000E+00 0.  1.
         11    1    1    2    0    0 -0.11700841314E+03  0.45247288873E+02 -0.21702965345E+03  0.25067938960E+03  0.00000000000E+00 0. -1.
</event>
<event>
 7    1  0.1068210E-005  0.1148756E+03  0.7561462E-02  0.1251798E+00
         -1   -1    0    0    0  501 -0.00000000000E+00  0.00000000000E+00  0.21041153901E+03  0.21041153901E+03  0.00000000000E+00 0.  1.
          1   -1    0    0  501    0  0.00000000000E+00 -0.00000000000E+00 -0.73730931426E+02  0.73730931426E+02  0.00000000000E+00 0. -1.
         23    2    1    2    0    0  0.33127439629E+02 -0.51644409654E+02  0.86366892454E+02  0.16391369154E+03  0.12507552061E+03 0.  0.
          5    1    3    3  502    0  0.52466232613E+02 -0.84344462572E+02  0.73308970733E+02  0.12352478100E+03  0.41800000000E+01 0. -1.
         -5    1    3    3    0  502 -0.19338792984E+02  0.32700052918E+02  0.13057921721E+02  0.40388910540E+02  0.41800000000E+01 0. -1.
        -11    1    1    2    0    0 -0.18466749808E+02  0.67815440568E+02  0.63504848855E+02  0.94724973772E+02  0.00000000000E+00 0.  1.
         11    1    1    2    0    0 -0.14660689821E+02 -0.16171030914E+02 -0.13191133726E+02  0.25503805124E+02  0.00000000000E+00 0. -1.
</event>
<event>
 7    1  0.1068210E-005  0.1839049E+03  0.7561462E-02  0.1164076E+00
          2   -1    0    0  501    0  0.00000000000E+00  0.00000000000E+00  0.70348574277E+03  0.70348574277E+03  0.00000000000E+00 0. -1.
         -2   -1    0    0    0  501 -0.00000000000E+00 -0.00000000000E+00 -0.57577138358E+02  0.57577138358E+02  0.00000000000E+00 0.  1.
         23    2    1    2    0    0  0.16196014254E+03  0.10812982174E+02  0.25126448576E+03  0.32423731015E+03  0.12509189877E+03 0.  0.
          5    1    3    3  502    0  0.45588741737E+02  0.40522032389E+02  0.16595900212E+03  0.17686218156E+03  0.41800000000E+01 0.  1.
         -5    1    3    3    0  502  0.11637140080E+03 -0.29709050216E+02  0.85305483641E+02  0.14737512859E+03  0.41800000000E+01 0.  1.
        -11    1    1    2    0    0 -0.18364719737E+02  0.31790041610E+02  0.94574231028E+02  0.10145025801E+03  0.00000000000E+00 0. -1.
         11    1    1    2    0    0 -0.14359542280E+03 -0.42603023784E+02  0.30006988763E+03  0.33537531296E+03  0.00000000000E+00 0.  1.
</event>
<event>
 6    1  0.1068210E-005  0.1374774E+03  0.7561462E-02  0.1216764E+00
         -1   -1    0    0    0  501 -0.00000000000E+00  0.00000000000E+00  0.23266105229E+02  0.23266105229E+02  0.00000000000E+00 0.  1.
          1   -1    0    0  501    0  0.00000000000E+00 -0.00000000000E+00 -0.85371845718E+03  0.85371845718E+03  0.00000000000E+00 0. -1.
          5    1    1    2  502    0 -0.94722048116E+02 -0.54685196423E+02 -0.28299336747E+03  0.30342289883E+03  0.41800000000E+01 0. -1.
         -5    1    1    2    0  502  0.56006590294E+02  0.91802474333E+00 -0.13726505706E+03  0.14831301094E+03  0.41800000000E+01 0.  1.
        -11    1    1    2    0    0 -0.26629328684E+02  0.29203238094E+02 -0.19670429407E+03  0.20063531486E+03  0.00000000000E+00 0.  1.
         11    1    1    2    0    0  0.65344786507E+02  0.24563933586E+02 -0.21348963335E+03  0.22461333777E+03  0.00000000000E+00 0. -1.
</event>
<event>
 6    1  0.1068210E-005  0.1526492E+03  0.7561462E-02  0.1197255E+00
         -1   -1    0    0    0  501 -0.00000000000E+00  0.00000000000E+00  0.12759548553E+03  0.12759548553E+03  0.00000000000E+00 0.  1.
          1   -1    0    0  501    0  0.00000000000E+00 -0.00000000000E+00 -0.36897304244E+03  0.36897304244E+03  0.00000000000E+00 0. -1.
          5    1    1    2  502    0  0.88760623331E+02 -0.89524055348E+01 -0.60066125637E+02  0.10762901871E+03  0.41800000000E+01 0. -1.
         -5    1    1    2    0  502 -0.12038620820E+02  0.81587824310E+02  0.65850144407E+02  0.10561825309E+03  0.41800000000E+01 0.  1.
        -11    1    1    2    0    0 -0.53746726698E+02  0.35249132919E+01 -0.64121520668E+02  0.83741895472E+02  0.00000000000E+00 0.  1.
         11    1    1    2    0    0 -0.22975275814E+02 -0.76160332067E+02 -0.18304005501E+03  0.19957936070E+03  0.00000000000E+00 0. -1.
</event>
<event>
 7    1  0.1068210E-005  0.1153709E+03  0.7561462E-02  0.1250935E+00
         -1   -1    0    0    0  501 -0.00000000000E+00  0.00000000000E+00  0.26934539508E+02  0.26934539508E+02  0.00000000000E+00 0.  1.
          1   -1    0    0  501    0  0.00000000000E+00 -0.00000000000E+00 -0.51323923354E+03  0.51323923354E+03  0.00000000000E+00 0. -1.
         23    2    1    2    0    0  0.37171095723E+02 -0.21431944941E+02 -0.23827965203E+03  0.27251721915E+03  0.12508966200E+03 0.  0.
          5    1    3    3  502    0 -0.44938625121E+02 -0.15476703278E+02 -0.11169545685E+03  0.12145927653E+03  0.41800000000E+01 0. -1.
         -5    1    3    3    0  502  0.82109720845E+02 -0.59552416633E+01 -0.12658419518E+03  0.15105794262E+03  0.41800000000E+01 0. -1.
        -11    1    1    2    0    0  0.30558612188E+02  0.66349257158E+01 -0.79478254215E+02  0.85408687563E+02  0.00000000000E+00 0. -1.
         11    1    1    2    0    0 -0.67729707912E+02  0.14797019225E+02 -0.16854678778E+03  0.18224786633E+03  0.00000000000E+00 0.  1.
</event>
<event>
 7    1  0.1068210E-005  0.1223203E+03  0.7561462E-02  0.1239318E+00
          2   -1    0    0  501    0  0.00000000000E+00  0.00000000000E+00  0.49861471298E+03  0.49861471298E+03  0.00000000000E+00 0. -1.
         -2   -1    0    0    0  501 -0.00000000000E+00 -0.00000000000E+00 -0.37515246136E+02  0.37515246136E+02  0.00000000000E+00 0.  1.
         23    2    1    2    0    0 -0.60745841809E+02  0.23347024145E+02  0.15792310688E+03  0.21171301541E+03  0.12509017698E+03 0.  0.
          5    1    3    3  502    0  0.32971402835E+02  0.87115464231E+01  0.85976437743E+02  0.92587389492E+02  0.41800000000E+01 0.  1.
         -5    1    3    3    0  502 -0.93717244643E+02  0.14635477722E+02  0.71946669135E+02  0.11912562592E+03  0.41800000000E+01 0.  1.
        -11    1    1    2    0    0 -0.24228389376E+02 -0.18022631413E+02  0.73017958711E+02  0.79015519925E+02  0.00000000000E+00 0. -1.
         11    1    1    2    0    0  0.84974231185E+02 -0.53243927321E+01  0.23015840126E+03  0.24540142378E+03  0.00000000000E+00 0.  1.
</event>
