<event>
 8    1  0.1646661E-005  0.1347022E+03  0.7546771E-02  0.1233039E+00
         -2   -1    0    0    0  501 -0.00000000000E+00  0.00000000000E+00  0.14383622976E+02  0.14383622976E+02  0.00000000000E+00 0.  1.
          2   -1    0    0  501    0  0.00000000000E+00 -0.00000000000E+00 -0.10169063358E+04  0.10169063358E+04  0.00000000000E+00 0. -1.
         23    2    1    2    0    0 -0.31684573071E+02  0.38934728455E+02 -0.48290213444E+03  0.50133737568E+03  0.12499947024E+03 0.  0.
         23    2    1    2    0    0  0.31684573071E+02 -0.38934728455E+02 -0.51962057836E+03  0.52995258306E+03  0.91237983291E+02 0.  0.
          5    1    3    3  502    0 -0.49719455971E+02  0.73248983972E+02 -0.25159970601E+03  0.26676195385E+03  0.47000000000E+01 0. -1.
         -5    1    3    3    0  502  0.18034882900E+02 -0.34314255517E+02 -0.23130242843E+03  0.23457542184E+03  0.47000000000E+01 0. -1.
        -11    1    4    4    0    0  0.37970830654E+02  0.20918635486E+02 -0.19000416012E+03  0.19488702921E+03  0.00000000000E+00 0.  1.
         11    1    4    4    0    0 -0.62862575833E+01 -0.59853363941E+02 -0.32961641823E+03  0.33506555385E+03  0.00000000000E+00 0. -1.
<mgrwt>
<rscale>  0 0.12630797E+03</rscale>
<asrwt>0</asrwt>
<pdfrwt beam="2">  1        2 0.15644718E+00 0.13470224E+03</pdfrwt>
<pdfrwt beam="1">  1       -2 0.22128643E-02 0.13470224E+03</pdfrwt>
<totfact> 0.16327430E+04</totfact>
</mgrwt>
</event>
<event>
 8    1  0.1646661E-005  0.1713554E+03  0.7546771E-02  0.1182317E+00
          1   -1    0    0  501    0  0.00000000000E+00  0.00000000000E+00  0.35099007833E+02  0.35099007833E+02  0.00000000000E+00 0. -1.
         -1   -1    0    0    0  501 -0.00000000000E+00 -0.00000000000E+00 -0.86552965031E+03  0.86552965031E+03  0.00000000000E+00 0.  1.
         23    2    1    2    0    0  0.67858190004E+02 -0.95580784661E+02 -0.61229053355E+03  0.63581629703E+03  0.12498898253E+03 0.  0.
         23    2    1    2    0    0 -0.67858190004E+02  0.95580784661E+02 -0.21814010893E+03  0.26481236111E+03  0.93808630338E+02 0.  0.
          5    1    3    3  502    0  0.10235782713E+03 -0.56618104222E+02 -0.37535405624E+03  0.39318633247E+03  0.47000000000E+01 0. -1.
         -5    1    3    3    0  502 -0.34499637121E+02 -0.38962680440E+02 -0.23693647731E+03  0.24262996457E+03  0.47000000000E+01 0. -1.
        -11    1    4    4    0    0  0.22277759088E+02  0.33873607806E+02 -0.51169274263E+02  0.65284105909E+02  0.00000000000E+00 0. -1.
         11    1    4    4    0    0 -0.90135949093E+02  0.61707176855E+02 -0.16697083467E+03  0.19952825520E+03  0.00000000000E+00 0.  1.
<mgrwt>
<rscale>  0 0.16578442E+03</rscale>
<asrwt>0</asrwt>
<pdfrwt beam="1">  1        1 0.53998474E-02 0.17135538E+03</pdfrwt>
<pdfrwt beam="2">  1       -1 0.13315841E+00 0.17135538E+03</pdfrwt>
<totfact> 0.76150355E+02</totfact>
</mgrwt>
</event>
<event>
 8    1  0.1646661E-005  0.1290343E+03  0.7546771E-02  0.1242406E+00
          2   -1    0    0  501    0  0.00000000000E+00  0.00000000000E+00  0.45891040189E+03  0.45891040189E+03  0.00000000000E+00 0. -1.
         -2   -1    0    0    0  501 -0.00000000000E+00 -0.00000000000E+00 -0.32615161915E+02  0.32615161915E+02  0.00000000000E+00 0.  1.
         23    2    1    2    0    0  0.14542489620E+02  0.28513489152E+02  0.14711328426E+03  0.19568386629E+03  0.12500141621E+03 0.  0.
         23    2    1    2    0    0 -0.14542489620E+02 -0.28513489152E+02  0.27918195571E+03  0.29584169751E+03  0.92494553999E+02 0.  0.
          5    1    3    3  502    0 -0.54813202999E+02  0.19350825774E+02  0.76247131269E+02  0.95993003432E+02  0.47000000000E+01 0.  1.
         -5    1    3    3    0  502  0.69355692620E+02  0.91626633783E+01  0.70866152987E+02  0.99690862862E+02  0.47000000000E+01 0.  1.
        -11    1    4    4    0    0  0.31070049570E+02 -0.40063177410E+02  0.13732012828E+03  0.14638040782E+03  0.00000000000E+00 0.  1.
         11    1    4    4    0    0 -0.45612539190E+02  0.11549688258E+02  0.14186182744E+03  0.14946128968E+03  0.00000000000E+00 0. -1.
<mgrwt>
<rscale>  0 0.12041988E+03</rscale>
<asrwt>0</asrwt>
<pdfrwt beam="1">  1        2 0.70601596E-01 0.12903433E+03</pdfrwt>
<pdfrwt beam="2">  1       -2 0.50177175E-02 0.12903433E+03</pdfrwt>
<totfact> 0.12596240E+04</totfact>
</mgrwt>
</event>
<event>
 8    1  0.1646661E-005  0.2176213E+03  0.7546771E-02  0.1139181E+00
         -2   -1    0    0    0  501 -0.00000000000E+00  0.00000000000E+00  0.87735799563E+02  0.87735799563E+02  0.00000000000E+00 0.  1.
          2   -1    0    0  501    0  0.00000000000E+00 -0.00000000000E+00 -0.49691314086E+03  0.49691314086E+03  0.00000000000E+00 0. -1.
         23    2    1    2    0    0 -0.88836476132E+02 -0.15441037502E+03 -0.22004260033E+03  0.30947981526E+03  0.12499810673E+03 0.  0.
         23    2    1    2    0    0  0.88836476132E+02  0.15441037502E+03 -0.18913474096E+03  0.27516912516E+03  0.90617955149E+02 0.  0.
          5    1    3    3  502    0 -0.35278499227E+02 -0.15217684174E+02  0.54484355717E+01  0.39088692348E+02  0.47000000000E+01 0.  1.
         -5    1    3    3    0  502 -0.53557976905E+02 -0.13919269085E+03 -0.22549103590E+03  0.27039112291E+03  0.47000000000E+01 0.  1.
        -11    1    4    4    0    0  0.87435069349E+02  0.12386907580E+03 -0.10176602416E+03  0.18260548449E+03  0.00000000000E+00 0.  1.
         11    1    4    4    0    0  0.14014067836E+01  0.30541299229E+02 -0.87368716800E+02  0.92563640674E+02  0.00000000000E+00 0. -1.
<mgrwt>
<rscale>  0 0.21303957E+03</rscale>
<asrwt>0</asrwt>
<pdfrwt beam="2">  1        2 0.76448173E-01 0.21762125E+03</pdfrwt>
<pdfrwt beam="1">  1       -2 0.13497816E-01 0.21762125E+03</pdfrwt>
<totfact> 0.25345817E+03</totfact>
</mgrwt>
</event>
<event>
 8    1  0.1646661E-005  0.1255719E+03  0.7546771E-02  0.1237821E+00
         -2   -1    0    0    0  501 -0.00000000000E+00  0.00000000000E+00  0.11366837523E+03  0.11366837523E+03  0.00000000000E+00 0.  1.
          2   -1    0    0  501    0  0.00000000000E+00 -0.00000000000E+00 -0.13490080600E+03  0.13490080600E+03  0.00000000000E+00 0. -1.
         23    2    1    2    0    0 -0.28622160893E+01  0.11673674800E+02  0.15104413458E+02  0.12647702357E+03  0.12499530879E+03 0.  0.
         23    2    1    2    0    0  0.28622160893E+01 -0.11673674800E+02 -0.36336844222E+02  0.12209215766E+03  0.11593818073E+03 0.  0.
          5    1    3    3  502    0 -0.17430315584E+02  0.65271573869E+02  0.19748865045E+02  0.70542908412E+02  0.47000000000E+01 0.  1.
         -5    1    3    3    0  502  0.14568099495E+02 -0.53597899069E+02 -0.46444515869E+01  0.55934115154E+02  0.47000000000E+01 0.  1.
        -11    1    4    4    0    0  0.42914457752E+02 -0.18808336826E+02 -0.59142293731E+02  0.75453397048E+02  0.00000000000E+00 0. -1.
         11    1    4    4    0    0 -0.40052241663E+02  0.71346620263E+01  0.22805449509E+02  0.46638760615E+02  0.00000000000E+00 0.  1.
<mgrwt>
<rscale>  0 0.12325548E+03</rscale>
<asrwt>0</asrwt>
<pdfrwt beam="2">  1        2 0.20753970E-01 0.12557187E+03</pdfrwt>
<pdfrwt beam="1">  1       -2 0.17487442E-01 0.12557187E+03</pdfrwt>
<totfact> 0.66372756E+03</totfact>
</mgrwt>
</event>
<event>
 8    1  0.1646661E-005  0.1866474E+03  0.7546771E-02  0.1166961E+00
         -1   -1    0    0    0  501 -0.00000000000E+00  0.00000000000E+00  0.89051593219E+02  0.89051593219E+02  0.00000000000E+00 0.  1.
          1   -1    0    0  501    0  0.00000000000E+00 -0.00000000000E+00 -0.38638263348E+03  0.38638263348E+03  0.00000000000E+00 0. -1.
         23    2    1    2    0    0  0.23230928157E+01 -0.13858814003E+03 -0.80656636888E+02  0.20332918056E+03  0.12500077310E+03 0.  0.
         23    2    1    2    0    0 -0.23230928157E+01  0.13858814003E+03 -0.21667440338E+03  0.27210504614E+03  0.88776628359E+02 0.  0.
          5    1    3    3  502    0  0.53363806864E+02 -0.35592504595E+02 -0.56864498831E+02  0.85849772822E+02  0.47000000000E+01 0. -1.
         -5    1    3    3    0  502 -0.51040714048E+02 -0.10299563543E+03 -0.23792138057E+02  0.11747940773E+03  0.47000000000E+01 0. -1.
        -11    1    4    4    0    0 -0.13807317384E+02  0.10073604106E+03 -0.20812729031E+03  0.23163626865E+03  0.00000000000E+00 0. -1.
         11    1    4    4    0    0  0.11484224568E+02  0.37852098968E+02 -0.85471130650E+01  0.40468777495E+02  0.00000000000E+00 0.  1.
<mgrwt>
<rscale>  0 0.18087326E+03</rscale>
<asrwt>0</asrwt>
<pdfrwt beam="2">  1        1 0.59443481E-01 0.18664743E+03</pdfrwt>
<pdfrwt beam="1">  1       -1 0.13700245E-01 0.18664743E+03</pdfrwt>
<totfact> 0.23231883E+03</totfact>
</mgrwt>
</event>
<event>
 8    1  0.1646661E-005  0.2900299E+03  0.7546771E-02  0.1092231E+00
          2   -1    0    0  501    0  0.00000000000E+00  0.00000000000E+00  0.58790986329E+03  0.58790986329E+03  0.00000000000E+00 0. -1.
         -2   -1    0    0    0  501 -0.00000000000E+00 -0.00000000000E+00 -0.14357618763E+03  0.14357618763E+03  0.00000000000E+00 0.  1.
         23    2    1    2    0    0  0.24100324485E+03  0.10202128183E+03  0.14445981610E+03  0.32401544389E+03  0.12500585360E+03 0.  0.
         23    2    1    2    0    0 -0.24100324485E+03 -0.10202128183E+03  0.29987385957E+03  0.40747060703E+03  0.87275758186E+02 0.  0.
          5    1    3    3  502    0  0.32410890270E+02  0.42866065583E+02  0.82317722133E+02  0.98418813058E+02  0.47000000000E+01 0.  1.
         -5    1    3    3    0  502  0.20859235458E+03  0.59155216251E+02  0.62142093965E+02  0.22559663083E+03  0.47000000000E+01 0.  1.
        -11    1    4    4    0    0 -0.56420441006E+02  0.12506757961E+02  0.76671731966E+02  0.96011664086E+02  0.00000000000E+00 0.  1.
         11    1    4    4    0    0 -0.18458280384E+03 -0.11452803980E+03  0.22320212760E+03  0.31145894294E+03  0.00000000000E+00 0. -1.
<mgrwt>
<rscale>  0 0.28642498E+03</rscale>
<asrwt>0</asrwt>
<pdfrwt beam="1">  1        2 0.90447670E-01 0.29002995E+03</pdfrwt>
<pdfrwt beam="2">  1       -2 0.22088644E-01 0.29002995E+03</pdfrwt>
<totfact> 0.91611436E+02</totfact>
</mgrwt>
</event>
<event>
 8    1  0.1646661E-005  0.1411581E+03  0.7546771E-02  0.1221414E+00
         -2   -1    0    0    0  501 -0.00000000000E+00  0.00000000000E+00  0.13812728014E+02  0.13812728014E+02  0.00000000000E+00 0.  1.
          2   -1    0    0  501    0  0.00000000000E+00 -0.00000000000E+00 -0.12065741587E+04  0.12065741587E+04  0.00000000000E+00 0. -1.
         23    2    1    2    0    0  0.51190016924E+02  0.40987890488E+02 -0.72879910871E+03  0.74234340908E+03  0.12500068458E+03 0.  0.
         23    2    1    2    0    0 -0.51190016924E+02 -0.40987890488E+02 -0.46396232198E+03  0.47804347763E+03  0.94678959101E+02 0.  0.
          5    1    3    3  502    0  0.45547843470E+02  0.55809237111E+02 -0.71999601408E+03  0.72360598898E+03  0.47000000000E+01 0.  1.
         -5    1    3    3    0  502  0.56421734547E+01 -0.14821346623E+02 -0.88030946294E+01  0.18737420101E+02  0.47000000000E+01 0.  1.
        -11    1    4    4    0    0  0.24116622802E+02 -0.10867278750E+02 -0.53948321912E+02  0.60084363023E+02  0.00000000000E+00 0.  1.
         11    1    4    4    0    0 -0.75306639726E+02 -0.30120611738E+02 -0.41001400006E+03  0.41795911461E+03  0.00000000000E+00 0. -1.
<mgrwt>
<rscale>  0 0.13415774E+03</rscale>
<asrwt>0</asrwt>
<pdfrwt beam="2">  1        2 0.18562679E+00 0.14115805E+03</pdfrwt>
<pdfrwt beam="1">  1       -2 0.21250351E-02 0.14115805E+03</pdfrwt>
<totfact> 0.13534752E+04</totfact>
</mgrwt>
</event>
<event>
 8    1  0.1646661E-005  0.1603040E+03  0.7546771E-02  0.1195794E+00
         -2   -1    0    0    0  501 -0.00000000000E+00  0.00000000000E+00  0.69735827570E+03  0.69735827570E+03  0.00000000000E+00 0.  1.
          2   -1    0    0  501    0  0.00000000000E+00 -0.00000000000E+00 -0.33220041100E+02  0.33220041100E+02  0.00000000000E+00 0. -1.
         23    2    1    2    0    0 -0.23372071781E+02  0.97596907295E+02  0.44083045204E+03  0.46907233451E+03  0.12500382999E+03 0.  0.
         23    2    1    2    0    0  0.23372071781E+02 -0.97596907295E+02  0.22330778257E+03  0.26150598229E+03  0.91910842480E+02 0.  0.
          5    1    3    3  502    0 -0.57839530379E+02  0.98456907113E+02  0.24719987413E+03  0.27233993758E+03  0.47000000000E+01 0.  1.
         -5    1    3    3    0  502  0.34467458598E+02 -0.85999981742E+00  0.19363057791E+03  0.19673239693E+03  0.47000000000E+01 0.  1.
        -11    1    4    4    0    0 -0.29948020663E+00 -0.65244183048E+02  0.46270122135E+02  0.79986357039E+02  0.00000000000E+00 0. -1.
         11    1    4    4    0    0  0.23671551988E+02 -0.32352724247E+02  0.17703766043E+03  0.18151962525E+03  0.00000000000E+00 0.  1.
<mgrwt>
<rscale>  0 0.15387231E+03</rscale>
<asrwt>0</asrwt>
<pdfrwt beam="2">  1        2 0.51107761E-02 0.16030398E+03</pdfrwt>
<pdfrwt beam="1">  1       -2 0.10728588E+00 0.16030398E+03</pdfrwt>
<totfact> 0.10845662E+03</totfact>
</mgrwt>
</event>
<event>
 8    1  0.1646661E-005  0.1809545E+03  0.7546771E-02  0.1172307E+00
          1   -1    0    0  501    0  0.00000000000E+00  0.00000000000E+00  0.36309869827E+02  0.36309869827E+02  0.00000000000E+00 0. -1.
         -1   -1    0    0    0  501 -0.00000000000E+00 -0.00000000000E+00 -0.80694823079E+03  0.80694823079E+03  0.00000000000E+00 0.  1.
         23    2    1    2    0    0  0.12156213330E+03 -0.48398325623E+02 -0.44921119435E+03  0.48428838619E+03  0.12499917478E+03 0.  0.
         23    2    1    2    0    0 -0.12156213330E+03  0.48398325623E+02 -0.32142716661E+03  0.35896971443E+03  0.91782799386E+02 0.  0.
          5    1    3    3  502    0  0.95595120701E+02 -0.87498844462E+02 -0.37032753292E+03  0.39237615437E+03  0.47000000000E+01 0.  1.
         -5    1    3    3    0  502  0.25967012597E+02  0.39100518840E+02 -0.78883661436E+02  0.91912231821E+02  0.47000000000E+01 0.  1.
        -11    1    4    4    0    0 -0.10253190657E+02 -0.24030622615E+02 -0.68203501117E+02  0.73036403981E+02  0.00000000000E+00 0.  1.
         11    1    4    4    0    0 -0.11130894264E+03  0.72428948237E+02 -0.25322366550E+03  0.28593331045E+03  0.00000000000E+00 0. -1.
<mgrwt>
<rscale>  0 0.17542354E+03</rscale>
<asrwt>0</asrwt>
<pdfrwt beam="1">  1        1 0.55861335E-02 0.18095454E+03</pdfrwt>
<pdfrwt beam="2">  1       -1 0.12414589E+00 0.18095454E+03</pdfrwt>
<totfact> 0.86286068E+02</totfact>
</mgrwt>
</event>
<event>
 8    1  0.1646661E-005  0.1663785E+03  0.7546771E-02  0.1187345E+00
         -2   -1    0    0    0  501 -0.00000000000E+00  0.00000000000E+00  0.45993691379E+02  0.45993691379E+02  0.00000000000E+00 0.  1.
          2   -1    0    0  501    0  0.00000000000E+00 -0.00000000000E+00 -0.53259918040E+03  0.53259918040E+03  0.00000000000E+00 0. -1.
         23    2    1    2    0    0  0.57855918489E+02  0.93329071569E+02 -0.25519539892E+03  0.30464159909E+03  0.12499675740E+03 0.  0.
         23    2    1    2    0    0 -0.57855918489E+02 -0.93329071569E+02 -0.23141009010E+03  0.27395127269E+03  0.97165050837E+02 0.  0.
          5    1    3    3  502    0  0.68489727263E+02  0.41179878982E+01 -0.66839258638E+02  0.95902956473E+02  0.47000000000E+01 0.  1.
         -5    1    3    3    0  502 -0.10633808775E+02  0.89211083671E+02 -0.18835614028E+03  0.20873864262E+03  0.47000000000E+01 0.  1.
        -11    1    4    4    0    0 -0.71763477717E+02 -0.45638184024E+02 -0.88890002406E+02  0.12302143351E+03  0.00000000000E+00 0. -1.
         11    1    4    4    0    0  0.13907559229E+02 -0.47690887545E+02 -0.14252008770E+03  0.15092983918E+03  0.00000000000E+00 0.  1.
<mgrwt>
<rscale>  0 0.16120347E+03</rscale>
<asrwt>0</asrwt>
<pdfrwt beam="2">  1        2 0.81938330E-01 0.16637852E+03</pdfrwt>
<pdfrwt beam="1">  1       -2 0.70759530E-02 0.16637852E+03</pdfrwt>
<totfact> 0.64493869E+03</totfact>
</mgrwt>
</event>
<event>
 8    1  0.1646661E-005  0.1271853E+03  0.7546771E-02  0.1245622E+00
         -2   -1    0    0    0  501 -0.00000000000E+00  0.00000000000E+00  0.12873860478E+02  0.12873860478E+02  0.00000000000E+00 0.  1.
          2   -1    0    0  501    0  0.00000000000E+00 -0.00000000000E+00 -0.96923503090E+03  0.96923503090E+03  0.00000000000E+00 0. -1.
         23    2    1    2    0    0  0.13254101858E+02 -0.19370219921E+02 -0.57562765222E+03  0.58951107209E+03  0.12500093394E+03 0.  0.
         23    2    1    2    0    0 -0.13254101858E+02  0.19370219921E+02 -0.38073351821E+03  0.39259781929E+03  0.92866351217E+02 0.  0.
          5    1    3    3  502    0  0.54812588809E+02 -0.43116448036E+02 -0.44198827087E+03  0.44748091532E+03  0.47000000000E+01 0. -1.
         -5    1    3    3    0  502 -0.41558486951E+02  0.23746228115E+02 -0.13363938134E+03  0.14203015677E+03  0.47000000000E+01 0. -1.
        -11    1    4    4    0    0  0.20049979434E+02 -0.23282842888E+02 -0.60832032912E+02  0.68151512650E+02  0.00000000000E+00 0.  1.
         11    1    4    4    0    0 -0.33304081292E+02  0.42653062809E+02 -0.31990148529E+03  0.32444630664E+03  0.00000000000E+00 0. -1.
<mgrwt>
<rscale>  0 0.11848238E+03</rscale>
<asrwt>0</asrwt>
<pdfrwt beam="2">  1        2 0.14911314E+00 0.12718534E+03</pdfrwt>
<pdfrwt beam="1">  1       -2 0.19805932E-02 0.12718534E+03</pdfrwt>
<totfact> 0.20398314E+04</totfact>
</mgrwt>
</event>
<event>
 8    1  0.1646661E-005  0.1826232E+03  0.7546771E-02  0.1171024E+00
          1   -1    0    0  501    0  0.00000000000E+00  0.00000000000E+00  0.49396106758E+03  0.49396106758E+03  0.00000000000E+00 0. -1.
         -1   -1    0    0    0  501 -0.00000000000E+00 -0.00000000000E+00 -0.69947326694E+02  0.69947326694E+02  0.00000000000E+00 0.  1.
         23    2    1    2    0    0 -0.50254784827E+02 -0.12329140686E+03  0.11480784135E+03  0.21571296558E+03  0.12499971472E+03 0.  0.
         23    2    1    2    0    0  0.50254784827E+02  0.12329140686E+03  0.30920589953E+03  0.34819542870E+03  0.88912619207E+02 0.  0.
          5    1    3    3  502    0 -0.45047268240E+02 -0.14748174326E+03  0.11140353567E+03  0.19029702764E+03  0.47000000000E+01 0. -1.
         -5    1    3    3    0  502 -0.52075165861E+01  0.24190336396E+02  0.34043056827E+01  0.25415937935E+02  0.47000000000E+01 0. -1.
        -11    1    4    4    0    0  0.47411576388E+02  0.17982150881E+02  0.13972163184E+03  0.14863831851E+03  0.00000000000E+00 0. -1.
         11    1    4    4    0    0  0.28432084384E+01  0.10530925598E+03  0.16948426769E+03  0.19955711018E+03  0.00000000000E+00 0.  1.
<mgrwt>
<rscale>  0 0.17671130E+03</rscale>
<asrwt>0</asrwt>
<pdfrwt beam="1">  1        1 0.75994008E-01 0.18262323E+03</pdfrwt>
<pdfrwt beam="2">  1       -1 0.10761127E-01 0.18262323E+03</pdfrwt>
<totfact> 0.24628545E+03</totfact>
</mgrwt>
</event>
<event>
 8    1  0.1646661E-005  0.1392127E+03  0.7546771E-02  0.1225735E+00
         -1   -1    0    0    0  501 -0.00000000000E+00  0.00000000000E+00  0.58136066789E+03  0.58136066789E+03  0.00000000000E+00 0.  1.
          1   -1    0    0  501    0  0.00000000000E+00 -0.00000000000E+00 -0.27597307457E+02  0.27597307457E+02  0.00000000000E+00 0. -1.
         23    2    1    2    0    0 -0.53982229077E+02  0.29012139463E+02  0.36470748199E+03  0.39037382116E+03  0.12499755013E+03 0.  0.
         23    2    1    2    0    0  0.53982229077E+02 -0.29012139463E+02  0.18905587845E+03  0.21858415419E+03  0.91000670296E+02 0.  0.
          5    1    3    3  502    0 -0.57212511893E+02 -0.28808265842E+02  0.96327610913E+02  0.11577688164E+03  0.47000000000E+01 0. -1.
         -5    1    3    3    0  502  0.32302828162E+01  0.57820405306E+02  0.26837987107E+03  0.27459693952E+03  0.47000000000E+01 0. -1.
        -11    1    4    4    0    0  0.50242213491E+01  0.11721837719E+02 -0.54857014654E+01  0.13882982397E+02  0.00000000000E+00 0. -1.
         11    1    4    4    0    0  0.48958007728E+02 -0.40733977182E+02  0.19454157991E+03  0.20470117179E+03  0.00000000000E+00 0.  1.
<mgrwt>
<rscale>  0 0.13116667E+03</rscale>
<asrwt>0</asrwt>
<pdfrwt beam="2">  1        1 0.42457400E-02 0.13921269E+03</pdfrwt>
<pdfrwt beam="1">  1       -1 0.89440093E-01 0.13921269E+03</pdfrwt>
<totfact> 0.26061641E+03</totfact>
</mgrwt>
</event>
<event>
 7    1  0.1646661E-005  0.3395439E+03  0.7546771E-02  0.1098649E+00
         -2   -1    0    0    0  501 -0.00000000000E+00  0.00000000000E+00  0.28853459889E+02  0.28853459889E+02  0.00000000000E+00 0.  1.
          2   -1    0    0  501    0  0.00000000000E+00 -0.00000000000E+00 -0.20570751233E+04  0.20570751233E+04  0.00000000000E+00 0. -1.
         23    2    1    2    0    0  0.35380460344E+02 -0.10685920060E+03 -0.70594030346E+03  0.72074798802E+03  0.91952620694E+02 0.  0.
          5    1    1    2  502    0 -0.78857997843E+02 -0.86437155130E+01 -0.11524679132E+04  0.11552046046E+04  0.47000000000E+01 0. -1.
         -5    1    1    2    0  502  0.43477537499E+02  0.11550291611E+03 -0.16981344672E+03  0.20997599050E+03  0.47000000000E+01 0.  1.
        -11    1    3    3    0    0 -0.11441232414E+02 -0.95403081192E+02 -0.50939021037E+03  0.51837345237E+03  0.00000000000E+00 0.  1.
         11    1    3    3    0    0  0.46821692758E+02 -0.11456119409E+02 -0.19655009309E+03  0.20237453565E+03  0.00000000000E+00 0. -1.
<mgrwt>
<rscale>  0 0.27464645E+03</rscale>
<asrwt>0</asrwt>
<pdfrwt beam="2">  1        2 0.31647318E+00 0.33954390E+03</pdfrwt>
<pdfrwt beam="1">  1       -2 0.44389927E-02 0.33954390E+03</pdfrwt>
<totfact> 0.16177556E+03</totfact>
</mgrwt>
</event>
<event>
 8    1  0.1646661E-005  0.1417809E+03  0.7546771E-02  0.1221702E+00
         -4   -1    0    0    0  501 -0.00000000000E+00  0.00000000000E+00  0.83885796760E+03  0.83885796760E+03  0.00000000000E+00 0.  1.
          4   -1    0    0  501    0  0.00000000000E+00 -0.00000000000E+00 -0.87016078530E+02  0.87016078530E+02  0.00000000000E+00 0. -1.
         23    2    1    2    0    0 -0.21438606641E+02  0.63407957498E+02  0.79304420557E+03  0.80561836024E+03  0.12498658897E+03 0.  0.
         23    2    1    2    0    0  0.21438606641E+02 -0.63407957498E+02 -0.41202316509E+02  0.12025568589E+03  0.91014373452E+02 0.  0.
          5    1    3    3  502    0  0.93070490348E+01  0.62993679690E+02  0.16681884652E+03  0.17862094613E+03  0.47000000000E+01 0. -1.
         -5    1    3    3    0  502 -0.30745655676E+02  0.41427780762E+00  0.62622535905E+03  0.62699741410E+03  0.47000000000E+01 0. -1.
        -11    1    4    4    0    0 -0.17207454934E+02 -0.27638279524E+02 -0.56683426270E+02  0.65368048877E+02  0.00000000000E+00 0. -1.
         11    1    4    4    0    0  0.38646061574E+02 -0.35769677974E+02  0.15481109761E+02  0.54887637014E+02  0.00000000000E+00 0.  1.
<mgrwt>
<rscale>  0 0.13395559E+03</rscale>
<asrwt>0</asrwt>
<pdfrwt beam="2">  1        4 0.13387090E-01 0.14178092E+03</pdfrwt>
<pdfrwt beam="1">  1       -4 0.12905507E+00 0.14178092E+03</pdfrwt>
<totfact> 0.36336397E+01</totfact>
</mgrwt>
</event>
<event>
 8    1  0.1646661E-005  0.1318287E+03  0.7546771E-02  0.1233866E+00
         -1   -1    0    0    0  501 -0.00000000000E+00  0.00000000000E+00  0.10687379558E+03  0.10687379558E+03  0.00000000000E+00 0.  1.
          1   -1    0    0  501    0  0.00000000000E+00 -0.00000000000E+00 -0.13812017011E+03  0.13812017011E+03  0.00000000000E+00 0. -1.
         23    2    1    2    0    0  0.82840977589E+01 -0.41057799670E+02 -0.16865613411E+01  0.13183950680E+03  0.12499776748E+03 0.  0.
         23    2    1    2    0    0 -0.82840977589E+01  0.41057799670E+02 -0.29559813184E+02  0.11315445888E+03  0.10087507036E+03 0.  0.
          5    1    3    3  502    0  0.38535382925E+02  0.14493814979E+01  0.46549284262E+02  0.60630044608E+02  0.47000000000E+01 0. -1.
         -5    1    3    3    0  502 -0.30251285166E+02 -0.42507181168E+02 -0.48235845603E+02  0.71209462195E+02  0.47000000000E+01 0. -1.
        -11    1    4    4    0    0  0.17057162573E+02  0.32732465793E+02  0.30213732885E+02  0.47699379102E+02  0.00000000000E+00 0.  1.
         11    1    4    4    0    0 -0.25341260332E+02  0.83253338775E+01 -0.59773546069E+02  0.65455079780E+02  0.00000000000E+00 0. -1.
<mgrwt>
<rscale>  0 0.12577324E+03</rscale>
<asrwt>0</asrwt>
<pdfrwt beam="2">  1        1 0.21249257E-01 0.13182872E+03</pdfrwt>
<pdfrwt beam="1">  1       -1 0.16442122E-01 0.13182872E+03</pdfrwt>
<totfact> 0.62090483E+03</totfact>
</mgrwt>
</event>
<event>
 8    1  0.1646661E-005  0.1399377E+03  0.7546771E-02  0.1223972E+00
         -2   -1    0    0    0  501 -0.00000000000E+00  0.00000000000E+00  0.12098836827E+03  0.12098836827E+03  0.00000000000E+00 0.  1.
          2   -1    0    0  501    0  0.00000000000E+00 -0.00000000000E+00 -0.17425862367E+03  0.17425862367E+03  0.00000000000E+00 0. -1.
         23    2    1    2    0    0 -0.25830167851E+02  0.57264941234E+02  0.44178087726E+02  0.14674558462E+03  0.12504436055E+03 0.  0.
         23    2    1    2    0    0  0.25830167851E+02 -0.57264941234E+02 -0.97448343127E+02  0.14850140732E+03  0.92790179077E+02 0.  0.
          5    1    3    3  502    0  0.11481837487E+02  0.85242056547E+02  0.61003107284E+01  0.86355918080E+02  0.47000000000E+01 0. -1.
         -5    1    3    3    0  502 -0.37312005338E+02 -0.27977115313E+02  0.38077776997E+02  0.60389666539E+02  0.47000000000E+01 0. -1.
        -11    1    4    4    0    0  0.41226087501E+02  0.10276538629E+02 -0.31887038038E+02  0.53122318584E+02  0.00000000000E+00 0. -1.
         11    1    4    4    0    0 -0.15395919651E+02 -0.67541479863E+02 -0.65561305089E+02  0.95379088740E+02  0.00000000000E+00 0.  1.
<mgrwt>
<rscale>  0 0.13237611E+03</rscale>
<asrwt>0</asrwt>
<pdfrwt beam="2">  1        2 0.26809019E-01 0.13993771E+03</pdfrwt>
<pdfrwt beam="1">  1       -2 0.18613595E-01 0.13993771E+03</pdfrwt>
<totfact> 0.45345316E+03</totfact>
</mgrwt>
</event>
<event>
 8    1  0.1646661E-005  0.1282570E+03  0.7546771E-02  0.1233893E+00
         -2   -1    0    0    0  501 -0.00000000000E+00  0.00000000000E+00  0.28222634349E+02  0.28222634349E+02  0.00000000000E+00 0.  1.
          2   -1    0    0  501    0  0.00000000000E+00 -0.00000000000E+00 -0.55431735656E+03  0.55431735656E+03  0.00000000000E+00 0. -1.
         23    2    1    2    0    0  0.11106118853E+02 -0.10016120322E+02 -0.22560073508E+03  0.25951021501E+03  0.12738206891E+03 0.  0.
         23    2    1    2    0    0 -0.11106118853E+02  0.10016120322E+02 -0.30049398712E+03  0.32302977590E+03  0.11759222456E+03 0.  0.
          5    1    3    3  502    0 -0.30125709040E+02  0.47466274428E+02 -0.84538948220E+02  0.10163429204E+03  0.47000000000E+01 0. -1.
         -5    1    3    3    0  502  0.41231827893E+02 -0.57482394750E+02 -0.14106178686E+03  0.15787592296E+03  0.47000000000E+01 0.  1.
        -11    1    4    4    0    0  0.32680199428E+02 -0.31968519345E+02 -0.20393626379E+03  0.20899756303E+03  0.00000000000E+00 0.  1.
         11    1    4    4    0    0 -0.43786318281E+02  0.41984639667E+02 -0.96557723335E+02  0.11403221287E+03  0.00000000000E+00 0. -1.
<mgrwt>
<rscale>  0 0.12575537E+03</rscale>
<asrwt>0</asrwt>
<pdfrwt beam="2">  1        2 0.85279592E-01 0.12825701E+03</pdfrwt>
<pdfrwt beam="1">  1       -2 0.43419438E-02 0.12825701E+03</pdfrwt>
<totfact> 0.12701743E+04</totfact>
</mgrwt>
</event>
<event>
 8    1  0.1646661E-005  0.1324849E+03  0.7546771E-02  0.1236916E+00
          3   -1    0    0  501    0  0.00000000000E+00  0.00000000000E+00  0.10931280657E+03  0.10931280657E+03  0.00000000000E+00 0. -1.
         -3   -1    0    0    0  501 -0.00000000000E+00 -0.00000000000E+00 -0.12753470119E+03  0.12753470119E+03  0.00000000000E+00 0.  1.
         23    2    1    2    0    0 -0.90841934967E+01  0.42887316395E+02  0.69337153715E+01  0.13266624106E+03  0.12502164065E+03 0.  0.
         23    2    1    2    0    0  0.90841934967E+01 -0.42887316395E+02 -0.25155609997E+02  0.10418126670E+03  0.91099325673E+02 0.  0.
          5    1    3    3  502    0 -0.64595121800E+02  0.54697392096E+01 -0.16041318106E+01  0.65016236790E+02  0.47000000000E+01 0. -1.
         -5    1    3    3    0  502  0.55510928304E+02  0.37417577185E+02  0.85378471820E+01  0.67650004272E+02  0.47000000000E+01 0. -1.
        -11    1    4    4    0    0  0.32891078222E+02 -0.45826777908E+02  0.14129907263E+02  0.58151275818E+02  0.00000000000E+00 0. -1.
         11    1    4    4    0    0 -0.23806884725E+02  0.29394615131E+01 -0.39285517260E+02  0.46029990883E+02  0.00000000000E+00 0.  1.
<mgrwt>
<rscale>  0 0.12382580E+03</rscale>
<asrwt>0</asrwt>
<pdfrwt beam="1">  1        3 0.16817355E-01 0.13248492E+03</pdfrwt>
<pdfrwt beam="2">  1       -3 0.19620723E-01 0.13248492E+03</pdfrwt>
<totfact> 0.16165840E+03</totfact>
</mgrwt>
</event>
<event>
 8    1  0.2580734E-005  0.1280483E+03  0.7546771E-02  0.1255781E+00
         -2   -1    0    0    0  501 -0.00000000000E+00  0.00000000000E+00  0.10473213976E+04  0.10473213976E+04  0.00000000000E+00 0.  1.
          2   -1    0    0  501    0  0.00000000000E+00 -0.00000000000E+00 -0.10678337762E+02  0.10678337762E+02  0.00000000000E+00 0. -1.
         23    2    1    2    0    0 -0.14699693987E+02 -0.23564256372E+02  0.76949223285E+03  0.78007349565E+03  0.12500002806E+03 0.  0.
         23    2    1    2    0    0  0.14699693987E+02  0.23564256372E+02  0.26715082695E+03  0.27792623967E+03  0.71428811962E+02 0.  0.
          5    1    3    3  502    0  0.12662278839E+02  0.46557201296E+02  0.40276001993E+03  0.40566689531E+03  0.47000000000E+01 0. -1.
         -5    1    3    3    0  502 -0.27361972826E+02 -0.70121457668E+02  0.36673221292E+03  0.37440660034E+03  0.47000000000E+01 0. -1.
        -11    1    4    4    0    0  0.29717750961E+02 -0.10412550043E+02  0.18639361848E+03  0.18903477704E+03  0.00000000000E+00 0.  1.
         11    1    4    4    0    0 -0.15018056974E+02  0.33976806415E+02  0.80757208462E+02  0.88891462628E+02  0.00000000000E+00 0. -1.
<mgrwt>
<rscale>  0 0.11262681E+03</rscale>
<asrwt>0</asrwt>
<pdfrwt beam="2">  1        2 0.16428220E-02 0.12804828E+03</pdfrwt>
<pdfrwt beam="1">  1       -2 0.16112629E+00 0.12804828E+03</pdfrwt>
<totfact> 0.18054580E+03</totfact>
</mgrwt>
</event>
<event>
 8    1  0.1646661E-005  0.1318741E+03  0.7546771E-02  0.1240787E+00
         -2   -1    0    0    0  501 -0.00000000000E+00  0.00000000000E+00  0.67462540036E+02  0.67462540036E+02  0.00000000000E+00 0.  1.
          2   -1    0    0  501    0  0.00000000000E+00 -0.00000000000E+00 -0.20029856046E+03  0.20029856046E+03  0.00000000000E+00 0. -1.
         23    2    1    2    0    0 -0.84889414289E+01  0.41151980320E+02 -0.47248804282E+02  0.14008293363E+03  0.12500092471E+03 0.  0.
         23    2    1    2    0    0  0.84889414289E+01 -0.41151980320E+02 -0.85587216141E+02  0.12767816686E+03  0.84917578365E+02 0.  0.
          5    1    3    3  502    0 -0.50004763487E+02  0.42744272632E+02 -0.66848121577E+02  0.93905860161E+02  0.47000000000E+01 0.  1.
         -5    1    3    3    0  502  0.41515822058E+02 -0.15922923123E+01  0.19599317295E+02  0.46177073471E+02  0.47000000000E+01 0.  1.
        -11    1    4    4    0    0 -0.74778073397E+01  0.25294074203E+02 -0.25307174819E+02  0.36553534573E+02  0.00000000000E+00 0.  1.
         11    1    4    4    0    0  0.15966748769E+02 -0.66446054523E+02 -0.60280041321E+02  0.91124632288E+02  0.00000000000E+00 0. -1.
<mgrwt>
<rscale>  0 0.12141107E+03</rscale>
<asrwt>0</asrwt>
<pdfrwt beam="2">  1        2 0.30815162E-01 0.13187410E+03</pdfrwt>
<pdfrwt beam="1">  1       -2 0.10378853E-01 0.13187410E+03</pdfrwt>
<totfact> 0.10013178E+04</totfact>
</mgrwt>
</event>
<event>
 8    1  0.1646661E-005  0.1319405E+03  0.7546771E-02  0.1238157E+00
         -2   -1    0    0    0  501 -0.00000000000E+00  0.00000000000E+00  0.58312085430E+02  0.58312085430E+02  0.00000000000E+00 0.  1.
          2   -1    0    0  501    0  0.00000000000E+00 -0.00000000000E+00 -0.38419140992E+03  0.38419140992E+03  0.00000000000E+00 0. -1.
         23    2    1    2    0    0  0.17468959182E+02  0.38449338107E+02 -0.37234874187E+02  0.13709391963E+03  0.12499916323E+03 0.  0.
         23    2    1    2    0    0 -0.17468959182E+02 -0.38449338107E+02 -0.28864445030E+03  0.30540957572E+03  0.90420540334E+02 0.  0.
          5    1    3    3  502    0  0.26729726194E+02 -0.25606893756E+02  0.26789097944E+02  0.45934050974E+02  0.47000000000E+01 0. -1.
         -5    1    3    3    0  502 -0.92607670119E+01  0.64056231863E+02 -0.64023972131E+02  0.91159868657E+02  0.47000000000E+01 0. -1.
        -11    1    4    4    0    0 -0.43140697107E+01  0.28750183361E+02 -0.59002188772E+02  0.65775698557E+02  0.00000000000E+00 0.  1.
         11    1    4    4    0    0 -0.13154889471E+02 -0.67199521468E+02 -0.22964226153E+03  0.23963387716E+03  0.00000000000E+00 0. -1.
<mgrwt>
<rscale>  0 0.12304467E+03</rscale>
<asrwt>0</asrwt>
<pdfrwt beam="2">  1        2 0.59106373E-01 0.13194054E+03</pdfrwt>
<pdfrwt beam="1">  1       -2 0.89710897E-02 0.13194054E+03</pdfrwt>
<totfact> 0.62899429E+03</totfact>
</mgrwt>
</event>
<event>
 8    1  0.1646661E-005  0.1298277E+03  0.7546771E-02  0.1241260E+00
         -1   -1    0    0    0  501 -0.00000000000E+00  0.00000000000E+00  0.27878468757E+03  0.27878468757E+03  0.00000000000E+00 0.  1.
          1   -1    0    0  501    0  0.00000000000E+00 -0.00000000000E+00 -0.60405737999E+02  0.60405737999E+02  0.00000000000E+00 0. -1.
         23    2    1    2    0    0 -0.28004368801E+02  0.21116813372E+02  0.20105332721E+03  0.23932756755E+03  0.12500031891E+03 0.  0.
         23    2    1    2    0    0  0.28004368801E+02 -0.21116813372E+02  0.17325622361E+02  0.99862858021E+02  0.91881710601E+02 0.  0.
          5    1    3    3  502    0 -0.12415555090E+02  0.63650917846E+02  0.17538212888E+03  0.18704696331E+03  0.47000000000E+01 0.  1.
         -5    1    3    3    0  502 -0.15588813710E+02 -0.42534104474E+02  0.25671198325E+02  0.52280604240E+02  0.47000000000E+01 0.  1.
        -11    1    4    4    0    0 -0.16557401617E+02  0.20366459066E+02  0.27635866970E+02  0.38114057070E+02  0.00000000000E+00 0.  1.
         11    1    4    4    0    0  0.44561770418E+02 -0.41483272438E+02 -0.10310244608E+02  0.61748800951E+02  0.00000000000E+00 0. -1.
<mgrwt>
<rscale>  0 0.12112046E+03</rscale>
<asrwt>0</asrwt>
<pdfrwt beam="2">  1        1 0.92931906E-02 0.12982775E+03</pdfrwt>
<pdfrwt beam="1">  1       -1 0.42889951E-01 0.12982775E+03</pdfrwt>
<totfact> 0.36947823E+03</totfact>
</mgrwt>
</event>
<event>
 8    1  0.1646661E-005  0.1760501E+03  0.7546771E-02  0.1177621E+00
         -2   -1    0    0    0  501 -0.00000000000E+00  0.00000000000E+00  0.76807465460E+02  0.76807465460E+02  0.00000000000E+00 0.  1.
          2   -1    0    0  501    0  0.00000000000E+00 -0.00000000000E+00 -0.35449617135E+03  0.35449617135E+03  0.00000000000E+00 0. -1.
         23    2    1    2    0    0 -0.73099946902E+02  0.10012748182E+03 -0.15381064731E+03  0.23377629898E+03  0.12499811154E+03 0.  0.
         23    2    1    2    0    0  0.73099946902E+02 -0.10012748182E+03 -0.12387805859E+03  0.19752733783E+03  0.91116194714E+02 0.  0.
          5    1    3    3  502    0 -0.85814421900E+01  0.23599973051E+02  0.20473118491E+02  0.32738944070E+02  0.47000000000E+01 0. -1.
         -5    1    3    3    0  502 -0.64518504712E+02  0.76527508770E+02 -0.17428376580E+03  0.20103735491E+03  0.47000000000E+01 0. -1.
        -11    1    4    4    0    0  0.23476677538E+02 -0.84003952999E+02 -0.34026713776E+02  0.93624974009E+02  0.00000000000E+00 0.  1.
         11    1    4    4    0    0  0.49623269364E+02 -0.16123528822E+02 -0.89851344810E+02  0.10390236382E+03  0.00000000000E+00 0. -1.
<mgrwt>
<rscale>  0 0.17021779E+03</rscale>
<asrwt>0</asrwt>
<pdfrwt beam="2">  1        2 0.54537872E-01 0.17605011E+03</pdfrwt>
<pdfrwt beam="1">  1       -2 0.11816533E-01 0.17605011E+03</pdfrwt>
<totfact> 0.45056208E+03</totfact>
</mgrwt>
</event>
<event>
 8    1  0.1646661E-005  0.1564698E+03  0.7546771E-02  0.1201152E+00
          2   -1    0    0  501    0  0.00000000000E+00  0.00000000000E+00  0.10774518926E+04  0.10774518926E+04  0.00000000000E+00 0. -1.
         -2   -1    0    0    0  501 -0.00000000000E+00 -0.00000000000E+00 -0.19071742218E+02  0.19071742218E+02  0.00000000000E+00 0.  1.
         23    2    1    2    0    0 -0.66675045874E+01  0.93874663466E+02  0.58141621516E+03  0.60210267115E+03  0.12500361313E+03 0.  0.
         23    2    1    2    0    0  0.66675045874E+01 -0.93874663466E+02  0.47696393522E+03  0.49442096367E+03  0.90003254137E+02 0.  0.
          5    1    3    3  502    0  0.10312754703E+02  0.63270451100E+02  0.96774754135E+02  0.11617635702E+03  0.47000000000E+01 0. -1.
         -5    1    3    3    0  502 -0.16980259290E+02  0.30604212366E+02  0.48464146103E+03  0.48592631413E+03  0.47000000000E+01 0. -1.
        -11    1    4    4    0    0 -0.37665424681E+02 -0.56709516038E+02  0.19384236574E+03  0.20544954656E+03  0.00000000000E+00 0.  1.
         11    1    4    4    0    0  0.44332929269E+02 -0.37165147429E+02  0.28312156948E+03  0.28897141711E+03  0.00000000000E+00 0. -1.
<mgrwt>
<rscale>  0 0.14944906E+03</rscale>
<asrwt>0</asrwt>
<pdfrwt beam="1">  1        2 0.16576178E+00 0.15646984E+03</pdfrwt>
<pdfrwt beam="2">  1       -2 0.29341150E-02 0.15646984E+03</pdfrwt>
<totfact> 0.10041315E+04</totfact>
</mgrwt>
</event>
<event>
 8    1  0.1646661E-005  0.1551018E+03  0.7546771E-02  0.1202956E+00
          1   -1    0    0  501    0  0.00000000000E+00  0.00000000000E+00  0.85052890343E+03  0.85052890343E+03  0.00000000000E+00 0. -1.
         -1   -1    0    0    0  501 -0.00000000000E+00 -0.00000000000E+00 -0.26711318914E+02  0.26711318914E+02  0.00000000000E+00 0.  1.
         23    2    1    2    0    0  0.90327341364E+02  0.16617121029E+02  0.29819448354E+03  0.33611981319E+03  0.12498568516E+03 0.  0.
         23    2    1    2    0    0 -0.90327341364E+02 -0.16617121029E+02  0.52562310098E+03  0.54112040916E+03  0.89980529091E+02 0.  0.
          5    1    3    3  502    0  0.11286886195E+03 -0.71291854892E+01  0.26959468518E+03  0.29239286853E+03  0.47000000000E+01 0. -1.
         -5    1    3    3    0  502 -0.22541520590E+02  0.23746306519E+02  0.28599798358E+02  0.43726944667E+02  0.47000000000E+01 0. -1.
        -11    1    4    4    0    0 -0.22738349489E+02  0.35096530233E+02  0.21620159106E+03  0.22020882578E+03  0.00000000000E+00 0.  1.
         11    1    4    4    0    0 -0.67588991875E+02 -0.51713651262E+02  0.30942150991E+03  0.32091158338E+03  0.00000000000E+00 0. -1.
<mgrwt>
<rscale>  0 0.14799677E+03</rscale>
<asrwt>0</asrwt>
<pdfrwt beam="1">  1        1 0.13085058E+00 0.15510183E+03</pdfrwt>
<pdfrwt beam="2">  1       -1 0.41094343E-02 0.15510183E+03</pdfrwt>
<totfact> 0.48385572E+03</totfact>
</mgrwt>
</event>
<event>
 8    1  0.1646661E-005  0.1280174E+03  0.7546771E-02  0.1245589E+00
         -2   -1    0    0    0  501 -0.00000000000E+00  0.00000000000E+00  0.46031267061E+02  0.46031267061E+02  0.00000000000E+00 0.  1.
          2   -1    0    0  501    0  0.00000000000E+00 -0.00000000000E+00 -0.29230965142E+03  0.29230965142E+03  0.00000000000E+00 0. -1.
         23    2    1    2    0    0 -0.27387221693E+02  0.36331556488E+01 -0.91858305993E+02  0.15756396460E+03  0.12500077931E+03 0.  0.
         23    2    1    2    0    0  0.27387221693E+02 -0.36331556488E+01 -0.15442007837E+03  0.18077695389E+03  0.89841453244E+02 0.  0.
          5    1    3    3  502    0 -0.44597947355E+02 -0.48126125207E+02 -0.23205786987E+02  0.69754565337E+02  0.47000000000E+01 0. -1.
         -5    1    3    3    0  502  0.17210725662E+02  0.51759280856E+02 -0.68652519006E+02  0.87809399260E+02  0.47000000000E+01 0. -1.
        -11    1    4    4    0    0  0.23453826198E+02  0.28540666417E+02 -0.14089096632E+03  0.14565341051E+03  0.00000000000E+00 0. -1.
         11    1    4    4    0    0  0.39333954943E+01 -0.32173822066E+02 -0.13529112050E+02  0.35123543377E+02  0.00000000000E+00 0.  1.
<mgrwt>
<rscale>  0 0.11850209E+03</rscale>
<asrwt>0</asrwt>
<pdfrwt beam="2">  1        2 0.44970715E-01 0.12801740E+03</pdfrwt>
<pdfrwt beam="1">  1       -2 0.70817334E-02 0.12801740E+03</pdfrwt>
<totfact> 0.12076225E+04</totfact>
</mgrwt>
</event>
<event>
 8    1  0.1646661E-005  0.1580428E+03  0.7546771E-02  0.1195754E+00
          1   -1    0    0  501    0  0.00000000000E+00  0.00000000000E+00  0.17968586208E+03  0.17968586208E+03  0.00000000000E+00 0. -1.
         -1   -1    0    0    0  501 -0.00000000000E+00 -0.00000000000E+00 -0.13515457502E+03  0.13515457502E+03  0.00000000000E+00 0.  1.
         23    2    1    2    0    0  0.52240646083E+02  0.96078073227E+02  0.65670556271E+02  0.17114363446E+03  0.11409399808E+03 0.  0.
         23    2    1    2    0    0 -0.52240646083E+02 -0.96078073227E+02 -0.21139269215E+02  0.14369680264E+03  0.90784476249E+02 0.  0.
          5    1    3    3  502    0  0.72532846898E+02  0.11048418731E+03  0.59828402140E+02  0.14515266869E+03  0.47000000000E+01 0. -1.
         -5    1    3    3    0  502 -0.20292200815E+02 -0.14406114083E+02  0.58421541308E+01  0.25990965772E+02  0.47000000000E+01 0.  1.
        -11    1    4    4    0    0  0.13105682712E+02 -0.70369620120E+02 -0.57610810738E+01  0.71811088352E+02  0.00000000000E+00 0. -1.
         11    1    4    4    0    0 -0.65346328795E+02 -0.25708453106E+02 -0.15378188141E+02  0.71885714287E+02  0.00000000000E+00 0.  1.
<mgrwt>
<rscale>  0 0.15390582E+03</rscale>
<asrwt>0</asrwt>
<pdfrwt beam="1">  1        1 0.27643979E-01 0.15804278E+03</pdfrwt>
<pdfrwt beam="2">  1       -1 0.20793012E-01 0.15804278E+03</pdfrwt>
<totfact> 0.30957882E+03</totfact>
</mgrwt>
</event>
<event>
 8    1  0.1646661E-005  0.1411981E+03  0.7546771E-02  0.1225100E+00
          1   -1    0    0  501    0  0.00000000000E+00  0.00000000000E+00  0.35129378982E+02  0.35129378982E+02  0.00000000000E+00 0. -1.
         -1   -1    0    0    0  501 -0.00000000000E+00 -0.00000000000E+00 -0.46765670955E+03  0.46765670955E+03  0.00000000000E+00 0.  1.
         23    2    1    2    0    0 -0.56925230933E+02  0.32733834231E+02 -0.30849792834E+03  0.33927552458E+03  0.12499969589E+03 0.  0.
         23    2    1    2    0    0  0.56925230933E+02 -0.32733834231E+02 -0.12402940223E+03  0.16351056395E+03  0.83907246916E+02 0.  0.
          5    1    3    3  502    0 -0.15355190136E+02  0.34449907390E+02 -0.29169297454E+03  0.29415890158E+03  0.47000000000E+01 0. -1.
         -5    1    3    3    0  502 -0.41570040797E+02 -0.17160731596E+01 -0.16804953796E+02  0.45116623002E+02  0.47000000000E+01 0. -1.
        -11    1    4    4    0    0  0.29207201136E+02 -0.60454755133E+02 -0.73341260506E+02  0.99432281021E+02  0.00000000000E+00 0. -1.
         11    1    4    4    0    0  0.27718029797E+02  0.27720920902E+02 -0.50688141722E+02  0.64078282926E+02  0.00000000000E+00 0.  1.
<mgrwt>
<rscale>  0 0.13160055E+03</rscale>
<asrwt>0</asrwt>
<pdfrwt beam="1">  1        1 0.54045200E-02 0.14119812E+03</pdfrwt>
<pdfrwt beam="2">  1       -1 0.71947184E-01 0.14119812E+03</pdfrwt>
<totfact> 0.29284229E+03</totfact>
</mgrwt>
</event>
<event>
 8    1  0.1646661E-005  0.1537081E+03  0.7546771E-02  0.1204766E+00
          1   -1    0    0  501    0  0.00000000000E+00  0.00000000000E+00  0.73387807647E+02  0.73387807647E+02  0.00000000000E+00 0. -1.
         -1   -1    0    0    0  501 -0.00000000000E+00 -0.00000000000E+00 -0.26860301061E+03  0.26860301061E+03  0.00000000000E+00 0.  1.
         23    2    1    2    0    0 -0.12182541432E+02 -0.88575807336E+02 -0.10379961962E+03  0.18547384236E+03  0.12502838560E+03 0.  0.
         23    2    1    2    0    0  0.12182541432E+02  0.88575807336E+02 -0.91415583335E+02  0.15651697589E+03  0.90258888226E+02 0.  0.
          5    1    3    3  502    0  0.61336643849E+01 -0.10340929005E+03 -0.11837060861E+03  0.15736833890E+03  0.47000000000E+01 0.  1.
         -5    1    3    3    0  502 -0.18316205817E+02  0.14833482709E+02  0.14570988986E+02  0.28105503462E+02  0.47000000000E+01 0.  1.
        -11    1    4    4    0    0  0.94406169399E+01  0.39426987430E+02  0.11749432950E+02  0.42209735377E+02  0.00000000000E+00 0. -1.
         11    1    4    4    0    0  0.27419244919E+01  0.49148819907E+02 -0.10316501628E+03  0.11430724051E+03  0.00000000000E+00 0.  1.
<mgrwt>
<rscale>  0 0.14655920E+03</rscale>
<asrwt>0</asrwt>
<pdfrwt beam="1">  1        1 0.11290432E-01 0.15370812E+03</pdfrwt>
<pdfrwt beam="2">  1       -1 0.41323541E-01 0.15370812E+03</pdfrwt>
<totfact> 0.30770417E+03</totfact>
</mgrwt>
</event>
<event>
 8    1  0.1646661E-005  0.1419591E+03  0.7546771E-02  0.1221088E+00
         -2   -1    0    0    0  501 -0.00000000000E+00  0.00000000000E+00  0.71487111360E+02  0.71487111360E+02  0.00000000000E+00 0.  1.
          2   -1    0    0  501    0  0.00000000000E+00 -0.00000000000E+00 -0.23332930639E+03  0.23332930639E+03  0.00000000000E+00 0. -1.
         23    2    1    2    0    0  0.17556021814E+02 -0.64956466621E+02 -0.69269496016E+02  0.15795771136E+03  0.12499927616E+03 0.  0.
         23    2    1    2    0    0 -0.17556021814E+02  0.64956466621E+02 -0.92572699017E+02  0.14685870639E+03  0.92033790439E+02 0.  0.
          5    1    3    3  502    0  0.46799009502E+02  0.79379410305E+01 -0.63008214590E+02  0.79027104869E+02  0.47000000000E+01 0.  1.
         -5    1    3    3    0  502 -0.29242987688E+02 -0.72894407652E+02 -0.62612814259E+01  0.78930606490E+02  0.47000000000E+01 0.  1.
        -11    1    4    4    0    0 -0.22581918705E+02  0.15218647294E+02 -0.92959627518E+02  0.96866106695E+02  0.00000000000E+00 0. -1.
         11    1    4    4    0    0  0.50258968912E+01  0.49737819327E+02  0.38692850158E+00  0.49992599699E+02  0.00000000000E+00 0.  1.
<mgrwt>
<rscale>  0 0.13438660E+03</rscale>
<asrwt>0</asrwt>
<pdfrwt beam="2">  1        2 0.35896816E-01 0.14195906E+03</pdfrwt>
<pdfrwt beam="1">  1       -2 0.10998017E-01 0.14195906E+03</pdfrwt>
<totfact> 0.77959329E+03</totfact>
</mgrwt>
</event>
<event>
 8    1  0.1646661E-005  0.1293946E+03  0.7546771E-02  0.1241302E+00
         -1   -1    0    0    0  501 -0.00000000000E+00  0.00000000000E+00  0.13083034429E+03  0.13083034429E+03  0.00000000000E+00 0.  1.
          1   -1    0    0  501    0  0.00000000000E+00 -0.00000000000E+00 -0.10802048017E+03  0.10802048017E+03  0.00000000000E+00 0. -1.
         23    2    1    2    0    0 -0.22592017526E+02 -0.24661495320E+02  0.45271920887E+02  0.13708579772E+03  0.12499752201E+03 0.  0.
         23    2    1    2    0    0  0.22592017526E+02  0.24661495320E+02 -0.22462056760E+02  0.10176502674E+03  0.93450457821E+02 0.  0.
          5    1    3    3  502    0 -0.71936182125E+02  0.38300152046E+01  0.23776647852E+02  0.76005935941E+02  0.47000000000E+01 0. -1.
         -5    1    3    3    0  502  0.49344164599E+02 -0.28491510525E+02  0.21495273035E+02  0.61079861778E+02  0.47000000000E+01 0. -1.
        -11    1    4    4    0    0  0.57324204405E+02  0.14058920860E+02  0.79783848847E-01  0.59023080502E+02  0.00000000000E+00 0.  1.
         11    1    4    4    0    0 -0.34732186879E+02  0.10602574460E+02 -0.22541840609E+02  0.42741946243E+02  0.00000000000E+00 0. -1.
<mgrwt>
<rscale>  0 0.12109477E+03</rscale>
<asrwt>0</asrwt>
<pdfrwt beam="2">  1        1 0.16618535E-01 0.12939463E+03</pdfrwt>
<pdfrwt beam="1">  1       -1 0.20127745E-01 0.12939463E+03</pdfrwt>
<totfact> 0.61494570E+03</totfact>
</mgrwt>
</event>
<event>
 8    1  0.1646661E-005  0.1557249E+03  0.7546771E-02  0.1200630E+00
          2   -1    0    0  501    0  0.00000000000E+00  0.00000000000E+00  0.27870552024E+03  0.27870552024E+03  0.00000000000E+00 0. -1.
         -2   -1    0    0    0  501 -0.00000000000E+00 -0.00000000000E+00 -0.77067892411E+02  0.77067892411E+02  0.00000000000E+00 0.  1.
         23    2    1    2    0    0 -0.19762013388E+02 -0.94068728150E+02  0.79896721560E+02  0.17502495975E+03  0.12251851954E+03 0.  0.
         23    2    1    2    0    0  0.19762013388E+02  0.94068728150E+02  0.12174090627E+03  0.18074845291E+03  0.92788426971E+02 0.  0.
          5    1    3    3  502    0 -0.65512152631E+02 -0.34136925157E+02  0.63938894951E+02  0.97813312433E+02  0.47000000000E+01 0. -1.
         -5    1    3    3    0  502  0.45750139243E+02 -0.59931802992E+02  0.15957826608E+02  0.77211647313E+02  0.47000000000E+01 0.  1.
        -11    1    4    4    0    0  0.17654241974E+02  0.11204430429E+03  0.11474579126E+03  0.16134495652E+03  0.00000000000E+00 0.  1.
         11    1    4    4    0    0  0.21077714139E+01 -0.17975576141E+02  0.69951150149E+01  0.19403496386E+02  0.00000000000E+00 0. -1.
<mgrwt>
<rscale>  0 0.14987210E+03</rscale>
<asrwt>0</asrwt>
<pdfrwt beam="1">  1        2 0.42877772E-01 0.15572492E+03</pdfrwt>
<pdfrwt beam="2">  1       -2 0.11856599E-01 0.15572492E+03</pdfrwt>
<totfact> 0.57553435E+03</totfact>
</mgrwt>
</event>
<event>
 8    1  0.1646661E-005  0.1368006E+03  0.7546771E-02  0.1229604E+00
          1   -1    0    0  501    0  0.00000000000E+00  0.00000000000E+00  0.68809644806E+03  0.68809644806E+03  0.00000000000E+00 0. -1.
         -1   -1    0    0    0  501 -0.00000000000E+00 -0.00000000000E+00 -0.25483744488E+02  0.25483744488E+02  0.00000000000E+00 0.  1.
         23    2    1    2    0    0  0.16587621846E+02  0.53048195957E+02  0.22653321700E+03  0.26463506049E+03  0.12500062618E+03 0.  0.
         23    2    1    2    0    0 -0.16587621846E+02 -0.53048195957E+02  0.43607948657E+03  0.44894513205E+03  0.91088707821E+02 0.  0.
          5    1    3    3  502    0  0.52691480080E+02 -0.18861931605E+02  0.90045387768E+02  0.10612457960E+03  0.47000000000E+01 0. -1.
         -5    1    3    3    0  502 -0.36103858234E+02  0.71910127561E+02  0.13648782923E+03  0.15851048089E+03  0.47000000000E+01 0. -1.
        -11    1    4    4    0    0 -0.27849069596E+02 -0.75405754202E+02  0.35951813994E+03  0.36839502085E+03  0.00000000000E+00 0. -1.
         11    1    4    4    0    0  0.11261447750E+02  0.22357558245E+02  0.76561346633E+02  0.80550111200E+02  0.00000000000E+00 0.  1.
<mgrwt>
<rscale>  0 0.12856255E+03</rscale>
<asrwt>0</asrwt>
<pdfrwt beam="1">  1        1 0.10586098E+00 0.13680065E+03</pdfrwt>
<pdfrwt beam="2">  1       -1 0.39205766E-02 0.13680065E+03</pdfrwt>
<totfact> 0.70601009E+03</totfact>
</mgrwt>
</event>
<event>
 8    1  0.2267022E-005  0.1819239E+03  0.7546771E-02  0.1171335E+00
         -3   -1    0    0    0  501 -0.00000000000E+00  0.00000000000E+00  0.16054342943E+03  0.16054342943E+03  0.00000000000E+00 0.  1.
          3   -1    0    0  501    0  0.00000000000E+00 -0.00000000000E+00 -0.19438883892E+03  0.19438883892E+03  0.00000000000E+00 0. -1.
         23    2    1    2    0    0  0.11745895379E+03  0.60619346199E+02  0.25126729190E+02  0.18365093217E+03  0.12500000562E+03 0.  0.
         23    2    1    2    0    0 -0.11745895379E+03 -0.60619346199E+02 -0.58972138679E+02  0.17128133618E+03  0.91587510201E+02 0.  0.
          5    1    3    3  502    0  0.95606780843E+02  0.33656356708E+01  0.59962974782E+02  0.11300279816E+03  0.47000000000E+01 0. -1.
         -5    1    3    3    0  502  0.21852172952E+02  0.57253710528E+02 -0.34836245592E+02  0.70648134008E+02  0.47000000000E+01 0. -1.
        -11    1    4    4    0    0 -0.92809042622E+02 -0.65680892701E+02 -0.74508371401E+01  0.11394302538E+03  0.00000000000E+00 0.  1.
         11    1    4    4    0    0 -0.24649911173E+02  0.50615465018E+01 -0.51521301539E+02  0.57338310806E+02  0.00000000000E+00 0. -1.
<mgrwt>
<rscale>  0 0.17639856E+03</rscale>
<asrwt>0</asrwt>
<pdfrwt beam="2">  1        3 0.29905975E-01 0.18192392E+03</pdfrwt>
<pdfrwt beam="1">  1       -3 0.24698989E-01 0.18192392E+03</pdfrwt>
<totfact> 0.40041432E+02</totfact>
</mgrwt>
</event>
<event>
 8    1  0.1646661E-005  0.1270469E+03  0.7546771E-02  0.1246070E+00
         -1   -1    0    0    0  501 -0.00000000000E+00  0.00000000000E+00  0.63979210351E+02  0.63979210351E+02  0.00000000000E+00 0.  1.
          1   -1    0    0  501    0  0.00000000000E+00 -0.00000000000E+00 -0.26691730172E+03  0.26691730172E+03  0.00000000000E+00 0. -1.
         23    2    1    2    0    0  0.43407018879E+01 -0.22215177649E+02 -0.25596310595E+02  0.12959971814E+03  0.12501423925E+03 0.  0.
         23    2    1    2    0    0 -0.43407018879E+01  0.22215177649E+02 -0.17734178077E+03  0.20129679393E+03  0.92509114288E+02 0.  0.
          5    1    3    3  502    0 -0.25005342410E+02  0.18430018325E+02 -0.60611349991E+02  0.68269747855E+02  0.47000000000E+01 0.  1.
         -5    1    3    3    0  502  0.29346044298E+02 -0.40645195974E+02  0.35015039396E+02  0.61329970288E+02  0.47000000000E+01 0.  1.
        -11    1    4    4    0    0 -0.32215207605E+02  0.47490561530E+02 -0.11377782508E+03  0.12743063413E+03  0.00000000000E+00 0. -1.
         11    1    4    4    0    0  0.27874505717E+02 -0.25275383881E+02 -0.63563955698E+02  0.73866159798E+02  0.00000000000E+00 0.  1.
<mgrwt>
<rscale>  0 0.11821585E+03</rscale>
<asrwt>0</asrwt>
<pdfrwt beam="2">  1        1 0.41064201E-01 0.12704690E+03</pdfrwt>
<pdfrwt beam="1">  1       -1 0.98429553E-02 0.12704690E+03</pdfrwt>
<totfact> 0.60332683E+03</totfact>
</mgrwt>
</event>
<event>
 8    1  0.1646661E-005  0.1277082E+03  0.7546771E-02  0.1245741E+00
          1   -1    0    0  501    0  0.00000000000E+00  0.00000000000E+00  0.28733457271E+03  0.28733457271E+03  0.00000000000E+00 0. -1.
         -1   -1    0    0    0  501 -0.00000000000E+00 -0.00000000000E+00 -0.49776316318E+02  0.49776316318E+02  0.00000000000E+00 0.  1.
         23    2    1    2    0    0 -0.47416407088E+01  0.25725790022E+02  0.72185933654E+02  0.14669762879E+03  0.12500034339E+03 0.  0.
         23    2    1    2    0    0  0.47416407088E+01 -0.25725790022E+02  0.16537232274E+03  0.19041326023E+03  0.90691262626E+02 0.  0.
          5    1    3    3  502    0 -0.11948407451E+02  0.55487949297E+02 -0.10931863661E+02  0.57993728979E+02  0.47000000000E+01 0.  1.
         -5    1    3    3    0  502  0.72067667419E+01 -0.29762159275E+02  0.83117797315E+02  0.88703899813E+02  0.47000000000E+01 0.  1.
        -11    1    4    4    0    0  0.30777797131E+02  0.70453623650E+01  0.16213803934E+02  0.35493624288E+02  0.00000000000E+00 0.  1.
         11    1    4    4    0    0 -0.26036156423E+02 -0.32771152387E+02  0.14915851880E+03  0.15491963594E+03  0.00000000000E+00 0. -1.
<mgrwt>
<rscale>  0 0.11841152E+03</rscale>
<asrwt>0</asrwt>
<pdfrwt beam="1">  1        1 0.44205318E-01 0.12770820E+03</pdfrwt>
<pdfrwt beam="2">  1       -1 0.76578950E-02 0.12770820E+03</pdfrwt>
<totfact> 0.80556415E+03</totfact>
</mgrwt>
</event>
<event>
 8    1  0.1646661E-005  0.1546395E+03  0.7546771E-02  0.1202880E+00
          2   -1    0    0  501    0  0.00000000000E+00  0.00000000000E+00  0.16411267380E+03  0.16411267380E+03  0.00000000000E+00 0. -1.
         -2   -1    0    0    0  501 -0.00000000000E+00 -0.00000000000E+00 -0.12511704207E+03  0.12511704207E+03  0.00000000000E+00 0.  1.
         23    2    1    2    0    0 -0.71205361828E+02 -0.57017745738E+02  0.38174902831E+02  0.15928180641E+03  0.12486850590E+03 0.  0.
         23    2    1    2    0    0  0.71205361828E+02  0.57017745738E+02  0.82072890277E+00  0.12994790946E+03  0.92544900965E+02 0.  0.
          5    1    3    3  502    0  0.26768706164E+02 -0.29994661025E+01  0.38600017218E+02  0.47303401102E+02  0.47000000000E+01 0. -1.
         -5    1    3    3    0  502 -0.97974067991E+02 -0.54018279636E+02 -0.42511438735E+00  0.11197840531E+03  0.47000000000E+01 0.  1.
        -11    1    4    4    0    0  0.89958719165E+02  0.44927257792E+02  0.17532263361E+02  0.10207061235E+03  0.00000000000E+00 0. -1.
         11    1    4    4    0    0 -0.18753357338E+02  0.12090487946E+02 -0.16711534458E+02  0.27877297110E+02  0.00000000000E+00 0.  1.
<mgrwt>
<rscale>  0 0.14805752E+03</rscale>
<asrwt>0</asrwt>
<pdfrwt beam="1">  1        2 0.25248104E-01 0.15463949E+03</pdfrwt>
<pdfrwt beam="2">  1       -2 0.19248776E-01 0.15463949E+03</pdfrwt>
<totfact> 0.46050801E+03</totfact>
</mgrwt>
</event>
<event>
 8    1  0.1646661E-005  0.1519072E+03  0.7546771E-02  0.1205763E+00
         -2   -1    0    0    0  501 -0.00000000000E+00  0.00000000000E+00  0.10777067496E+04  0.10777067496E+04  0.00000000000E+00 0.  1.
          2   -1    0    0  501    0  0.00000000000E+00 -0.00000000000E+00 -0.32540046386E+02  0.32540046386E+02  0.00000000000E+00 0. -1.
         23    2    1    2    0    0  0.79256012976E+02 -0.34210003860E+02  0.91348664189E+03  0.92603113047E+03  0.12499587885E+03 0.  0.
         23    2    1    2    0    0 -0.79256012976E+02  0.34210003860E+02  0.13168006134E+03  0.18421566554E+03  0.95623913936E+02 0.  0.
          5    1    3    3  502    0  0.61413328767E+01 -0.43066180353E+02  0.67430330140E+03  0.67572142495E+03  0.47000000000E+01 0. -1.
         -5    1    3    3    0  502  0.73114680100E+02  0.88561764932E+01  0.23918334050E+03  0.25030970552E+03  0.47000000000E+01 0. -1.
        -11    1    4    4    0    0 -0.24489139256E+02  0.31465676295E+02 -0.17978345944E+01  0.39912891845E+02  0.00000000000E+00 0. -1.
         11    1    4    4    0    0 -0.54766873720E+02  0.27443275646E+01  0.13347789594E+03  0.14430277369E+03  0.00000000000E+00 0.  1.
<mgrwt>
<rscale>  0 0.14577516E+03</rscale>
<asrwt>0</asrwt>
<pdfrwt beam="2">  1        2 0.50061618E-02 0.15190724E+03</pdfrwt>
<pdfrwt beam="1">  1       -2 0.16580101E+00 0.15190724E+03</pdfrwt>
<totfact> 0.37729585E+02</totfact>
</mgrwt>
</event>
<event>
 8    1  0.1646661E-005  0.2046944E+03  0.7546771E-02  0.1149800E+00
          1   -1    0    0  501    0  0.00000000000E+00  0.00000000000E+00  0.69787946194E+03  0.69787946194E+03  0.00000000000E+00 0. -1.
         -1   -1    0    0    0  501 -0.00000000000E+00 -0.00000000000E+00 -0.55602030337E+02  0.55602030337E+02  0.00000000000E+00 0.  1.
         23    2    1    2    0    0 -0.55405229396E+01  0.16193766994E+03  0.28973587859E+03  0.35474876654E+03  0.12508118035E+03 0.  0.
         23    2    1    2    0    0  0.55405229396E+01 -0.16193766994E+03  0.35254155301E+03  0.39873272573E+03  0.91911553320E+02 0.  0.
          5    1    3    3  502    0 -0.39247844528E+02  0.11009533220E+03  0.26177357134E+03  0.28672088889E+03  0.47000000000E+01 0. -1.
         -5    1    3    3    0  502  0.33707321589E+02  0.51842337738E+02  0.27962307252E+02  0.68027877651E+02  0.47000000000E+01 0. -1.
        -11    1    4    4    0    0 -0.11216286478E+02  0.89771754462E+01  0.32259035019E+02  0.35313454967E+02  0.00000000000E+00 0.  1.
         11    1    4    4    0    0  0.16756809417E+02 -0.17091484539E+03  0.32028251799E+03  0.36341927077E+03  0.00000000000E+00 0. -1.
<mgrwt>
<rscale>  0 0.19992827E+03</rscale>
<asrwt>0</asrwt>
<pdfrwt beam="1">  1        1 0.10736606E+00 0.20469443E+03</pdfrwt>
<pdfrwt beam="2">  1       -1 0.85541590E-02 0.20469443E+03</pdfrwt>
<totfact> 0.21851458E+03</totfact>
</mgrwt>
</event>
<event>
 8    1  0.1646661E-005  0.1277343E+03  0.7546771E-02  0.1245718E+00
         -2   -1    0    0    0  501 -0.00000000000E+00  0.00000000000E+00  0.46877413889E+03  0.46877413889E+03  0.00000000000E+00 0.  1.
          2   -1    0    0  501    0  0.00000000000E+00 -0.00000000000E+00 -0.28091638373E+02  0.28091638373E+02  0.00000000000E+00 0. -1.
         23    2    1    2    0    0  0.13912919140E+02  0.22307746156E+02  0.31325589706E+03  0.33829767199E+03  0.12499941188E+03 0.  0.
         23    2    1    2    0    0 -0.13912919140E+02 -0.22307746156E+02  0.12742660346E+03  0.15856810528E+03  0.90637188200E+02 0.  0.
          5    1    3    3  502    0 -0.47778276152E+02 -0.20682169795E+02  0.12114494500E+03  0.13194204606E+03  0.47000000000E+01 0.  1.
         -5    1    3    3    0  502  0.61691195292E+02  0.42989915951E+02  0.19211095206E+03  0.20635562593E+03  0.47000000000E+01 0.  1.
        -11    1    4    4    0    0 -0.34102678904E+02 -0.10353852346E+02  0.75678864254E+01  0.36434432503E+02  0.00000000000E+00 0. -1.
         11    1    4    4    0    0  0.20189759765E+02 -0.11953893810E+02  0.11985871703E+03  0.12213367277E+03  0.00000000000E+00 0.  1.
<mgrwt>
<rscale>  0 0.11842487E+03</rscale>
<asrwt>0</asrwt>
<pdfrwt beam="2">  1        2 0.43217908E-02 0.12773433E+03</pdfrwt>
<pdfrwt beam="1">  1       -2 0.72119093E-01 0.12773433E+03</pdfrwt>
<totfact> 0.32435845E+03</totfact>
</mgrwt>
</event>
<event>
 8    1  0.1646661E-005  0.3016096E+03  0.7546771E-02  0.1085757E+00
          1   -1    0    0  501    0  0.00000000000E+00  0.00000000000E+00  0.98247946254E+03  0.98247946254E+03  0.00000000000E+00 0. -1.
         -1   -1    0    0    0  501 -0.00000000000E+00 -0.00000000000E+00 -0.90218844044E+02  0.90218844044E+02  0.00000000000E+00 0.  1.
         23    2    1    2    0    0 -0.15788323879E+03  0.22453135198E+03  0.40338617469E+03  0.50367524924E+03  0.12500762239E+03 0.  0.
         23    2    1    2    0    0  0.15788323879E+03 -0.22453135198E+03  0.48887444380E+03  0.56902305734E+03  0.97198625863E+02 0.  0.
          5    1    3    3  502    0 -0.31813886216E+02  0.14247191882E+03  0.15285828743E+03  0.21141929203E+03  0.47000000000E+01 0.  1.
         -5    1    3    3    0  502 -0.12606935257E+03  0.82059433158E+02  0.25052788726E+03  0.29225595721E+03  0.47000000000E+01 0.  1.
        -11    1    4    4    0    0  0.85529616960E+02 -0.45490544046E+02  0.18837073546E+03  0.21182124292E+03  0.00000000000E+00 0. -1.
         11    1    4    4    0    0  0.72353621829E+02 -0.17904080793E+03  0.30050370835E+03  0.35720181442E+03  0.00000000000E+00 0.  1.
<mgrwt>
<rscale>  0 0.29896911E+03</rscale>
<asrwt>0</asrwt>
<pdfrwt beam="1">  1        1 0.15115068E+00 0.30160960E+03</pdfrwt>
<pdfrwt beam="2">  1       -1 0.13879823E-01 0.30160960E+03</pdfrwt>
<totfact> 0.60070057E+02</totfact>
</mgrwt>
</event>
<event>
 8    1  0.1646661E-005  0.1262722E+03  0.7546771E-02  0.1248128E+00
          2   -1    0    0  501    0  0.00000000000E+00  0.00000000000E+00  0.64322052101E+02  0.64322052101E+02  0.00000000000E+00 0. -1.
         -2   -1    0    0    0  501 -0.00000000000E+00 -0.00000000000E+00 -0.28136170461E+03  0.28136170461E+03  0.00000000000E+00 0.  1.
         23    2    1    2    0    0 -0.97887037492E+01  0.14920874639E+02 -0.21876550435E+03  0.25259260558E+03  0.12500490902E+03 0.  0.
         23    2    1    2    0    0  0.97887037492E+01 -0.14920874639E+02  0.17258518370E+01  0.93091151135E+02  0.91348413418E+02 0.  0.
          5    1    3    3  502    0 -0.45671370781E+02  0.55331729274E+02 -0.11907497901E+03  0.13909858015E+03  0.47000000000E+01 0.  1.
         -5    1    3    3    0  502  0.35882667032E+02 -0.40410854635E+02 -0.99690525338E+02  0.11349402543E+03  0.47000000000E+01 0.  1.
        -11    1    4    4    0    0 -0.37231303051E+02 -0.25147522791E+02 -0.29519465497E+00  0.44929444346E+02  0.00000000000E+00 0.  1.
         11    1    4    4    0    0  0.47020006800E+02  0.10226648152E+02  0.20210464920E+01  0.48161706789E+02  0.00000000000E+00 0. -1.
<mgrwt>
<rscale>  0 0.11700094E+03</rscale>
<asrwt>0</asrwt>
<pdfrwt beam="1">  1        2 0.98957005E-02 0.12627224E+03</pdfrwt>
<pdfrwt beam="2">  1       -2 0.43286415E-01 0.12627224E+03</pdfrwt>
<totfact> 0.31675135E+03</totfact>
</mgrwt>
</event>
<event>
 8    1  0.1646661E-005  0.1380612E+03  0.7546771E-02  0.1227665E+00
         -2   -1    0    0    0  501 -0.00000000000E+00  0.00000000000E+00  0.32225979997E+02  0.32225979997E+02  0.00000000000E+00 0.  1.
          2   -1    0    0  501    0  0.00000000000E+00 -0.00000000000E+00 -0.47517631934E+03  0.47517631934E+03  0.00000000000E+00 0. -1.
         23    2    1    2    0    0 -0.32182130642E+02 -0.48986834245E+02 -0.22172505437E+03  0.26119514380E+03  0.12500201577E+03 0.  0.
         23    2    1    2    0    0  0.32182130642E+02  0.48986834245E+02 -0.22122528497E+03  0.24620715554E+03  0.90785115878E+02 0.  0.
          5    1    3    3  502    0  0.41277782443E+02  0.60142514277E+01 -0.10178894610E+03  0.11010497759E+03  0.47000000000E+01 0.  1.
         -5    1    3    3    0  502 -0.73459913084E+02 -0.55001085673E+02 -0.11993610827E+03  0.15109016620E+03  0.47000000000E+01 0.  1.
        -11    1    4    4    0    0  0.54385392553E+02  0.18407345929E+02 -0.18557786487E+03  0.19425690525E+03  0.00000000000E+00 0. -1.
         11    1    4    4    0    0 -0.22203261911E+02  0.30579488316E+02 -0.35647420104E+02  0.51950250291E+02  0.00000000000E+00 0.  1.
<mgrwt>
<rscale>  0 0.12985892E+03</rscale>
<asrwt>0</asrwt>
<pdfrwt beam="2">  1        2 0.73104046E-01 0.13806123E+03</pdfrwt>
<pdfrwt beam="1">  1       -2 0.49578433E-02 0.13806123E+03</pdfrwt>
<totfact> 0.12412354E+04</totfact>
</mgrwt>
</event>
<event>
 8    1  0.1646661E-005  0.2431641E+03  0.7546771E-02  0.1120292E+00
         -2   -1    0    0    0  501 -0.00000000000E+00  0.00000000000E+00  0.39527075484E+03  0.39527075484E+03  0.00000000000E+00 0.  1.
          2   -1    0    0  501    0  0.00000000000E+00 -0.00000000000E+00 -0.15691238871E+03  0.15691238871E+03  0.00000000000E+00 0. -1.
         23    2    1    2    0    0 -0.17787184929E+03 -0.10892825911E+03  0.21231359340E+03  0.32280933132E+03  0.12500016818E+03 0.  0.
         23    2    1    2    0    0  0.17787184929E+03  0.10892825911E+03  0.26044772741E+02  0.22937381223E+03  0.91816420905E+02 0.  0.
          5    1    3    3  502    0 -0.11038569782E+03 -0.17430339938E+02  0.16552784393E+03  0.19977581473E+03  0.47000000000E+01 0. -1.
         -5    1    3    3    0  502 -0.67486151466E+02 -0.91497919170E+02  0.46785749471E+02  0.12303351660E+03  0.47000000000E+01 0. -1.
        -11    1    4    4    0    0  0.17384366552E+02  0.36575301687E+02 -0.23071208378E+02  0.46607398017E+02  0.00000000000E+00 0.  1.
         11    1    4    4    0    0  0.16048748274E+03  0.72352957421E+02  0.49115981119E+02  0.18276641421E+03  0.00000000000E+00 0. -1.
<mgrwt>
<rscale>  0 0.23925231E+03</rscale>
<asrwt>0</asrwt>
<pdfrwt beam="2">  1        2 0.24140368E-01 0.24316415E+03</pdfrwt>
<pdfrwt beam="1">  1       -2 0.60810885E-01 0.24316415E+03</pdfrwt>
<totfact> 0.57626650E+02</totfact>
</mgrwt>
</event>
<event>
 8    1  0.1646661E-005  0.1601607E+03  0.7546771E-02  0.1195770E+00
         -2   -1    0    0    0  501 -0.00000000000E+00  0.00000000000E+00  0.20137113598E+03  0.20137113598E+03  0.00000000000E+00 0. -1.
          2   -1    0    0  501    0  0.00000000000E+00 -0.00000000000E+00 -0.12007125527E+03  0.12007125527E+03  0.00000000000E+00 0.  1.
         23    2    1    2    0    0 -0.39422282912E+02 -0.92043041472E+02  0.91648337317E+02  0.18452879242E+03  0.12500167850E+03 0.  0.
         23    2    1    2    0    0  0.39422282912E+02  0.92043041472E+02 -0.10348456610E+02  0.13691359883E+03  0.92801967209E+02 0.  0.
          5    1    3    3  502    0  0.43176272436E+02 -0.14026880982E+02  0.18080438181E+02  0.49091100378E+02  0.47000000000E+01 0.  1.
         -5    1    3    3    0  502 -0.82598555348E+02 -0.78016160489E+02  0.73567899136E+02  0.13543769204E+03  0.47000000000E+01 0.  1.
        -11    1    4    4    0    0  0.64722023017E+02  0.88589078007E+02 -0.98799346424E+00  0.10971755163E+03  0.00000000000E+00 0. -1.
         11    1    4    4    0    0 -0.25299740104E+02  0.34539634652E+01 -0.93604631456E+01  0.27196047199E+02  0.00000000000E+00 0.  1.
<mgrwt>
<rscale>  0 0.15389257E+03</rscale>
<asrwt>0</asrwt>
<pdfrwt beam="2">  1        2 0.18472501E-01 0.16016072E+03</pdfrwt>
<pdfrwt beam="1">  1       -2 0.30980175E-01 0.16016072E+03</pdfrwt>
<totfact> 0.28550638E+03</totfact>
</mgrwt>
</event>
<event>
 7    1  0.1646661E-005  0.1805980E+03  0.7546771E-02  0.1185531E+00
          1   -1    0    0  501    0  0.00000000000E+00  0.00000000000E+00  0.60518339604E+03  0.60518339604E+03  0.00000000000E+00 0. -1.
         -1   -1    0    0    0  501 -0.00000000000E+00 -0.00000000000E+00 -0.66607247516E+02  0.66607247516E+02  0.00000000000E+00 0.  1.
         23    2    1    2    0    0 -0.25635889719E+01 -0.70705495495E+02  0.45930384534E+03  0.47456048620E+03  0.96134247977E+02 0.  0.
          5    1    1    2  502    0 -0.25966761724E+02 -0.47048491723E+02  0.47520444754E+02  0.71889609523E+02  0.47000000000E+01 0. -1.
         -5    1    1    2    0  502  0.28530350696E+02  0.11775398722E+03  0.31751858424E+02  0.12534054783E+03  0.47000000000E+01 0.  1.
        -11    1    3    3    0    0  0.40841320097E+02 -0.40191561833E+02  0.32755797025E+03  0.33253210212E+03  0.00000000000E+00 0. -1.
         11    1    3    3    0    0 -0.43404909069E+02 -0.30513933663E+02  0.13174587510E+03  0.14202838408E+03  0.00000000000E+00 0.  1.
<mgrwt>
<rscale>  0 0.16283679E+03</rscale>
<asrwt>0</asrwt>
<pdfrwt beam="1">  1        1 0.93105134E-01 0.18059800E+03</pdfrwt>
<pdfrwt beam="2">  1       -1 0.10247269E-01 0.18059800E+03</pdfrwt>
<totfact> 0.20207300E+03</totfact>
</mgrwt>
</event>
<event>
 8    1  0.1646661E-005  0.1553403E+03  0.7546771E-02  0.1202719E+00
          2   -1    0    0  501    0  0.00000000000E+00  0.00000000000E+00  0.86072765256E+02  0.86072765256E+02  0.00000000000E+00 0. -1.
         -2   -1    0    0    0  501 -0.00000000000E+00 -0.00000000000E+00 -0.24439380067E+03  0.24439380067E+03  0.00000000000E+00 0.  1.
         23    2    1    2    0    0 -0.79780684228E+02 -0.46271271251E+02 -0.52755195268E+02  0.16405405591E+03  0.12499853805E+03 0.  0.
         23    2    1    2    0    0  0.79780684228E+02  0.46271271251E+02 -0.10556584014E+03  0.16641251001E+03  0.89682711622E+02 0.  0.
          5    1    3    3  502    0 -0.71197478685E+02 -0.50422121377E+02 -0.89933636042E+02  0.12538588512E+03  0.47000000000E+01 0.  1.
         -5    1    3    3    0  502 -0.85832055423E+01  0.41508501266E+01  0.37178440774E+02  0.38668170794E+02  0.47000000000E+01 0.  1.
        -11    1    4    4    0    0  0.36023703619E+02 -0.19923532104E+02 -0.65898680870E+02  0.77700003181E+02  0.00000000000E+00 0.  1.
         11    1    4    4    0    0  0.43756980608E+02  0.66194803355E+02 -0.39667159272E+02  0.88712506829E+02  0.00000000000E+00 0. -1.
<mgrwt>
<rscale>  0 0.14818682E+03</rscale>
<asrwt>0</asrwt>
<pdfrwt beam="1">  1        2 0.13241964E-01 0.15534034E+03</pdfrwt>
<pdfrwt beam="2">  1       -2 0.37599046E-01 0.15534034E+03</pdfrwt>
<totfact> 0.29442130E+03</totfact>
</mgrwt>
</event>
<event>
 8    1  0.1646661E-005  0.1272147E+03  0.7546771E-02  0.1253265E+00
         -3   -1    0    0    0  501 -0.00000000000E+00  0.00000000000E+00  0.82676866379E+03  0.82676866379E+03  0.00000000000E+00 0.  1.
          3   -1    0    0  501    0  0.00000000000E+00 -0.00000000000E+00 -0.14323006358E+02  0.14323006358E+02  0.00000000000E+00 0. -1.
         23    2    1    2    0    0  0.20574184275E+02 -0.12092264063E+02  0.59948041856E+03  0.61282978247E+03  0.12495619284E+03 0.  0.
         23    2    1    2    0    0 -0.20574184275E+02  0.12092264063E+02  0.21296523887E+03  0.22826188768E+03  0.78611554446E+02 0.  0.
          5    1    3    3  502    0 -0.39917648446E+02 -0.40963894174E+02  0.21529577539E+03  0.22281342012E+03  0.47000000000E+01 0.  1.
         -5    1    3    3    0  502  0.60491832720E+02  0.28871630111E+02  0.38418464318E+03  0.39001636235E+03  0.47000000000E+01 0.  1.
        -11    1    4    4    0    0  0.89113098464E+01 -0.29559323014E+02  0.89039525727E+02  0.94240130315E+02  0.00000000000E+00 0.  1.
         11    1    4    4    0    0 -0.29485494121E+02  0.41651587077E+02  0.12392571314E+03  0.13402175737E+03  0.00000000000E+00 0. -1.
<mgrwt>
<rscale>  0 0.11404078E+03</rscale>
<asrwt>0</asrwt>
<pdfrwt beam="2">  1        3 0.22035401E-02 0.12721466E+03</pdfrwt>
<pdfrwt beam="1">  1       -3 0.12719514E+00 0.12721466E+03</pdfrwt>
<totfact> 0.96635253E+02</totfact>
</mgrwt>
</event>
<event>
 8    1  0.1646661E-005  0.1450314E+03  0.7546771E-02  0.1217921E+00
         -1   -1    0    0    0  501 -0.00000000000E+00  0.00000000000E+00  0.25686889514E+02  0.25686889514E+02  0.00000000000E+00 0.  1.
          1   -1    0    0  501    0  0.00000000000E+00 -0.00000000000E+00 -0.69267145004E+03  0.69267145004E+03  0.00000000000E+00 0. -1.
         23    2    1    2    0    0 -0.21731862859E+02 -0.70241797031E+02 -0.28700587838E+03  0.32156878392E+03  0.12501169807E+03 0.  0.
         23    2    1    2    0    0  0.21731862859E+02  0.70241797031E+02 -0.37997868214E+03  0.39678955563E+03  0.87475531786E+02 0.  0.
          5    1    3    3  502    0 -0.42128649317E+02 -0.92917428578E+02 -0.15230122239E+03  0.18337454558E+03  0.47000000000E+01 0.  1.
         -5    1    3    3    0  502  0.20396786457E+02  0.22675631547E+02 -0.13470465599E+03  0.13819423834E+03  0.47000000000E+01 0.  1.
        -11    1    4    4    0    0  0.53836759272E+02  0.56691310672E+02 -0.28826255051E+03  0.29867641250E+03  0.00000000000E+00 0.  1.
         11    1    4    4    0    0 -0.32104896412E+02  0.13550486359E+02 -0.91716131628E+02  0.98113143131E+02  0.00000000000E+00 0. -1.
<mgrwt>
<rscale>  0 0.13664123E+03</rscale>
<asrwt>0</asrwt>
<pdfrwt beam="2">  1        1 0.10656481E+00 0.14503141E+03</pdfrwt>
<pdfrwt beam="1">  1       -1 0.39518302E-02 0.14503141E+03</pdfrwt>
<totfact> 0.69347396E+03</totfact>
</mgrwt>
</event>
<event>
 8    1  0.1646661E-005  0.1326475E+03  0.7546771E-02  0.1236997E+00
         -1   -1    0    0    0  501 -0.00000000000E+00  0.00000000000E+00  0.21230526472E+03  0.21230526472E+03  0.00000000000E+00 0.  1.
          1   -1    0    0  501    0  0.00000000000E+00 -0.00000000000E+00 -0.64340780617E+02  0.64340780617E+02  0.00000000000E+00 0. -1.
         23    2    1    2    0    0  0.32091561220E+02 -0.30631206787E+02  0.93444360070E+02  0.16225657587E+03  0.12500883510E+03 0.  0.
         23    2    1    2    0    0 -0.32091561220E+02  0.30631206787E+02  0.54520124029E+02  0.11438946946E+03  0.90246150442E+02 0.  0.
          5    1    3    3  502    0  0.65162387196E+02 -0.55184800415E+02  0.83714848568E+02  0.11967357592E+03  0.47000000000E+01 0. -1.
         -5    1    3    3    0  502 -0.33070825976E+02  0.24553593628E+02  0.97295115015E+01  0.42582999951E+02  0.47000000000E+01 0. -1.
        -11    1    4    4    0    0 -0.51325027205E+02  0.22088242729E+02  0.69042255964E+02  0.88819941416E+02  0.00000000000E+00 0.  1.
         11    1    4    4    0    0  0.19233465985E+02  0.85429640583E+01 -0.14522131936E+02  0.25569528049E+02  0.00000000000E+00 0. -1.
<mgrwt>
<rscale>  0 0.12377461E+03</rscale>
<asrwt>0</asrwt>
<pdfrwt beam="2">  1        1 0.98985817E-02 0.13264746E+03</pdfrwt>
<pdfrwt beam="1">  1       -1 0.32662348E-01 0.13264746E+03</pdfrwt>
<totfact> 0.54559318E+03</totfact>
</mgrwt>
</event>
<event>
 8    1  0.1646661E-005  0.1285667E+03  0.7546771E-02  0.1243439E+00
          1   -1    0    0  501    0  0.00000000000E+00  0.00000000000E+00  0.28365069755E+03  0.28365069755E+03  0.00000000000E+00 0. -1.
         -1   -1    0    0    0  501 -0.00000000000E+00 -0.00000000000E+00 -0.46226401764E+02  0.46226401764E+02  0.00000000000E+00 0.  1.
         23    2    1    2    0    0 -0.22222812053E+02 -0.20257311713E+02  0.10623197826E+03  0.16677718458E+03  0.12500073616E+03 0.  0.
         23    2    1    2    0    0  0.22222812053E+02  0.20257311713E+02  0.13119231753E+03  0.16309991473E+03  0.92119194274E+02 0.  0.
          5    1    3    3  502    0  0.96640649568E+01 -0.63513508256E+02  0.89551898289E+02  0.11031315592E+03  0.47000000000E+01 0.  1.
         -5    1    3    3    0  502 -0.31886877009E+02  0.43256196543E+02  0.16680079968E+02  0.56464028660E+02  0.47000000000E+01 0.  1.
        -11    1    4    4    0    0  0.38915765659E+02  0.36691087884E+02  0.12890864977E+03  0.13956400945E+03  0.00000000000E+00 0. -1.
         11    1    4    4    0    0 -0.16692953607E+02 -0.16433776170E+02  0.22836677618E+01  0.23535905289E+02  0.00000000000E+00 0.  1.
<mgrwt>
<rscale>  0 0.11979274E+03</rscale>
<asrwt>0</asrwt>
<pdfrwt beam="1">  1        1 0.43638568E-01 0.12856670E+03</pdfrwt>
<pdfrwt beam="2">  1       -1 0.71117543E-02 0.12856670E+03</pdfrwt>
<totfact> 0.91506156E+03</totfact>
</mgrwt>
</event>
<event>
 8    1  0.1646661E-005  0.2028513E+03  0.7546771E-02  0.1151381E+00
          1   -1    0    0  501    0  0.00000000000E+00  0.00000000000E+00  0.64885683628E+03  0.64885683628E+03  0.00000000000E+00 0. -1.
         -1   -1    0    0    0  501 -0.00000000000E+00 -0.00000000000E+00 -0.67202223263E+02  0.67202223263E+02  0.00000000000E+00 0.  1.
         23    2    1    2    0    0 -0.13551784819E+03 -0.84610516743E+02  0.43673810112E+03  0.48154833658E+03  0.12499841907E+03 0.  0.
         23    2    1    2    0    0  0.13551784819E+03  0.84610516743E+02  0.14491651190E+03  0.23451072297E+03  0.92035085949E+02 0.  0.
          5    1    3    3  502    0 -0.54920688116E+02 -0.91279298661E+02  0.15313888806E+03  0.18660600575E+03  0.47000000000E+01 0. -1.
         -5    1    3    3    0  502 -0.80597160071E+02  0.66687819177E+01  0.28359921306E+03  0.29494233083E+03  0.47000000000E+01 0. -1.
        -11    1    4    4    0    0  0.79245018801E+02  0.35629665465E+02  0.13314036608E+03  0.15898302786E+03  0.00000000000E+00 0. -1.
         11    1    4    4    0    0  0.56272829386E+02  0.48980851277E+02  0.11776145821E+02  0.75527695115E+02  0.00000000000E+00 0.  1.
<mgrwt>
<rscale>  0 0.19806573E+03</rscale>
<asrwt>0</asrwt>
<pdfrwt beam="1">  1        1 0.99824124E-01 0.20285125E+03</pdfrwt>
<pdfrwt beam="2">  1       -1 0.10338804E-01 0.20285125E+03</pdfrwt>
<totfact> 0.18123902E+03</totfact>
</mgrwt>
</event>
<event>
 7    1  0.1646661E-005  0.1907975E+03  0.7546771E-02  0.1180139E+00
          1   -1    0    0  501    0  0.00000000000E+00  0.00000000000E+00  0.42571232841E+02  0.42571232841E+02  0.00000000000E+00 0. -1.
         -1   -1    0    0    0  501 -0.00000000000E+00 -0.00000000000E+00 -0.68624935859E+03  0.68624935859E+03  0.00000000000E+00 0.  1.
         23    2    1    2    0    0 -0.61518603184E+02 -0.35775628461E+02 -0.97107629073E+02  0.14990522209E+03  0.89315451387E+02 0.  0.
          5    1    1    2  502    0 -0.30343821214E+02 -0.47392767081E+02 -0.26960973625E+03  0.27546019992E+03  0.47000000000E+01 0. -1.
         -5    1    1    2    0  502  0.91862424398E+02  0.83168395542E+02 -0.27696076042E+03  0.30345516942E+03  0.47000000000E+01 0.  1.
        -11    1    3    3    0    0 -0.17127944510E+02 -0.95317998787E+01 -0.96358167912E+02  0.98331674528E+02  0.00000000000E+00 0.  1.
         11    1    3    3    0    0 -0.44390658675E+02 -0.26243828582E+02 -0.74946116045E+00  0.51573547563E+02  0.00000000000E+00 0. -1.
<mgrwt>
<rscale>  0 0.16782099E+03</rscale>
<asrwt>0</asrwt>
<pdfrwt beam="1">  1        1 0.65494203E-02 0.19079753E+03</pdfrwt>
<pdfrwt beam="2">  1       -1 0.10557683E+00 0.19079753E+03</pdfrwt>
<totfact> 0.10127428E+03</totfact>
</mgrwt>
</event>
<event>
 8    1  0.1646661E-005  0.1376941E+03  0.7546771E-02  0.1225137E+00
         -1   -1    0    0    0  501 -0.00000000000E+00  0.00000000000E+00  0.74656027895E+02  0.74656027895E+02  0.00000000000E+00 0.  1.
          1   -1    0    0  501    0  0.00000000000E+00 -0.00000000000E+00 -0.21968445434E+03  0.21968445434E+03  0.00000000000E+00 0. -1.
         23    2    1    2    0    0 -0.52520778054E+02  0.23958660034E+02 -0.54299391886E+02  0.14801382540E+03  0.12500887581E+03 0.  0.
         23    2    1    2    0    0  0.52520778054E+02 -0.23958660034E+02 -0.90729034563E+02  0.14632665684E+03  0.99233478583E+02 0.  0.
          5    1    3    3  502    0 -0.27085013834E+02  0.73859323025E+02 -0.45849318148E+02  0.91175915387E+02  0.47000000000E+01 0. -1.
         -5    1    3    3    0  502 -0.25435764220E+02 -0.49900662990E+02 -0.84500737387E+01  0.56837910012E+02  0.47000000000E+01 0. -1.
        -11    1    4    4    0    0  0.63503379340E+01 -0.23117937206E+02 -0.96824110289E+02  0.99748053343E+02  0.00000000000E+00 0. -1.
         11    1    4    4    0    0  0.46170440120E+02 -0.84072282847E+00  0.60950757259E+01  0.46578603498E+02  0.00000000000E+00 0.  1.
<mgrwt>
<rscale>  0 0.13157545E+03</rscale>
<asrwt>0</asrwt>
<pdfrwt beam="2">  1        1 0.33797608E-01 0.13769411E+03</pdfrwt>
<pdfrwt beam="1">  1       -1 0.11485543E-01 0.13769411E+03</pdfrwt>
<totfact> 0.60921898E+03</totfact>
</mgrwt>
</event>
<event>
 8    1  0.1646661E-005  0.1600461E+03  0.7546771E-02  0.1196023E+00
         -1   -1    0    0    0  501 -0.00000000000E+00  0.00000000000E+00  0.28438631483E+02  0.28438631483E+02  0.00000000000E+00 0.  1.
          1   -1    0    0  501    0  0.00000000000E+00 -0.00000000000E+00 -0.77923592296E+03  0.77923592296E+03  0.00000000000E+00 0. -1.
         23    2    1    2    0    0 -0.75297939379E+02  0.65727536369E+02 -0.36351271990E+03  0.39718541476E+03  0.12499946981E+03 0.  0.
         23    2    1    2    0    0  0.75297939379E+02 -0.65727536369E+02 -0.38728457158E+03  0.41048913969E+03  0.92315251772E+02 0.  0.
          5    1    3    3  502    0 -0.10924096885E+03  0.52063437266E+02 -0.30311721260E+03  0.32641434611E+03  0.47000000000E+01 0. -1.
         -5    1    3    3    0  502  0.33943029475E+02  0.13664099103E+02 -0.60395507306E+02  0.70771068644E+02  0.47000000000E+01 0. -1.
        -11    1    4    4    0    0  0.33944764424E+01  0.22067899174E+02 -0.54924657193E+02  0.59289397130E+02  0.00000000000E+00 0. -1.
         11    1    4    4    0    0  0.71903462936E+02 -0.87795435544E+02 -0.33235991439E+03  0.35119974256E+03  0.00000000000E+00 0.  1.
<mgrwt>
<rscale>  0 0.15367934E+03</rscale>
<asrwt>0</asrwt>
<pdfrwt beam="2">  1        1 0.11988246E+00 0.16004611E+03</pdfrwt>
<pdfrwt beam="1">  1       -1 0.43751736E-02 0.16004611E+03</pdfrwt>
<totfact> 0.50486071E+03</totfact>
</mgrwt>
</event>
<event>
 8    1  0.1646661E-005  0.2229233E+03  0.7546771E-02  0.1134428E+00
         -3   -1    0    0    0  501 -0.00000000000E+00  0.00000000000E+00  0.44338938108E+03  0.44338938108E+03  0.00000000000E+00 0.  1.
          3   -1    0    0  501    0  0.00000000000E+00 -0.00000000000E+00 -0.11892258287E+03  0.11892258287E+03  0.00000000000E+00 0. -1.
         23    2    1    2    0    0  0.15802141599E+03 -0.95384606013E+02  0.26302520842E+03  0.34478549451E+03  0.12500314389E+03 0.  0.
         23    2    1    2    0    0 -0.15802141599E+03  0.95384606013E+02  0.61441589798E+02  0.21752646945E+03  0.97332959353E+02 0.  0.
          5    1    3    3  502    0  0.17563839099E+03 -0.88453172488E+02  0.20744464811E+03  0.28588140923E+03  0.47000000000E+01 0.  1.
         -5    1    3    3    0  502 -0.17616974993E+02 -0.69314335256E+01  0.55580560305E+02  0.58904085278E+02  0.47000000000E+01 0.  1.
        -11    1    4    4    0    0 -0.11379544239E+02  0.14624975067E+02  0.45777298150E+02  0.49385675542E+02  0.00000000000E+00 0.  1.
         11    1    4    4    0    0 -0.14664187175E+03  0.80759630946E+02  0.15664291648E+02  0.16814079390E+03  0.00000000000E+00 0. -1.
<mgrwt>
<rscale>  0 0.21927087E+03</rscale>
<asrwt>0</asrwt>
<pdfrwt beam="2">  1        3 0.18295782E-01 0.22292325E+03</pdfrwt>
<pdfrwt beam="1">  1       -3 0.68213750E-01 0.22292325E+03</pdfrwt>
<totfact> 0.13622594E+02</totfact>
</mgrwt>
</event>
<event>
 8    1  0.1646661E-005  0.1294614E+03  0.7546771E-02  0.1228666E+00
          1   -1    0    0  501    0  0.00000000000E+00  0.00000000000E+00  0.23106565445E+03  0.23106565445E+03  0.00000000000E+00 0. -1.
         -1   -1    0    0    0  501 -0.00000000000E+00 -0.00000000000E+00 -0.75716015056E+02  0.75716015056E+02  0.00000000000E+00 0.  1.
         23    2    1    2    0    0 -0.28501524673E+02  0.66091522329E+01  0.43037719973E+02  0.13539254189E+03  0.12499150874E+03 0.  0.
         23    2    1    2    0    0  0.28501524673E+02 -0.66091522329E+01  0.11231191942E+03  0.17138912762E+03  0.12611204550E+03 0.  0.
          5    1    3    3  502    0  0.21215005155E+02  0.33169697981E+02 -0.25029030897E+02  0.46891872382E+02  0.47000000000E+01 0.  1.
         -5    1    3    3    0  502 -0.49716529828E+02 -0.26560545748E+02  0.68066750870E+02  0.88500669503E+02  0.47000000000E+01 0.  1.
        -11    1    4    4    0    0  0.42009913520E+02  0.47672189577E+02  0.92141943599E+02  0.11192679868E+03  0.00000000000E+00 0. -1.
         11    1    4    4    0    0 -0.13508388847E+02 -0.54281341810E+02  0.20169975820E+02  0.59462328936E+02  0.00000000000E+00 0.  1.
<mgrwt>
<rscale>  0 0.12918775E+03</rscale>
<asrwt>0</asrwt>
<pdfrwt beam="1">  1        1 0.35548562E-01 0.12946145E+03</pdfrwt>
<pdfrwt beam="2">  1       -1 0.11648618E-01 0.12946145E+03</pdfrwt>
<totfact> 0.55782061E+03</totfact>
</mgrwt>
</event>
<event>
 8    1  0.1646661E-005  0.1518433E+03  0.7546771E-02  0.1206324E+00
          2   -1    0    0  501    0  0.00000000000E+00  0.00000000000E+00  0.71551493858E+03  0.71551493858E+03  0.00000000000E+00 0. -1.
         -2   -1    0    0    0  501 -0.00000000000E+00 -0.00000000000E+00 -0.27296837098E+02  0.27296837098E+02  0.00000000000E+00 0.  1.
         23    2    1    2    0    0 -0.77404899184E+02  0.37942657637E+02  0.35928966961E+03  0.39005827975E+03  0.12500092492E+03 0.  0.
         23    2    1    2    0    0  0.77404899184E+02 -0.37942657637E+02  0.32892843188E+03  0.35275349593E+03  0.93861344051E+02 0.  0.
          5    1    3    3  502    0 -0.24079231491E+02 -0.28229117731E+02  0.24719083609E+02  0.44830966658E+02  0.47000000000E+01 0.  1.
         -5    1    3    3    0  502 -0.53325667693E+02  0.66171775368E+02  0.33457058600E+03  0.34522731309E+03  0.47000000000E+01 0.  1.
        -11    1    4    4    0    0  0.87806052025E+02 -0.32561619420E+02  0.32788472921E+03  0.34099641857E+03  0.00000000000E+00 0. -1.
         11    1    4    4    0    0 -0.10401152841E+02 -0.53810382174E+01  0.10437026687E+01  0.11757077357E+02  0.00000000000E+00 0.  1.
<mgrwt>
<rscale>  0 0.14533619E+03</rscale>
<asrwt>0</asrwt>
<pdfrwt beam="1">  1        2 0.11007921E+00 0.15184332E+03</pdfrwt>
<pdfrwt beam="2">  1       -2 0.41995139E-02 0.15184332E+03</pdfrwt>
<totfact> 0.10055326E+04</totfact>
</mgrwt>
</event>
<event>
 8    1  0.1646661E-005  0.2024505E+03  0.7546771E-02  0.1151938E+00
          2   -1    0    0  501    0  0.00000000000E+00  0.00000000000E+00  0.16139045150E+04  0.16139045150E+04  0.00000000000E+00 0.  1.
         -2   -1    0    0    0  501 -0.00000000000E+00 -0.00000000000E+00 -0.25720817589E+02  0.25720817589E+02  0.00000000000E+00 0. -1.
         23    2    1    2    0    0 -0.40997045913E+02 -0.15387878785E+03  0.56452123999E+03  0.59972531134E+03  0.12500711793E+03 0.  0.
         23    2    1    2    0    0  0.40997045913E+02  0.15387878785E+03  0.10236624574E+04  0.10399000213E+04  0.90265100357E+02 0.  0.
          5    1    3    3  502    0 -0.35718127359E+02 -0.15560189977E+03  0.34602250607E+03  0.38110549792E+03  0.47000000000E+01 0. -1.
         -5    1    3    3    0  502 -0.52789185536E+01  0.17231119182E+01  0.21849873392E+03  0.21861981342E+03  0.47000000000E+01 0. -1.
        -11    1    4    4    0    0 -0.26349985614E+02  0.72638346013E+02  0.40586537346E+03  0.41315536112E+03  0.00000000000E+00 0. -1.
         11    1    4    4    0    0  0.67347031527E+02  0.81240441839E+02  0.61779708399E+03  0.62674466016E+03  0.00000000000E+00 0.  1.
<mgrwt>
<rscale>  0 0.19741562E+03</rscale>
<asrwt>0</asrwt>
<pdfrwt beam="1">  1        2 0.24829292E+00 0.20245053E+03</pdfrwt>
<pdfrwt beam="2">  1       -2 0.39570501E-02 0.20245053E+03</pdfrwt>
<totfact> 0.33092706E+03</totfact>
</mgrwt>
</event>
<event>
 8    1  0.1646661E-005  0.1251891E+03  0.7546771E-02  0.1249871E+00
          4   -1    0    0  501    0  0.00000000000E+00  0.00000000000E+00  0.31247483341E+03  0.31247483341E+03  0.00000000000E+00 0. -1.
         -4   -1    0    0    0  501 -0.00000000000E+00 -0.00000000000E+00 -0.38495588295E+02  0.38495588295E+02  0.00000000000E+00 0.  1.
         23    2    1    2    0    0  0.41933513134E+01 -0.53760653294E+01  0.13444872060E+03  0.18370836819E+03  0.12500327916E+03 0.  0.
         23    2    1    2    0    0 -0.41933513134E+01  0.53760653294E+01  0.13953052452E+03  0.16726205352E+03  0.91985547774E+02 0.  0.
          5    1    3    3  502    0 -0.56638019850E+02 -0.20469062582E+02  0.81998864169E+02  0.10184670609E+03  0.47000000000E+01 0. -1.
         -5    1    3    3    0  502  0.60831371163E+02  0.15092997253E+02  0.52449856427E+02  0.81861662107E+02  0.47000000000E+01 0. -1.
        -11    1    4    4    0    0 -0.42585682880E+02 -0.16138684301E+02  0.50853633481E+02  0.68264848609E+02  0.00000000000E+00 0.  1.
         11    1    4    4    0    0  0.38392331567E+02  0.21514749630E+02  0.88676891041E+02  0.98997204907E+02  0.00000000000E+00 0. -1.
<mgrwt>
<rscale>  0 0.11598509E+03</rscale>
<asrwt>0</asrwt>
<pdfrwt beam="1">  1        4 0.48073050E-01 0.12518908E+03</pdfrwt>
<pdfrwt beam="2">  1       -4 0.59223984E-02 0.12518908E+03</pdfrwt>
<totfact> 0.12356451E+03</totfact>
</mgrwt>
</event>
<event>
 8    1  0.1646661E-005  0.1463159E+03  0.7546771E-02  0.1215389E+00
          2   -1    0    0  501    0  0.00000000000E+00  0.00000000000E+00  0.72323835758E+02  0.72323835758E+02  0.00000000000E+00 0. -1.
         -2   -1    0    0    0  501 -0.00000000000E+00 -0.00000000000E+00 -0.24090268281E+03  0.24090268281E+03  0.00000000000E+00 0.  1.
         23    2    1    2    0    0 -0.54204119465E+02  0.53303132385E+02 -0.10060417983E+03  0.17756559487E+03  0.12501611493E+03 0.  0.
         23    2    1    2    0    0  0.54204119465E+02 -0.53303132385E+02 -0.67974667225E+02  0.13566092370E+03  0.89465190700E+02 0.  0.
          5    1    3    3  502    0 -0.41518757169E+02  0.42308694811E+02  0.14453368312E+02  0.61194956566E+02  0.47000000000E+01 0. -1.
         -5    1    3    3    0  502 -0.12685362296E+02  0.10994437574E+02 -0.11505754814E+03  0.11637063830E+03  0.47000000000E+01 0. -1.
        -11    1    4    4    0    0  0.57115520028E+02  0.59050477163E+01 -0.26042539327E+02  0.63049711112E+02  0.00000000000E+00 0.  1.
         11    1    4    4    0    0 -0.29114005636E+01 -0.59208180101E+02 -0.41932127898E+02  0.72611212593E+02  0.00000000000E+00 0. -1.
<mgrwt>
<rscale>  0 0.13848027E+03</rscale>
<asrwt>0</asrwt>
<pdfrwt beam="1">  1        2 0.11126744E-01 0.14631589E+03</pdfrwt>
<pdfrwt beam="2">  1       -2 0.37061951E-01 0.14631589E+03</pdfrwt>
<totfact> 0.37168111E+03</totfact>
</mgrwt>
</event>
<event>
 8    1  0.1646661E-005  0.1389055E+03  0.7546771E-02  0.1226282E+00
          1   -1    0    0  501    0  0.00000000000E+00  0.00000000000E+00  0.31936453876E+03  0.31936453876E+03  0.00000000000E+00 0. -1.
         -1   -1    0    0    0  501 -0.00000000000E+00 -0.00000000000E+00 -0.48481914627E+02  0.48481914627E+02  0.00000000000E+00 0.  1.
         23    2    1    2    0    0  0.60049610169E+02  0.79550297298E+01  0.13724567678E+03  0.19527191908E+03  0.12500203361E+03 0.  0.
         23    2    1    2    0    0 -0.60049610169E+02 -0.79550297298E+01  0.13363694735E+03  0.17257453431E+03  0.90850965949E+02 0.  0.
          5    1    3    3  502    0  0.78706268737E+02  0.14815001406E+02  0.15076195757E+03  0.17077885951E+03  0.47000000000E+01 0. -1.
         -5    1    3    3    0  502 -0.18656658568E+02 -0.68599716764E+01 -0.13516280795E+02  0.24493059565E+02  0.47000000000E+01 0. -1.
        -11    1    4    4    0    0 -0.64679295924E+02 -0.25427396320E+02  0.46587211181E+02  0.83667987011E+02  0.00000000000E+00 0.  1.
         11    1    4    4    0    0  0.46296857544E+01  0.17472366590E+02  0.87049736172E+02  0.88906547296E+02  0.00000000000E+00 0. -1.
<mgrwt>
<rscale>  0 0.13079419E+03</rscale>
<asrwt>0</asrwt>
<pdfrwt beam="1">  1        1 0.49133005E-01 0.13890553E+03</pdfrwt>
<pdfrwt beam="2">  1       -1 0.74587563E-02 0.13890553E+03</pdfrwt>
<totfact> 0.73963825E+03</totfact>
</mgrwt>
</event>
<event>
 8    1  0.1646661E-005  0.1285387E+03  0.7546771E-02  0.1244310E+00
          1   -1    0    0  501    0  0.00000000000E+00  0.00000000000E+00  0.63981752024E+02  0.63981752024E+02  0.00000000000E+00 0. -1.
         -1   -1    0    0    0  501 -0.00000000000E+00 -0.00000000000E+00 -0.19932489357E+03  0.19932489357E+03  0.00000000000E+00 0.  1.
         23    2    1    2    0    0  0.86686044240E+01 -0.28635308422E+02 -0.95027748997E+02  0.15985142049E+03  0.12500831157E+03 0.  0.
         23    2    1    2    0    0 -0.86686044240E+01  0.28635308422E+02 -0.40315392548E+02  0.10345522511E+03  0.90457322172E+02 0.  0.
          5    1    3    3  502    0  0.40521486781E+02  0.37109869918E+02 -0.36599537716E+02  0.66187230621E+02  0.47000000000E+01 0. -1.
         -5    1    3    3    0  502 -0.31852882357E+02 -0.65745178340E+02 -0.58428211280E+02  0.93664189864E+02  0.47000000000E+01 0. -1.
        -11    1    4    4    0    0 -0.27304275719E+02 -0.35729476822E+01 -0.56518159126E+02  0.62869640835E+02  0.00000000000E+00 0.  1.
         11    1    4    4    0    0  0.18635671295E+02  0.32208256104E+02  0.16202766578E+02  0.40585584272E+02  0.00000000000E+00 0. -1.
<mgrwt>
<rscale>  0 0.11926752E+03</rscale>
<asrwt>0</asrwt>
<pdfrwt beam="1">  1        1 0.98433467E-02 0.12853872E+03</pdfrwt>
<pdfrwt beam="2">  1       -1 0.30665368E-01 0.12853872E+03</pdfrwt>
<totfact> 0.61011578E+03</totfact>
</mgrwt>
</event>
<event>
 8    1  0.1646661E-005  0.1327168E+03  0.7546771E-02  0.1236566E+00
          2   -1    0    0  501    0  0.00000000000E+00  0.00000000000E+00  0.97299072707E+02  0.97299072707E+02  0.00000000000E+00 0. -1.
         -2   -1    0    0    0  501 -0.00000000000E+00 -0.00000000000E+00 -0.17493539475E+03  0.17493539475E+03  0.00000000000E+00 0.  1.
         23    2    1    2    0    0  0.80589466274E+01  0.43860438986E+02 -0.10279015819E+03  0.16786771842E+03  0.12500027816E+03 0.  0.
         23    2    1    2    0    0 -0.80589466274E+01 -0.43860438986E+02  0.25153836151E+02  0.10436674903E+03  0.90945137864E+02 0.  0.
          5    1    3    3  502    0  0.57225872541E+02 -0.10628394855E+02 -0.36534343268E+02  0.68881140404E+02  0.47000000000E+01 0. -1.
         -5    1    3    3    0  502 -0.49166925913E+02  0.54488833841E+02 -0.66255814923E+02  0.98986578020E+02  0.47000000000E+01 0. -1.
        -11    1    4    4    0    0  0.23925997895E+02 -0.29569953690E+02  0.48968818198E+02  0.62006295585E+02  0.00000000000E+00 0. -1.
         11    1    4    4    0    0 -0.31984944522E+02 -0.14290485296E+02 -0.23814982047E+02  0.42360453444E+02  0.00000000000E+00 0.  1.
<mgrwt>
<rscale>  0 0.12404702E+03</rscale>
<asrwt>0</asrwt>
<pdfrwt beam="1">  1        2 0.14969088E-01 0.13271682E+03</pdfrwt>
<pdfrwt beam="2">  1       -2 0.26913138E-01 0.13271682E+03</pdfrwt>
<totfact> 0.46362573E+03</totfact>
</mgrwt>
</event>
<event>
 8    1  0.1646661E-005  0.1692525E+03  0.7546771E-02  0.1185665E+00
         -2   -1    0    0    0  501 -0.00000000000E+00  0.00000000000E+00  0.63168124365E+02  0.63168124365E+02  0.00000000000E+00 0.  1.
          2   -1    0    0  501    0  0.00000000000E+00 -0.00000000000E+00 -0.52365615631E+03  0.52365615631E+03  0.00000000000E+00 0. -1.
         23    2    1    2    0    0  0.85271621749E+02  0.76007187008E+02 -0.95711398398E+02  0.19444040290E+03  0.12489217968E+03 0.  0.
         23    2    1    2    0    0 -0.85271621749E+02 -0.76007187008E+02 -0.36477663355E+03  0.39238387777E+03  0.88627158367E+02 0.  0.
          5    1    3    3  502    0 -0.23726215354E+02  0.47401534101E+02 -0.49081813919E+02  0.72394427878E+02  0.47000000000E+01 0.  1.
         -5    1    3    3    0  502  0.10899783710E+03  0.28605652906E+02 -0.46629584478E+02  0.12204597503E+03  0.47000000000E+01 0.  1.
        -11    1    4    4    0    0 -0.95297925946E+02 -0.35324287921E+02 -0.23575897837E+03  0.25673292716E+03  0.00000000000E+00 0.  1.
         11    1    4    4    0    0  0.10026304196E+02 -0.40682899086E+02 -0.12901765518E+03  0.13565095062E+03  0.00000000000E+00 0. -1.
<mgrwt>
<rscale>  0 0.16271502E+03</rscale>
<asrwt>0</asrwt>
<pdfrwt beam="2">  1        2 0.80562485E-01 0.16925247E+03</pdfrwt>
<pdfrwt beam="1">  1       -2 0.97181730E-02 0.16925247E+03</pdfrwt>
<totfact> 0.40138724E+03</totfact>
</mgrwt>
</event>
<event>
 8    1  0.2829447E-005  0.1474057E+03  0.7546771E-02  0.1213495E+00
          2   -1    0    0  501    0  0.00000000000E+00  0.00000000000E+00  0.65569966531E+03  0.65569966531E+03  0.00000000000E+00 0.  1.
         -2   -1    0    0    0  501 -0.00000000000E+00 -0.00000000000E+00 -0.27250326206E+02  0.27250326206E+02  0.00000000000E+00 0. -1.
         23    2    1    2    0    0  0.21090161207E+02  0.75224890263E+02  0.32799471937E+03  0.35959558486E+03  0.12499947880E+03 0.  0.
         23    2    1    2    0    0 -0.21090161207E+02 -0.75224890263E+02  0.30045461974E+03  0.32335440666E+03  0.90451726192E+02 0.  0.
          5    1    3    3  502    0 -0.44308848580E+02  0.31624997121E+02  0.64220351764E+02  0.84319381438E+02  0.47000000000E+01 0.  1.
         -5    1    3    3    0  502  0.65399009787E+02  0.43599893142E+02  0.26377436761E+03  0.27527620342E+03  0.47000000000E+01 0.  1.
        -11    1    4    4    0    0  0.15422172676E+02 -0.23004774790E+02  0.16285551646E+02  0.32129149781E+02  0.00000000000E+00 0. -1.
         11    1    4    4    0    0 -0.36512333883E+02 -0.52220115473E+02  0.28416906809E+03  0.29122525688E+03  0.00000000000E+00 0.  1.
<mgrwt>
<rscale>  0 0.13987695E+03</rscale>
<asrwt>0</asrwt>
<pdfrwt beam="1">  1        2 0.10087686E+00 0.14740573E+03</pdfrwt>
<pdfrwt beam="2">  1       -2 0.41923584E-02 0.14740573E+03</pdfrwt>
<totfact> 0.11158051E+04</totfact>
</mgrwt>
</event>
<event>
 8    1  0.1646661E-005  0.1449766E+03  0.7546771E-02  0.1216986E+00
         -2   -1    0    0    0  501 -0.00000000000E+00  0.00000000000E+00  0.32175128559E+02  0.32175128559E+02  0.00000000000E+00 0.  1.
          2   -1    0    0  501    0  0.00000000000E+00 -0.00000000000E+00 -0.56091904711E+03  0.56091904711E+03  0.00000000000E+00 0. -1.
         23    2    1    2    0    0 -0.19475709856E+02 -0.70808081707E+02 -0.22448898278E+03  0.26723310299E+03  0.12500056093E+03 0.  0.
         23    2    1    2    0    0  0.19475709856E+02  0.70808081707E+02 -0.30425493577E+03  0.32586107268E+03  0.90671302181E+02 0.  0.
          5    1    3    3  502    0 -0.52835072665E+02 -0.33230126430E+02 -0.20291041603E+03  0.21234526870E+03  0.47000000000E+01 0.  1.
         -5    1    3    3    0  502  0.33359362810E+02 -0.37577955276E+02 -0.21578566754E+02  0.54887834289E+02  0.47000000000E+01 0.  1.
        -11    1    4    4    0    0  0.85150532668E+01  0.10923743729E+02  0.16579314390E+01  0.13949302701E+02  0.00000000000E+00 0.  1.
         11    1    4    4    0    0  0.10960656589E+02  0.59884337978E+02 -0.30591286721E+03  0.31191176998E+03  0.00000000000E+00 0. -1.
<mgrwt>
<rscale>  0 0.13731666E+03</rscale>
<asrwt>0</asrwt>
<pdfrwt beam="2">  1        2 0.86295234E-01 0.14497665E+03</pdfrwt>
<pdfrwt beam="1">  1       -2 0.49500200E-02 0.14497665E+03</pdfrwt>
<totfact> 0.10391645E+04</totfact>
</mgrwt>
</event>
<event>
 8    1  0.1646661E-005  0.1382437E+03  0.7546771E-02  0.1228115E+00
         -1   -1    0    0    0  501 -0.00000000000E+00  0.00000000000E+00  0.76478975199E+02  0.76478975199E+02  0.00000000000E+00 0.  1.
          1   -1    0    0  501    0  0.00000000000E+00 -0.00000000000E+00 -0.23114735730E+03  0.23114735730E+03  0.00000000000E+00 0. -1.
         23    2    1    2    0    0  0.58684193550E+02  0.65539720831E+01 -0.26264878033E+02  0.14071661686E+03  0.12499813326E+03 0.  0.
         23    2    1    2    0    0 -0.58684193550E+02 -0.65539720831E+01 -0.12840350406E+03  0.16690971564E+03  0.88795293768E+02 0.  0.
          5    1    3    3  502    0  0.56361021964E+02  0.38132369027E+02 -0.62396385976E+02  0.92444801624E+02  0.47000000000E+01 0.  1.
         -5    1    3    3    0  502  0.23231715859E+01 -0.31578396944E+02  0.36131507943E+02  0.48271815234E+02  0.47000000000E+01 0.  1.
        -11    1    4    4    0    0 -0.70214123144E+02 -0.26545642152E+02 -0.64509655782E+02  0.98975703560E+02  0.00000000000E+00 0.  1.
         11    1    4    4    0    0  0.11529929594E+02  0.19991670069E+02 -0.63893848281E+02  0.67934012076E+02  0.00000000000E+00 0. -1.
<mgrwt>
<rscale>  0 0.12955696E+03</rscale>
<asrwt>0</asrwt>
<pdfrwt beam="2">  1        1 0.35561132E-01 0.13824371E+03</pdfrwt>
<pdfrwt beam="1">  1       -1 0.11765996E-01 0.13824371E+03</pdfrwt>
<totfact> 0.55127426E+03</totfact>
</mgrwt>
</event>
<event>
 8    1  0.1646661E-005  0.1362238E+03  0.7546771E-02  0.1231200E+00
          1   -1    0    0  501    0  0.00000000000E+00  0.00000000000E+00  0.14314605375E+03  0.14314605375E+03  0.00000000000E+00 0.  1.
         -1   -1    0    0    0  501 -0.00000000000E+00 -0.00000000000E+00 -0.10145661879E+03  0.10145661879E+03  0.00000000000E+00 0. -1.
         23    2    1    2    0    0  0.23361849713E+02 -0.48852852800E+02  0.28896109141E+02  0.13925483021E+03  0.12499818144E+03 0.  0.
         23    2    1    2    0    0 -0.23361849713E+02  0.48852852800E+02  0.12793325815E+02  0.10534784233E+03  0.89454577578E+02 0.  0.
          5    1    3    3  502    0 -0.49367814452E+02 -0.10167500037E+02 -0.31914814829E+01  0.50723118149E+02  0.47000000000E+01 0. -1.
         -5    1    3    3    0  502  0.72729664164E+02 -0.38685352763E+02  0.32087590623E+02  0.88531712058E+02  0.47000000000E+01 0. -1.
        -11    1    4    4    0    0  0.28554036960E+02  0.16694741660E+02 -0.17233089745E+02  0.37296471790E+02  0.00000000000E+00 0. -1.
         11    1    4    4    0    0 -0.51915886673E+02  0.32158111140E+02  0.30026415560E+02  0.68051370541E+02  0.00000000000E+00 0.  1.
<mgrwt>
<rscale>  0 0.12750863E+03</rscale>
<asrwt>0</asrwt>
<pdfrwt beam="1">  1        1 0.22022470E-01 0.13622380E+03</pdfrwt>
<pdfrwt beam="2">  1       -1 0.15608711E-01 0.13622380E+03</pdfrwt>
<totfact> 0.64553992E+03</totfact>
</mgrwt>
</event>
<event>
 8    1  0.1646661E-005  0.1141048E+03  0.7546771E-02  0.1264192E+00
          1   -1    0    0  501    0  0.00000000000E+00  0.00000000000E+00  0.36751197521E+02  0.36751197521E+02  0.00000000000E+00 0. -1.
         -1   -1    0    0    0  501 -0.00000000000E+00 -0.00000000000E+00 -0.29706467832E+03  0.29706467832E+03  0.00000000000E+00 0.  1.
         23    2    1    2    0    0  0.69154761394E+01 -0.46079845089E+01 -0.17216405826E+03  0.20654387412E+03  0.11380180864E+03 0.  0.
         23    2    1    2    0    0 -0.69154761394E+01  0.46079845089E+01 -0.88149422545E+02  0.12727200172E+03  0.91426387855E+02 0.  0.
          5    1    3    3  502    0  0.30666139790E+02 -0.47143093718E+02 -0.13082559791E+03  0.14247915807E+03  0.47000000000E+01 0. -1.
         -5    1    3    3    0  502 -0.23750663651E+02  0.42535109209E+02 -0.41338460348E+02  0.64064716055E+02  0.47000000000E+01 0.  1.
        -11    1    4    4    0    0  0.21375961651E+02  0.39123473336E+02 -0.59068595599E+02  0.74004573429E+02  0.00000000000E+00 0.  1.
         11    1    4    4    0    0 -0.28291437790E+02 -0.34515488828E+02 -0.29080826946E+02  0.53267428295E+02  0.00000000000E+00 0. -1.
<mgrwt>
<rscale>  0 0.10806686E+03</rscale>
<asrwt>0</asrwt>
<pdfrwt beam="1">  1        1 0.56540304E-02 0.11410482E+03</pdfrwt>
<pdfrwt beam="2">  1       -1 0.45702258E-01 0.11410482E+03</pdfrwt>
<totfact> 0.63727171E+03</totfact>
</mgrwt>
</event>
<event>
 7    1  0.1646661E-005  0.2096682E+03  0.7546771E-02  0.1169054E+00
          2   -1    0    0  501    0  0.00000000000E+00  0.00000000000E+00  0.38101193781E+02  0.38101193781E+02  0.00000000000E+00 0. -1.
         -2   -1    0    0    0  501 -0.00000000000E+00 -0.00000000000E+00 -0.10755745890E+04  0.10755745890E+04  0.00000000000E+00 0.  1.
         23    2    1    2    0    0 -0.21197399534E+01 -0.62524950576E+02 -0.88182799297E+02  0.14150636400E+03  0.91290646943E+02 0.  0.
          5    1    1    2  502    0 -0.33732734421E+02  0.95357632822E+02 -0.23097646091E+03  0.25219673075E+03  0.47000000000E+01 0. -1.
         -5    1    1    2    0  502  0.35852474375E+02 -0.32832682246E+02 -0.71831413498E+03  0.71997268799E+03  0.47000000000E+01 0.  1.
        -11    1    3    3    0    0  0.81432105468E+01 -0.84597566674E+02 -0.58780639891E+02  0.10333549144E+03  0.00000000000E+00 0. -1.
         11    1    3    3    0    0 -0.10262950500E+02  0.22072616098E+02 -0.29402159406E+02  0.38170872562E+02  0.00000000000E+00 0.  1.
<mgrwt>
<rscale>  0 0.17871329E+03</rscale>
<asrwt>0</asrwt>
<pdfrwt beam="1">  1        2 0.58617221E-02 0.20966817E+03</pdfrwt>
<pdfrwt beam="2">  1       -2 0.16547301E+00 0.20966817E+03</pdfrwt>
<totfact> 0.31055452E+02</totfact>
</mgrwt>
</event>
<event>
 8    1  0.1646661E-005  0.1255958E+03  0.7546771E-02  0.1252797E+00
         -4   -1    0    0    0  501 -0.00000000000E+00  0.00000000000E+00  0.17357981744E+03  0.17357981744E+03  0.00000000000E+00 0.  1.
          4   -1    0    0  501    0  0.00000000000E+00 -0.00000000000E+00 -0.64963944716E+02  0.64963944716E+02  0.00000000000E+00 0. -1.
         23    2    1    2    0    0 -0.12225432273E+02  0.24018429132E+00  0.73281879208E+02  0.14541160920E+03  0.12499913355E+03 0.  0.
         23    2    1    2    0    0  0.12225432273E+02 -0.24018429132E+00  0.35333993518E+02  0.93132152958E+02  0.85297057006E+02 0.  0.
          5    1    3    3  502    0  0.77846399617E+01  0.60720712259E+02  0.30733249843E+02  0.68660237128E+02  0.47000000000E+01 0.  1.
         -5    1    3    3    0  502 -0.20010072235E+02 -0.60480527968E+02  0.42548629365E+02  0.76751372072E+02  0.47000000000E+01 0.  1.
        -11    1    4    4    0    0 -0.22532658648E+02  0.21173792370E+02  0.41596365469E+02  0.51829603600E+02  0.00000000000E+00 0.  1.
         11    1    4    4    0    0  0.34758090922E+02 -0.21413976662E+02 -0.62623719516E+01  0.41302549358E+02  0.00000000000E+00 0. -1.
<mgrwt>
<rscale>  0 0.11430603E+03</rscale>
<asrwt>0</asrwt>
<pdfrwt beam="2">  1        4 0.99944531E-02 0.12559579E+03</pdfrwt>
<pdfrwt beam="1">  1       -4 0.26704587E-01 0.12559579E+03</pdfrwt>
<totfact> 0.16267960E+03</totfact>
</mgrwt>
</event>
<event>
 8    1  0.1646661E-005  0.1301795E+03  0.7546771E-02  0.1237736E+00
          2   -1    0    0  501    0  0.00000000000E+00  0.00000000000E+00  0.10141599116E+04  0.10141599116E+04  0.00000000000E+00 0. -1.
         -2   -1    0    0    0  501 -0.00000000000E+00 -0.00000000000E+00 -0.13681328809E+02  0.13681328809E+02  0.00000000000E+00 0.  1.
         23    2    1    2    0    0  0.24232824239E+02 -0.27125091798E+02  0.51731322411E+03  0.53344135894E+03  0.12499484474E+03 0.  0.
         23    2    1    2    0    0 -0.24232824239E+02  0.27125091798E+02  0.48316535872E+03  0.49439988151E+03  0.98282646450E+02 0.  0.
          5    1    3    3  502    0 -0.36257826164E+01  0.13276112975E+02  0.44879457971E+03  0.44903013958E+03  0.47000000000E+01 0.  1.
         -5    1    3    3    0  502  0.27858606855E+02 -0.40401204774E+02  0.68518644397E+02  0.84411219355E+02  0.47000000000E+01 0.  1.
        -11    1    4    4    0    0 -0.88360684975E+01 -0.37094904486E+02  0.15165658345E+03  0.15637719575E+03  0.00000000000E+00 0.  1.
         11    1    4    4    0    0 -0.15396755741E+02  0.64219996284E+02  0.33150877527E+03  0.33802268576E+03  0.00000000000E+00 0. -1.
<mgrwt>
<rscale>  0 0.12330895E+03</rscale>
<asrwt>0</asrwt>
<pdfrwt beam="1">  1        2 0.15602454E+00 0.13017954E+03</pdfrwt>
<pdfrwt beam="2">  1       -2 0.21048206E-02 0.13017954E+03</pdfrwt>
<totfact> 0.17584551E+04</totfact>
</mgrwt>
</event>
<event>
 8    1  0.1646661E-005  0.1541862E+03  0.7546771E-02  0.1204358E+00
          1   -1    0    0  501    0  0.00000000000E+00  0.00000000000E+00  0.19171190890E+03  0.19171190890E+03  0.00000000000E+00 0. -1.
         -1   -1    0    0    0  501 -0.00000000000E+00 -0.00000000000E+00 -0.11916216865E+03  0.11916216865E+03  0.00000000000E+00 0.  1.
         23    2    1    2    0    0 -0.13989951089E+02 -0.89163813567E+02 -0.17541538794E+02  0.15518083891E+03  0.12500993080E+03 0.  0.
         23    2    1    2    0    0  0.13989951089E+02  0.89163813567E+02  0.90091279049E+02  0.15569323865E+03  0.89319883664E+02 0.  0.
          5    1    3    3  502    0 -0.52047581176E+02 -0.83642212304E+02 -0.44277331034E+02  0.10810893778E+03  0.47000000000E+01 0. -1.
         -5    1    3    3    0  502  0.38057630087E+02 -0.55216012629E+01  0.26735792240E+02  0.47071901120E+02  0.47000000000E+01 0. -1.
        -11    1    4    4    0    0 -0.76309681723E+01  0.16006562175E+02 -0.16763507978E+02  0.24401985731E+02  0.00000000000E+00 0.  1.
         11    1    4    4    0    0  0.21620919261E+02  0.73157251392E+02  0.10685478703E+03  0.13129125291E+03  0.00000000000E+00 0. -1.
<mgrwt>
<rscale>  0 0.14688183E+03</rscale>
<asrwt>0</asrwt>
<pdfrwt beam="1">  1        1 0.29494140E-01 0.15418621E+03</pdfrwt>
<pdfrwt beam="2">  1       -1 0.18332641E-01 0.15418621E+03</pdfrwt>
<totfact> 0.34911976E+03</totfact>
</mgrwt>
</event>
<event>
 8    1  0.1646661E-005  0.1589804E+03  0.7546771E-02  0.1197123E+00
          1   -1    0    0  501    0  0.00000000000E+00  0.00000000000E+00  0.68489461801E+02  0.68489461801E+02  0.00000000000E+00 0. -1.
         -1   -1    0    0    0  501 -0.00000000000E+00 -0.00000000000E+00 -0.52533876779E+03  0.52533876779E+03  0.00000000000E+00 0.  1.
         23    2    1    2    0    0  0.74692703540E+02  0.63803070663E+02 -0.42620011201E+03  0.45488603172E+03  0.12499973837E+03 0.  0.
         23    2    1    2    0    0 -0.74692703540E+02 -0.63803070663E+02 -0.30649193973E+02  0.13894219786E+03  0.93358071250E+02 0.  0.
          5    1    3    3  502    0  0.57546274405E+02 -0.28713659457E+02 -0.15990188936E+03  0.17241447781E+03  0.47000000000E+01 0.  1.
         -5    1    3    3    0  502  0.17146429135E+02  0.92516730120E+02 -0.26629822265E+03  0.28247155391E+03  0.47000000000E+01 0.  1.
        -11    1    4    4    0    0 -0.57195154889E+02 -0.86465228535E+02 -0.11076310541E+02  0.10426028076E+03  0.00000000000E+00 0. -1.
         11    1    4    4    0    0 -0.17497548651E+02  0.22662157872E+02 -0.19572883432E+02  0.34681917105E+02  0.00000000000E+00 0.  1.
<mgrwt>
<rscale>  0 0.15275949E+03</rscale>
<asrwt>0</asrwt>
<pdfrwt beam="1">  1        1 0.10536841E-01 0.15898040E+03</pdfrwt>
<pdfrwt beam="2">  1       -1 0.80821346E-01 0.15898040E+03</pdfrwt>
<totfact> 0.94531264E+02</totfact>
</mgrwt>
</event>
<event>
 8    1  0.1646661E-005  0.1973808E+03  0.7546771E-02  0.1154153E+00
          1   -1    0    0  501    0  0.00000000000E+00  0.00000000000E+00  0.89458427038E+02  0.89458427038E+02  0.00000000000E+00 0. -1.
         -1   -1    0    0    0  501 -0.00000000000E+00 -0.00000000000E+00 -0.67366421717E+03  0.67366421717E+03  0.00000000000E+00 0.  1.
         23    2    1    2    0    0  0.95254007504E+02  0.12883675872E+03 -0.53360280339E+03  0.56893860748E+03  0.11526903725E+03 0.  0.
         23    2    1    2    0    0 -0.95254007504E+02 -0.12883675872E+03 -0.50602986736E+02  0.19418403673E+03  0.97337256531E+02 0.  0.
          5    1    3    3  502    0  0.71664580083E+02  0.17887840083E+02 -0.30296433875E+03  0.31187380046E+03  0.47000000000E+01 0. -1.
         -5    1    3    3    0  502  0.23589427421E+02  0.11094891864E+03 -0.23063846464E+03  0.25706480702E+03  0.47000000000E+01 0.  1.
        -11    1    4    4    0    0 -0.79109865146E+02 -0.42946842249E+02 -0.57018732421E+02  0.10655485850E+03  0.00000000000E+00 0. -1.
         11    1    4    4    0    0 -0.16144142357E+02 -0.85889916473E+02  0.64157456853E+01  0.87629178228E+02  0.00000000000E+00 0.  1.
<mgrwt>
<rscale>  0 0.19485628E+03</rscale>
<asrwt>0</asrwt>
<pdfrwt beam="1">  1        1 0.13762835E-01 0.19738082E+03</pdfrwt>
<pdfrwt beam="2">  1       -1 0.10364065E+00 0.19738082E+03</pdfrwt>
<totfact> 0.38991123E+02</totfact>
</mgrwt>
</event>
<event>
 8    1  0.1646661E-005  0.1560574E+03  0.7546771E-02  0.1200080E+00
          3   -1    0    0  501    0  0.00000000000E+00  0.00000000000E+00  0.39191033786E+02  0.39191033786E+02  0.00000000000E+00 0. -1.
         -3   -1    0    0    0  501 -0.00000000000E+00 -0.00000000000E+00 -0.60524836249E+03  0.60524836249E+03  0.00000000000E+00 0.  1.
         23    2    1    2    0    0 -0.69883690630E+02  0.61995198069E+02 -0.40901197564E+03  0.43777244729E+03  0.12500713816E+03 0.  0.
         23    2    1    2    0    0  0.69883690630E+02 -0.61995198069E+02 -0.15704535306E+03  0.20666694898E+03  0.96544549735E+02 0.  0.
          5    1    3    3  502    0 -0.44133493111E+02  0.51776282754E+01 -0.34638016782E+03  0.34925045985E+03  0.47000000000E+01 0.  1.
         -5    1    3    3    0  502 -0.25750197519E+02  0.56817569794E+02 -0.62631807827E+02  0.88521987446E+02  0.47000000000E+01 0.  1.
        -11    1    4    4    0    0  0.28151300047E+02 -0.35391851819E+02 -0.15001051193E+03  0.15667875592E+03  0.00000000000E+00 0.  1.
         11    1    4    4    0    0  0.41732390583E+02 -0.26603346251E+02 -0.70348411367E+01  0.49988193059E+02  0.00000000000E+00 0. -1.
<mgrwt>
<rscale>  0 0.15032005E+03</rscale>
<asrwt>0</asrwt>
<pdfrwt beam="1">  1        3 0.60293907E-02 0.15605742E+03</pdfrwt>
<pdfrwt beam="2">  1       -3 0.93115119E-01 0.15605742E+03</pdfrwt>
<totfact> 0.42561463E+02</totfact>
</mgrwt>
</event>
<event>
 8    1  0.1646661E-005  0.2037839E+03  0.7546771E-02  0.1150613E+00
          1   -1    0    0  501    0  0.00000000000E+00  0.00000000000E+00  0.89452661619E+03  0.89452661619E+03  0.00000000000E+00 0. -1.
         -1   -1    0    0    0  501 -0.00000000000E+00 -0.00000000000E+00 -0.57857816389E+02  0.57857816389E+02  0.00000000000E+00 0.  1.
         23    2    1    2    0    0  0.10074609318E+02  0.16062728619E+03  0.18610766332E+03  0.27597815520E+03  0.12500102793E+03 0.  0.
         23    2    1    2    0    0 -0.10074609318E+02 -0.16062728619E+03  0.65056113648E+03  0.67640627737E+03  0.91613519469E+02 0.  0.
          5    1    3    3  502    0  0.47847675163E+02  0.77035208334E+02  0.31444825775E+02  0.96097296578E+02  0.47000000000E+01 0. -1.
         -5    1    3    3    0  502 -0.37773065846E+02  0.83592077855E+02  0.15466283754E+03  0.17988085863E+03  0.47000000000E+01 0. -1.
        -11    1    4    4    0    0  0.26657354563E+02 -0.17694771380E+02  0.19302111091E+03  0.19565497373E+03  0.00000000000E+00 0. -1.
         11    1    4    4    0    0 -0.36731963880E+02 -0.14293251481E+03  0.45754002557E+03  0.48075130364E+03  0.00000000000E+00 0.  1.
<mgrwt>
<rscale>  0 0.19896757E+03</rscale>
<asrwt>0</asrwt>
<pdfrwt beam="1">  1        1 0.13761947E+00 0.20378390E+03</pdfrwt>
<pdfrwt beam="2">  1       -1 0.89012032E-02 0.20378390E+03</pdfrwt>
<totfact> 0.14082112E+03</totfact>
</mgrwt>
</event>
<event>
 8    1  0.1646661E-005  0.1367369E+03  0.7546771E-02  0.1230328E+00
         -2   -1    0    0    0  501 -0.00000000000E+00  0.00000000000E+00  0.13968054972E+03  0.13968054972E+03  0.00000000000E+00 0.  1.
          2   -1    0    0  501    0  0.00000000000E+00 -0.00000000000E+00 -0.12816272251E+03  0.12816272251E+03  0.00000000000E+00 0. -1.
         23    2    1    2    0    0  0.40760444184E+02 -0.37565662250E+02  0.63122505874E+02  0.15060354598E+03  0.12499753806E+03 0.  0.
         23    2    1    2    0    0 -0.40760444184E+02  0.37565662250E+02 -0.51604678664E+02  0.11723972626E+03  0.89495909199E+02 0.  0.
          5    1    3    3  502    0  0.39472776238E+02  0.40875976397E+02  0.36146149711E+02  0.67509848536E+02  0.47000000000E+01 0. -1.
         -5    1    3    3    0  502  0.12876679458E+01 -0.78441638647E+02  0.26976356163E+02  0.83093697439E+02  0.47000000000E+01 0. -1.
        -11    1    4    4    0    0 -0.42408707522E+02  0.23290763339E+01  0.12324103456E+02  0.44224502216E+02  0.00000000000E+00 0.  1.
         11    1    4    4    0    0  0.16482633384E+01  0.35236585916E+02 -0.63928782119E+02  0.73015224045E+02  0.00000000000E+00 0. -1.
<mgrwt>
<rscale>  0 0.12808318E+03</rscale>
<asrwt>0</asrwt>
<pdfrwt beam="2">  1        2 0.19717342E-01 0.13673689E+03</pdfrwt>
<pdfrwt beam="1">  1       -2 0.21489315E-01 0.13673689E+03</pdfrwt>
<totfact> 0.49993783E+03</totfact>
</mgrwt>
</event>
<event>
 8    1  0.1646661E-005  0.1410735E+03  0.7546771E-02  0.1222817E+00
          1   -1    0    0  501    0  0.00000000000E+00  0.00000000000E+00  0.13219063965E+03  0.13219063965E+03  0.00000000000E+00 0. -1.
         -1   -1    0    0    0  501 -0.00000000000E+00 -0.00000000000E+00 -0.13015796472E+03  0.13015796472E+03  0.00000000000E+00 0.  1.
         23    2    1    2    0    0  0.13872157004E+02 -0.63915487825E+02 -0.33147107259E+02  0.14491532252E+03  0.12499637457E+03 0.  0.
         23    2    1    2    0    0 -0.13872157004E+02  0.63915487825E+02  0.35179782194E+02  0.11743328185E+03  0.90968853393E+02 0.  0.
          5    1    3    3  502    0 -0.53049290568E+02 -0.14271458091E+02 -0.26556393082E+02  0.61198315004E+02  0.47000000000E+01 0.  1.
         -5    1    3    3    0  502  0.66921447572E+02 -0.49644029734E+02 -0.65907141765E+01  0.83717007511E+02  0.47000000000E+01 0.  1.
        -11    1    4    4    0    0 -0.46007840538E+02  0.63811913970E+02  0.16902871736E+02  0.80463586972E+02  0.00000000000E+00 0.  1.
         11    1    4    4    0    0  0.32135683534E+02  0.10357385510E+00  0.18276910458E+02  0.36969694881E+02  0.00000000000E+00 0. -1.
<mgrwt>
<rscale>  0 0.13317639E+03</rscale>
<asrwt>0</asrwt>
<pdfrwt beam="1">  1        1 0.20337021E-01 0.14107346E+03</pdfrwt>
<pdfrwt beam="2">  1       -1 0.20024302E-01 0.14107346E+03</pdfrwt>
<totfact> 0.48173715E+03</totfact>
</mgrwt>
</event>
<event>
 8    1  0.2059516E-005  0.1868991E+03  0.7546771E-02  0.1166284E+00
          2   -1    0    0  501    0  0.00000000000E+00  0.00000000000E+00  0.81377955329E+03  0.81377955329E+03  0.00000000000E+00 0. -1.
         -2   -1    0    0    0  501 -0.00000000000E+00 -0.00000000000E+00 -0.38419054251E+02  0.38419054251E+02  0.00000000000E+00 0.  1.
         23    2    1    2    0    0 -0.14834297488E+02  0.13815325601E+03  0.39472716878E+03  0.43673884592E+03  0.12499961292E+03 0.  0.
         23    2    1    2    0    0  0.14834297488E+02 -0.13815325601E+03  0.38063333026E+03  0.41545976163E+03  0.91753489841E+02 0.  0.
          5    1    3    3  502    0  0.17154329375E+02  0.38947377777E+02  0.19090322983E+02  0.46879629730E+02  0.47000000000E+01 0. -1.
         -5    1    3    3    0  502 -0.31988626863E+02  0.99205878233E+02  0.37563684580E+03  0.38985921619E+03  0.47000000000E+01 0. -1.
        -11    1    4    4    0    0  0.24806918901E+02 -0.68533324827E+01  0.12807864021E+03  0.13063877476E+03  0.00000000000E+00 0.  1.
         11    1    4    4    0    0 -0.99726214131E+01 -0.13129992353E+03  0.25255469005E+03  0.28482098687E+03  0.00000000000E+00 0. -1.
<mgrwt>
<rscale>  0 0.18157855E+03</rscale>
<asrwt>0</asrwt>
<pdfrwt beam="1">  1        2 0.12519684E+00 0.18689912E+03</pdfrwt>
<pdfrwt beam="2">  1       -2 0.59106243E-02 0.18689912E+03</pdfrwt>
<totfact> 0.51733660E+03</totfact>
</mgrwt>
</event>
<event>
 8    1  0.1646661E-005  0.1410321E+03  0.7546771E-02  0.1222543E+00
         -1   -1    0    0    0  501 -0.00000000000E+00  0.00000000000E+00  0.10577801843E+03  0.10577801843E+03  0.00000000000E+00 0.  1.
          1   -1    0    0  501    0  0.00000000000E+00 -0.00000000000E+00 -0.17674212139E+03  0.17674212139E+03  0.00000000000E+00 0. -1.
         23    2    1    2    0    0  0.62284884675E+02 -0.19655057357E+02  0.13411307167E+02  0.14166828707E+03  0.12499724902E+03 0.  0.
         23    2    1    2    0    0 -0.62284884675E+02  0.19655057357E+02 -0.84375410127E+02  0.14085185275E+03  0.91947302569E+02 0.  0.
          5    1    3    3  502    0  0.35918295880E+02  0.48638585304E+02 -0.15861731752E+02  0.62685887514E+02  0.47000000000E+01 0.  1.
         -5    1    3    3    0  502  0.26366588796E+02 -0.68293642660E+02  0.29273038919E+02  0.78982399559E+02  0.47000000000E+01 0.  1.
        -11    1    4    4    0    0 -0.74338620153E+02  0.17632953268E+02 -0.96870129898E+02  0.12337330973E+03  0.00000000000E+00 0. -1.
         11    1    4    4    0    0  0.12053735477E+02  0.20221040882E+01  0.12494719771E+02  0.17478543019E+02  0.00000000000E+00 0.  1.
<mgrwt>
<rscale>  0 0.13336732E+03</rscale>
<asrwt>0</asrwt>
<pdfrwt beam="2">  1        1 0.27191095E-01 0.14103205E+03</pdfrwt>
<pdfrwt beam="1">  1       -1 0.16273541E-01 0.14103205E+03</pdfrwt>
<totfact> 0.46472347E+03</totfact>
</mgrwt>
</event>
<event>
 8    1  0.1646661E-005  0.1299502E+03  0.7546771E-02  0.1231438E+00
         -1   -1    0    0    0  501 -0.00000000000E+00  0.00000000000E+00  0.81927611226E+03  0.81927611226E+03  0.00000000000E+00 0.  1.
          1   -1    0    0  501    0  0.00000000000E+00 -0.00000000000E+00 -0.29099041750E+02  0.29099041750E+02  0.00000000000E+00 0. -1.
         23    2    1    2    0    0  0.55641748040E+02  0.36162528659E+02  0.65474401935E+03  0.66751537785E+03  0.11172876169E+03 0.  0.
         23    2    1    2    0    0 -0.55641748040E+02 -0.36162528659E+02  0.13543305116E+03  0.18085977616E+03  0.99821914836E+02 0.  0.
          5    1    3    3  502    0  0.59094754780E+02  0.25738732882E+02  0.15907030459E+03  0.17169776998E+03  0.47000000000E+01 0. -1.
         -5    1    3    3    0  502 -0.34530067396E+01  0.10423795778E+02  0.49567371476E+03  0.49581760788E+03  0.47000000000E+01 0.  1.
        -11    1    4    4    0    0 -0.14713465727E+02  0.33101732171E+02  0.24134595657E+02  0.43528030670E+02  0.00000000000E+00 0.  1.
         11    1    4    4    0    0 -0.40928282312E+02 -0.69264260831E+02  0.11129845550E+03  0.13733174549E+03  0.00000000000E+00 0. -1.
<mgrwt>
<rscale>  0 0.12735258E+03</rscale>
<asrwt>0</asrwt>
<pdfrwt beam="2">  1        1 0.44767763E-02 0.12995018E+03</pdfrwt>
<pdfrwt beam="1">  1       -1 0.12604246E+00 0.12995018E+03</pdfrwt>
<totfact> 0.11171061E+03</totfact>
</mgrwt>
</event>
<event>
 8    1  0.1646661E-005  0.1912455E+03  0.7546771E-02  0.1162138E+00
         -1   -1    0    0    0  501 -0.00000000000E+00  0.00000000000E+00  0.13347771408E+03  0.13347771408E+03  0.00000000000E+00 0.  1.
          1   -1    0    0  501    0  0.00000000000E+00 -0.00000000000E+00 -0.27480470695E+03  0.27480470695E+03  0.00000000000E+00 0. -1.
         23    2    1    2    0    0  0.44344379837E+02  0.13777952244E+03 -0.14039301689E+03  0.23724471971E+03  0.12500094803E+03 0.  0.
         23    2    1    2    0    0 -0.44344379837E+02 -0.13777952244E+03 -0.93397598300E+00  0.17103770132E+03  0.91123005517E+02 0.  0.
          5    1    3    3  502    0  0.63248743543E+01  0.11343121454E+03 -0.15254017132E+03  0.19025571827E+03  0.47000000000E+01 0. -1.
         -5    1    3    3    0  502  0.38019505482E+02  0.24348307902E+02  0.12147154431E+02  0.46989001432E+02  0.47000000000E+01 0. -1.
        -11    1    4    4    0    0  0.28982824476E+01 -0.12035123080E+03  0.39159384077E+01  0.12044979606E+03  0.00000000000E+00 0.  1.
         11    1    4    4    0    0 -0.47242662284E+02 -0.17428291639E+02 -0.48499143907E+01  0.50587905262E+02  0.00000000000E+00 0. -1.
<mgrwt>
<rscale>  0 0.18597940E+03</rscale>
<asrwt>0</asrwt>
<pdfrwt beam="2">  1        1 0.42277647E-01 0.19124554E+03</pdfrwt>
<pdfrwt beam="1">  1       -1 0.20535033E-01 0.19124554E+03</pdfrwt>
<totfact> 0.18710157E+03</totfact>
</mgrwt>
</event>
<event>
 8    1  0.1646661E-005  0.1663013E+03  0.7546771E-02  0.1189198E+00
          2   -1    0    0  501    0  0.00000000000E+00  0.00000000000E+00  0.93478773982E+03  0.93478773982E+03  0.00000000000E+00 0. -1.
         -2   -1    0    0    0  501 -0.00000000000E+00 -0.00000000000E+00 -0.26523585766E+02  0.26523585766E+02  0.00000000000E+00 0.  1.
         23    2    1    2    0    0  0.86648512177E+02  0.67265469347E+02  0.38454338783E+03  0.41896267697E+03  0.12499399801E+03 0.  0.
         23    2    1    2    0    0 -0.86648512177E+02 -0.67265469347E+02  0.52372076622E+03  0.54234864862E+03  0.88464725500E+02 0.  0.
          5    1    3    3  502    0  0.80443578244E+01  0.60661901728E+02  0.28669527810E+03  0.29319080903E+03  0.47000000000E+01 0.  1.
         -5    1    3    3    0  502  0.78604154352E+02  0.66035676193E+01  0.97848109729E+02  0.12577186794E+03  0.47000000000E+01 0.  1.
        -11    1    4    4    0    0 -0.12865778932E+02 -0.26178545381E+02  0.31482509546E+02  0.42918444905E+02  0.00000000000E+00 0.  1.
         11    1    4    4    0    0 -0.73782733245E+02 -0.41086923966E+02  0.49223825667E+03  0.49943020371E+03  0.00000000000E+00 0. -1.
<mgrwt>
<rscale>  0 0.15955678E+03</rscale>
<asrwt>0</asrwt>
<pdfrwt beam="1">  1        2 0.14381347E+00 0.16630126E+03</pdfrwt>
<pdfrwt beam="2">  1       -2 0.40805524E-02 0.16630126E+03</pdfrwt>
<totfact> 0.75195908E+03</totfact>
</mgrwt>
</event>
<event>
 8    1  0.1646661E-005  0.1700612E+03  0.7546771E-02  0.1184133E+00
         -2   -1    0    0    0  501 -0.00000000000E+00  0.00000000000E+00  0.37222228163E+03  0.37222228163E+03  0.00000000000E+00 0.  1.
          2   -1    0    0  501    0  0.00000000000E+00 -0.00000000000E+00 -0.67722378198E+02  0.67722378198E+02  0.00000000000E+00 0. -1.
         23    2    1    2    0    0 -0.10227246618E+03  0.53267514838E+02  0.16252342037E+03  0.23523322946E+03  0.12499489828E+03 0.  0.
         23    2    1    2    0    0  0.10227246618E+03 -0.53267514838E+02  0.14197648306E+03  0.20471143037E+03  0.91936731000E+02 0.  0.
          5    1    3    3  502    0 -0.40580156695E+02 -0.21160218239E+02  0.12185413577E+03  0.13024985358E+03  0.47000000000E+01 0. -1.
         -5    1    3    3    0  502 -0.61692309482E+02  0.74427733077E+02  0.40669284598E+02  0.10498337587E+03  0.47000000000E+01 0. -1.
        -11    1    4    4    0    0  0.13954902233E+02 -0.46636289795E+02  0.17056909490E+02  0.51581207659E+02  0.00000000000E+00 0. -1.
         11    1    4    4    0    0  0.88317563944E+02 -0.66312250432E+01  0.12491957357E+03  0.15313022271E+03  0.00000000000E+00 0.  1.
<mgrwt>
<rscale>  0 0.16410996E+03</rscale>
<asrwt>0</asrwt>
<pdfrwt beam="2">  1        2 0.10418828E-01 0.17006120E+03</pdfrwt>
<pdfrwt beam="1">  1       -2 0.57264965E-01 0.17006120E+03</pdfrwt>
<totfact> 0.17361287E+03</totfact>
</mgrwt>
</event>
<event>
 8    1  0.1646661E-005  0.1532991E+03  0.7546771E-02  0.1206224E+00
          1   -1    0    0  501    0  0.00000000000E+00  0.00000000000E+00  0.35180568263E+03  0.35180568263E+03  0.00000000000E+00 0. -1.
         -1   -1    0    0    0  501 -0.00000000000E+00 -0.00000000000E+00 -0.60127575161E+02  0.60127575161E+02  0.00000000000E+00 0.  1.
         23    2    1    2    0    0  0.52634803756E+02  0.71447478531E+02  0.98149417400E+02  0.18202723895E+03  0.12500177131E+03 0.  0.
         23    2    1    2    0    0 -0.52634803756E+02 -0.71447478531E+02  0.19352869007E+03  0.22990601884E+03  0.86765539610E+02 0.  0.
          5    1    3    3  502    0  0.67332809277E+02  0.97207653468E+02  0.95147376643E+02  0.15184909740E+03  0.47000000000E+01 0.  1.
         -5    1    3    3    0  502 -0.14698005521E+02 -0.25760174937E+02  0.30020407570E+01  0.30178141556E+02  0.47000000000E+01 0.  1.
        -11    1    4    4    0    0  0.20174579382E+02  0.81829218773E+00  0.20641197096E+02  0.28874595632E+02  0.00000000000E+00 0.  1.
         11    1    4    4    0    0 -0.72809383138E+02 -0.72265770718E+02  0.17288749297E+03  0.20103142321E+03  0.00000000000E+00 0. -1.
<mgrwt>
<rscale>  0 0.14541420E+03</rscale>
<asrwt>0</asrwt>
<pdfrwt beam="1">  1        1 0.54123950E-01 0.15329908E+03</pdfrwt>
<pdfrwt beam="2">  1       -1 0.92503964E-02 0.15329908E+03</pdfrwt>
<totfact> 0.47598364E+03</totfact>
</mgrwt>
</event>
<event>
 8    1  0.1646661E-005  0.1719758E+03  0.7546771E-02  0.1181913E+00
         -1   -1    0    0    0  501 -0.00000000000E+00  0.00000000000E+00  0.60125074871E+02  0.60125074871E+02  0.00000000000E+00 0.  1.
          1   -1    0    0  501    0  0.00000000000E+00 -0.00000000000E+00 -0.43070099872E+03  0.43070099872E+03  0.00000000000E+00 0. -1.
         23    2    1    2    0    0 -0.91506181047E+02  0.74680622460E+02 -0.19672592973E+03  0.26129826090E+03  0.12500045272E+03 0.  0.
         23    2    1    2    0    0  0.91506181047E+02 -0.74680622460E+02 -0.17384999412E+03  0.22952781269E+03  0.92242180168E+02 0.  0.
          5    1    3    3  502    0 -0.57342134390E+02 -0.19006426877E+01 -0.12610120523E+02  0.58930789564E+02  0.47000000000E+01 0.  1.
         -5    1    3    3    0  502 -0.34164046658E+02  0.76581265148E+02 -0.18411580920E+03  0.20236747133E+03  0.47000000000E+01 0.  1.
        -11    1    4    4    0    0  0.54570168565E+02 -0.83494749127E+02 -0.16108464577E+03  0.18946646017E+03  0.00000000000E+00 0. -1.
         11    1    4    4    0    0  0.36936012483E+02  0.88141266669E+01 -0.12765348357E+02  0.40061352520E+02  0.00000000000E+00 0.  1.
<mgrwt>
<rscale>  0 0.16615938E+03</rscale>
<asrwt>0</asrwt>
<pdfrwt beam="2">  1        1 0.66261690E-01 0.17197584E+03</pdfrwt>
<pdfrwt beam="1">  1       -1 0.92500118E-02 0.17197584E+03</pdfrwt>
<totfact> 0.37043526E+03</totfact>
</mgrwt>
</event>
<event>
 8    1  0.1646661E-005  0.1275087E+03  0.7546771E-02  0.1245421E+00
          1   -1    0    0  501    0  0.00000000000E+00  0.00000000000E+00  0.26278681453E+03  0.26278681453E+03  0.00000000000E+00 0. -1.
         -1   -1    0    0    0  501 -0.00000000000E+00 -0.00000000000E+00 -0.59348812413E+02  0.59348812413E+02  0.00000000000E+00 0.  1.
         23    2    1    2    0    0 -0.24858683422E+02  0.38411057559E+01  0.41371263248E+02  0.13405246003E+03  0.12500308949E+03 0.  0.
         23    2    1    2    0    0  0.24858683422E+02 -0.38411057559E+01  0.16206673887E+03  0.18808316691E+03  0.92070307883E+02 0.  0.
          5    1    3    3  502    0 -0.56159214003E+01  0.20908655126E+02 -0.41560485005E+02  0.47096436661E+02  0.47000000000E+01 0. -1.
         -5    1    3    3    0  502 -0.19242762022E+02 -0.17067549370E+02  0.82931748253E+02  0.86956023368E+02  0.47000000000E+01 0. -1.
        -11    1    4    4    0    0  0.46705457957E+02 -0.33671992483E+02  0.11088302800E+03  0.12494098118E+03  0.00000000000E+00 0. -1.
         11    1    4    4    0    0 -0.21846774534E+02  0.29830886727E+02  0.51183710869E+02  0.63142185730E+02  0.00000000000E+00 0.  1.
<mgrwt>
<rscale>  0 0.11860219E+03</rscale>
<asrwt>0</asrwt>
<pdfrwt beam="1">  1        1 0.40428740E-01 0.12750875E+03</pdfrwt>
<pdfrwt beam="2">  1       -1 0.91305867E-02 0.12750875E+03</pdfrwt>
<totfact> 0.68956586E+03</totfact>
</mgrwt>
</event>
<event>
 8    1  0.1646661E-005  0.3169035E+03  0.7546771E-02  0.1078469E+00
          1   -1    0    0  501    0  0.00000000000E+00  0.00000000000E+00  0.22012028341E+04  0.22012028341E+04  0.00000000000E+00 0.  1.
         -1   -1    0    0    0  501 -0.00000000000E+00 -0.00000000000E+00 -0.55730078168E+02  0.55730078168E+02  0.00000000000E+00 0. -1.
         23    2    1    2    0    0 -0.12320335129E+03 -0.26387604074E+03  0.57007983626E+03  0.65224141454E+03  0.12497284699E+03 0.  0.
         23    2    1    2    0    0  0.12320335129E+03  0.26387604074E+03  0.15753929197E+04  0.16046914978E+04  0.91445726447E+02 0.  0.
          5    1    3    3  502    0 -0.13756870120E+03 -0.26588212736E+03  0.52160543267E+03  0.60142561518E+03  0.47000000000E+01 0.  1.
         -5    1    3    3    0  502  0.14365349915E+02  0.20060866142E+01  0.48474403588E+02  0.50815799363E+02  0.47000000000E+01 0.  1.
        -11    1    4    4    0    0  0.11116325305E+02  0.34159399654E+01  0.16300566937E+02  0.20023731336E+02  0.00000000000E+00 0. -1.
         11    1    4    4    0    0  0.11208702598E+03  0.26046010078E+03  0.15590923528E+04  0.15846677664E+04  0.00000000000E+00 0.  1.
<mgrwt>
<rscale>  0 0.31394672E+03</rscale>
<asrwt>0</asrwt>
<pdfrwt beam="1">  1        1 0.33864652E+00 0.31690352E+03</pdfrwt>
<pdfrwt beam="2">  1       -1 0.85738599E-02 0.31690352E+03</pdfrwt>
<totfact> 0.19139817E+02</totfact>
</mgrwt>
</event>
<event>
 8    1  0.1646661E-005  0.1278919E+03  0.7546771E-02  0.1245909E+00
         -2   -1    0    0    0  501 -0.00000000000E+00  0.00000000000E+00  0.26266835153E+03  0.26266835153E+03  0.00000000000E+00 0.  1.
          2   -1    0    0  501    0  0.00000000000E+00 -0.00000000000E+00 -0.48706917214E+02  0.48706917214E+02  0.00000000000E+00 0. -1.
         23    2    1    2    0    0 -0.20365254013E+02 -0.17824241915E+02  0.15391973135E+03  0.20011904760E+03  0.12499560929E+03 0.  0.
         23    2    1    2    0    0  0.20365254013E+02  0.17824241915E+02  0.60041702969E+02  0.11125622115E+03  0.89668798800E+02 0.  0.
          5    1    3    3  502    0 -0.17325868293E+02 -0.65776429793E+02  0.47019930608E+02  0.82823235284E+02  0.47000000000E+01 0.  1.
         -5    1    3    3    0  502 -0.30393857202E+01  0.47952187879E+02  0.10689980074E+03  0.11729581231E+03  0.47000000000E+01 0.  1.
        -11    1    4    4    0    0  0.49483983256E+02 -0.92839149518E+01  0.48316194575E+02  0.69780443779E+02  0.00000000000E+00 0. -1.
         11    1    4    4    0    0 -0.29118729243E+02  0.27108156866E+02  0.11725508394E+02  0.41475777371E+02  0.00000000000E+00 0.  1.
<mgrwt>
<rscale>  0 0.11831111E+03</rscale>
<asrwt>0</asrwt>
<pdfrwt beam="2">  1        2 0.74933720E-02 0.12789194E+03</pdfrwt>
<pdfrwt beam="1">  1       -2 0.40410515E-01 0.12789194E+03</pdfrwt>
<totfact> 0.51073984E+03</totfact>
</mgrwt>
</event>
<event>
 7    1  0.1646661E-005  0.1401422E+03  0.7546771E-02  0.1226788E+00
         -1   -1    0    0    0  501 -0.00000000000E+00  0.00000000000E+00  0.26628906731E+03  0.26628906731E+03  0.00000000000E+00 0.  1.
          1   -1    0    0  501    0  0.00000000000E+00 -0.00000000000E+00 -0.12736112137E+03  0.12736112137E+03  0.00000000000E+00 0. -1.
         23    2    1    2    0    0 -0.14015466672E+02 -0.32833633983E+01 -0.81057171192E+02  0.13281825577E+03  0.10422672538E+03 0.  0.
          5    1    1    2  502    0 -0.18461813392E+02  0.24644452727E+02 -0.57932654387E+01  0.31683426715E+02  0.47000000000E+01 0. -1.
         -5    1    1    2    0  502  0.32477280064E+02 -0.21361089329E+02  0.22577838257E+03  0.22914850620E+03  0.47000000000E+01 0.  1.
        -11    1    3    3    0    0  0.24229402549E+02  0.34972549470E+02 -0.10340456647E+02  0.43784337474E+02  0.00000000000E+00 0.  1.
         11    1    3    3    0    0 -0.38244869221E+02 -0.38255912869E+02 -0.70716714545E+02  0.89033918296E+02  0.00000000000E+00 0. -1.
<mgrwt>
<rscale>  0 0.13045097E+03</rscale>
<asrwt>0</asrwt>
<pdfrwt beam="2">  1        1 0.19594019E-01 0.14014223E+03</pdfrwt>
<pdfrwt beam="1">  1       -1 0.40967549E-01 0.14014223E+03</pdfrwt>
<totfact> 0.15218915E+03</totfact>
</mgrwt>
</event>
<event>
 8    1  0.1646661E-005  0.1512646E+03  0.7546771E-02  0.1207589E+00
         -1   -1    0    0    0  501 -0.00000000000E+00  0.00000000000E+00  0.34229918275E+02  0.34229918275E+02  0.00000000000E+00 0.  1.
          1   -1    0    0  501    0  0.00000000000E+00 -0.00000000000E+00 -0.75307337501E+03  0.75307337501E+03  0.00000000000E+00 0. -1.
         23    2    1    2    0    0 -0.27647156586E+02 -0.80555593125E+02 -0.18526138368E+03  0.23917097519E+03  0.12500962458E+03 0.  0.
         23    2    1    2    0    0  0.27647156586E+02  0.80555593125E+02 -0.53358207305E+03  0.54813231810E+03  0.92117536927E+02 0.  0.
          5    1    3    3  502    0  0.30657441735E+02 -0.73501074372E+02 -0.15161537915E+03  0.17132308619E+03  0.47000000000E+01 0. -1.
         -5    1    3    3    0  502 -0.58304598321E+02 -0.70545187522E+01 -0.33646004534E+02  0.67847888997E+02  0.47000000000E+01 0. -1.
        -11    1    4    4    0    0  0.16499621713E+02  0.10088245721E+03 -0.44082959264E+03  0.45252650467E+03  0.00000000000E+00 0. -1.
         11    1    4    4    0    0  0.11147534874E+02 -0.20326864081E+02 -0.92752480415E+02  0.95605813423E+02  0.00000000000E+00 0.  1.
<mgrwt>
<rscale>  0 0.14435300E+03</rscale>
<asrwt>0</asrwt>
<pdfrwt beam="2">  1        1 0.11585744E+00 0.15126459E+03</pdfrwt>
<pdfrwt beam="1">  1       -1 0.52661414E-02 0.15126459E+03</pdfrwt>
<totfact> 0.40262883E+03</totfact>
</mgrwt>
</event>
<event>
 8    1  0.1646661E-005  0.1262276E+03  0.7546771E-02  0.1248887E+00
         -2   -1    0    0    0  501 -0.00000000000E+00  0.00000000000E+00  0.21414326456E+02  0.21414326456E+02  0.00000000000E+00 0. -1.
          2   -1    0    0  501    0  0.00000000000E+00 -0.00000000000E+00 -0.55583629863E+03  0.55583629863E+03  0.00000000000E+00 0.  1.
         23    2    1    2    0    0  0.12374458547E+02 -0.12354489732E+02 -0.32167052852E+03  0.34555076441E+03  0.12501056445E+03 0.  0.
         23    2    1    2    0    0 -0.12374458547E+02  0.12354489732E+02 -0.21275144365E+03  0.23169986067E+03  0.90088223536E+02 0.  0.
          5    1    3    3  502    0  0.35471641284E+02 -0.61757131211E+02 -0.18935292200E+03  0.20235809760E+03  0.47000000000E+01 0. -1.
         -5    1    3    3    0  502 -0.23097182737E+02  0.49402641479E+02 -0.13231760652E+03  0.14319266682E+03  0.47000000000E+01 0. -1.
        -11    1    4    4    0    0 -0.45030829704E+02 -0.65862386670E+01 -0.16307608148E+03  0.16930730201E+03  0.00000000000E+00 0.  1.
         11    1    4    4    0    0  0.32656371157E+02  0.18940728399E+02 -0.49675362164E+02  0.62392558656E+02  0.00000000000E+00 0. -1.
<mgrwt>
<rscale>  0 0.11655753E+03</rscale>
<asrwt>0</asrwt>
<pdfrwt beam="2">  1        2 0.85513262E-01 0.12622758E+03</pdfrwt>
<pdfrwt beam="1">  1       -2 0.32945123E-02 0.12622758E+03</pdfrwt>
<totfact> 0.19030309E+04</totfact>
</mgrwt>
</event>
<event>
 8    1  0.1646661E-005  0.1258346E+03  0.7546771E-02  0.1248725E+00
          1   -1    0    0  501    0  0.00000000000E+00  0.00000000000E+00  0.23325857442E+03  0.23325857442E+03  0.00000000000E+00 0. -1.
         -1   -1    0    0    0  501 -0.00000000000E+00 -0.00000000000E+00 -0.51359293689E+02  0.51359293689E+02  0.00000000000E+00 0.  1.
         23    2    1    2    0    0  0.11988885945E+02  0.79705568950E+01  0.10964612325E+03  0.16690302583E+03  0.12500833782E+03 0.  0.
         23    2    1    2    0    0 -0.11988885945E+02 -0.79705568950E+01  0.72253157482E+02  0.11771484228E+03  0.91809597335E+02 0.  0.
          5    1    3    3  502    0  0.49261784228E+02  0.12605679165E+02  0.16848249461E+00  0.51066083841E+02  0.47000000000E+01 0. -1.
         -5    1    3    3    0  502 -0.37272898283E+02 -0.46351222702E+01  0.10947764076E+03  0.11583694199E+03  0.47000000000E+01 0. -1.
        -11    1    4    4    0    0 -0.28791867403E+02 -0.16788766104E+02 -0.87988411001E+01  0.34471058883E+02  0.00000000000E+00 0.  1.
         11    1    4    4    0    0  0.16802981457E+02  0.88182092090E+01  0.81051998582E+02  0.83243783394E+02  0.00000000000E+00 0. -1.
<mgrwt>
<rscale>  0 0.11665163E+03</rscale>
<asrwt>0</asrwt>
<pdfrwt beam="1">  1        1 0.35885934E-01 0.12583460E+03</pdfrwt>
<pdfrwt beam="2">  1       -1 0.79014299E-02 0.12583460E+03</pdfrwt>
<totfact> 0.99280218E+03</totfact>
</mgrwt>
</event>
<event>
 8    1  0.1646661E-005  0.1892843E+03  0.7546771E-02  0.1163857E+00
          1   -1    0    0  501    0  0.00000000000E+00  0.00000000000E+00  0.77743372539E+03  0.77743372539E+03  0.00000000000E+00 0. -1.
         -1   -1    0    0    0  501 -0.00000000000E+00 -0.00000000000E+00 -0.51614007613E+02  0.51614007613E+02  0.00000000000E+00 0.  1.
         23    2    1    2    0    0  0.75988976857E+02  0.12012059527E+03  0.19476667632E+03  0.27159268339E+03  0.12500098180E+03 0.  0.
         23    2    1    2    0    0 -0.75988976857E+02 -0.12012059527E+03  0.53105304145E+03  0.55745504961E+03  0.92387864405E+02 0.  0.
          5    1    3    3  502    0  0.67751161785E+02  0.11400608307E+03  0.77277268477E+02  0.15356260327E+03  0.47000000000E+01 0. -1.
         -5    1    3    3    0  502  0.82378150722E+01  0.61145122046E+01  0.11748940784E+03  0.11803008011E+03  0.47000000000E+01 0. -1.
        -11    1    4    4    0    0  0.45305907333E+01 -0.66678018092E+02  0.29316511655E+03  0.30068633143E+03  0.00000000000E+00 0.  1.
         11    1    4    4    0    0 -0.80519567590E+02 -0.53442577182E+02  0.23788792490E+03  0.25676871818E+03  0.00000000000E+00 0. -1.
<mgrwt>
<rscale>  0 0.18413843E+03</rscale>
<asrwt>0</asrwt>
<pdfrwt beam="1">  1        1 0.11960518E+00 0.18928425E+03</pdfrwt>
<pdfrwt beam="2">  1       -1 0.79406171E-02 0.18928425E+03</pdfrwt>
<totfact> 0.20840922E+03</totfact>
</mgrwt>
</event>
<event>
 8    1  0.1646661E-005  0.1987001E+03  0.7546771E-02  0.1155127E+00
          2   -1    0    0  501    0  0.00000000000E+00  0.00000000000E+00  0.16118865261E+03  0.16118865261E+03  0.00000000000E+00 0. -1.
         -2   -1    0    0    0  501 -0.00000000000E+00 -0.00000000000E+00 -0.28489140613E+03  0.28489140613E+03  0.00000000000E+00 0.  1.
         23    2    1    2    0    0  0.15424357203E+03  0.81298869820E+01 -0.16899923886E+03  0.26084953987E+03  0.12499826054E+03 0.  0.
         23    2    1    2    0    0 -0.15424357203E+03 -0.81298869820E+01  0.45296485346E+02  0.18523051887E+03  0.91659145534E+02 0.  0.
          5    1    3    3  502    0 -0.91402299944E+01  0.30640848910E+02 -0.17019003478E+02  0.36525907322E+02  0.47000000000E+01 0. -1.
         -5    1    3    3    0  502  0.16338380203E+03 -0.22510961928E+02 -0.15198023538E+03  0.22432363255E+03  0.47000000000E+01 0. -1.
        -11    1    4    4    0    0 -0.94834799707E+02 -0.44688865962E+02  0.56369539070E+01  0.10498813850E+03  0.00000000000E+00 0.  1.
         11    1    4    4    0    0 -0.59408772327E+02  0.36558978980E+02  0.39659531439E+02  0.80242380370E+02  0.00000000000E+00 0. -1.
<mgrwt>
<rscale>  0 0.19374444E+03</rscale>
<asrwt>0</asrwt>
<pdfrwt beam="1">  1        2 0.24798255E-01 0.19870013E+03</pdfrwt>
<pdfrwt beam="2">  1       -2 0.43829446E-01 0.19870013E+03</pdfrwt>
<totfact> 0.10759960E+03</totfact>
</mgrwt>
</event>
<event>
 8    1  0.1646661E-005  0.1600357E+03  0.7546771E-02  0.1196149E+00
          1   -1    0    0  501    0  0.00000000000E+00  0.00000000000E+00  0.50640214704E+03  0.50640214704E+03  0.00000000000E+00 0. -1.
         -1   -1    0    0    0  501 -0.00000000000E+00 -0.00000000000E+00 -0.43393554277E+02  0.43393554277E+02  0.00000000000E+00 0.  1.
         23    2    1    2    0    0 -0.50274005152E+02  0.86390025575E+02  0.23124897318E+03  0.28122501434E+03  0.12498283474E+03 0.  0.
         23    2    1    2    0    0  0.50274005152E+02 -0.86390025575E+02  0.23175961958E+03  0.26857068698E+03  0.91798586709E+02 0.  0.
          5    1    3    3  502    0 -0.13109351951E+02  0.11099370827E+03  0.13704768131E+03  0.17690566791E+03  0.47000000000E+01 0. -1.
         -5    1    3    3    0  502 -0.37164653201E+02 -0.24603682700E+02  0.94201291869E+02  0.10431934643E+03  0.47000000000E+01 0. -1.
        -11    1    4    4    0    0  0.75825313832E+02 -0.51394849322E+02  0.17029177114E+03  0.19336544694E+03  0.00000000000E+00 0.  1.
         11    1    4    4    0    0 -0.25551308679E+02 -0.34995176253E+02  0.61467848447E+02  0.75205240036E+02  0.00000000000E+00 0. -1.
<mgrwt>
<rscale>  0 0.15357376E+03</rscale>
<asrwt>0</asrwt>
<pdfrwt beam="1">  1        1 0.77908018E-01 0.16003569E+03</pdfrwt>
<pdfrwt beam="2">  1       -1 0.66759318E-02 0.16003569E+03</pdfrwt>
<totfact> 0.49054904E+03</totfact>
</mgrwt>
</event>
<event>
 7    1  0.1646661E-005  0.3254412E+03  0.7546771E-02  0.1109667E+00
          1   -1    0    0  501    0  0.00000000000E+00  0.00000000000E+00  0.26909144202E+03  0.26909144202E+03  0.00000000000E+00 0. -1.
         -1   -1    0    0    0  501 -0.00000000000E+00 -0.00000000000E+00 -0.18798285465E+03  0.18798285465E+03  0.00000000000E+00 0.  1.
         23    2    1    2    0    0  0.50018552633E+02  0.73011070902E+02  0.18625014004E+02  0.12568902116E+03  0.87283256187E+02 0.  0.
          5    1    1    2  502    0  0.28599933021E+02 -0.17149724318E+03  0.98959557483E+02  0.20011083081E+03  0.47000000000E+01 0. -1.
         -5    1    1    2    0  502 -0.78618485654E+02  0.98486172282E+02 -0.36475984111E+02  0.13127444471E+03  0.47000000000E+01 0.  1.
        -11    1    3    3    0    0 -0.21929837239E+02  0.25233737637E+02  0.20656487650E+02  0.39298215717E+02  0.00000000000E+00 0.  1.
         11    1    3    3    0    0  0.71948389873E+02  0.47777333265E+02 -0.20314736462E+01  0.86390805439E+02  0.00000000000E+00 0. -1.
<mgrwt>
<rscale>  0 0.25584295E+03</rscale>
<asrwt>0</asrwt>
<pdfrwt beam="1">  1        1 0.41398683E-01 0.32544124E+03</pdfrwt>
<pdfrwt beam="2">  1       -1 0.28920439E-01 0.32544124E+03</pdfrwt>
<totfact> 0.10969885E+03</totfact>
</mgrwt>
</event>
<event>
 8    1  0.1646661E-005  0.1360092E+03  0.7546771E-02  0.1229835E+00
          1   -1    0    0  501    0  0.00000000000E+00  0.00000000000E+00  0.17543059177E+03  0.17543059177E+03  0.00000000000E+00 0. -1.
         -1   -1    0    0    0  501 -0.00000000000E+00 -0.00000000000E+00 -0.89487634790E+02  0.89487634790E+02  0.00000000000E+00 0.  1.
         23    2    1    2    0    0 -0.22584198002E+02  0.48613094760E+02  0.17813176154E+02  0.13717074040E+03  0.12500089518E+03 0.  0.
         23    2    1    2    0    0  0.22584198002E+02 -0.48613094760E+02  0.68129780828E+02  0.12774748616E+03  0.93832159748E+02 0.  0.
          5    1    3    3  502    0 -0.17439734752E+02  0.23091245473E+02  0.71523369293E+02  0.77298333234E+02  0.47000000000E+01 0. -1.
         -5    1    3    3    0  502 -0.51444632494E+01  0.25521849287E+02 -0.53710193138E+02  0.59872407168E+02  0.47000000000E+01 0. -1.
        -11    1    4    4    0    0  0.44604613265E+02  0.61543588392E+01  0.46903848276E+02  0.65018602264E+02  0.00000000000E+00 0. -1.
         11    1    4    4    0    0 -0.22020415263E+02 -0.54767453600E+02  0.21225932552E+02  0.62728883896E+02  0.00000000000E+00 0.  1.
<mgrwt>
<rscale>  0 0.12840920E+03</rscale>
<asrwt>0</asrwt>
<pdfrwt beam="1">  1        1 0.26989322E-01 0.13600920E+03</pdfrwt>
<pdfrwt beam="2">  1       -1 0.13767328E-01 0.13600920E+03</pdfrwt>
<totfact> 0.60833879E+03</totfact>
</mgrwt>
</event>
<event>
 7    1  0.1646661E-005  0.2299944E+03  0.7546771E-02  0.1166162E+00
          2   -1    0    0  501    0  0.00000000000E+00  0.00000000000E+00  0.33910495840E+03  0.33910495840E+03  0.00000000000E+00 0. -1.
         -2   -1    0    0    0  501 -0.00000000000E+00 -0.00000000000E+00 -0.79426948808E+02  0.79426948808E+02  0.00000000000E+00 0.  1.
         23    2    1    2    0    0 -0.24677862757E+01  0.15472860150E+02  0.11886337268E+03  0.14885398353E+03  0.88224189875E+02 0.  0.
          5    1    1    2  502    0 -0.32390834014E+02 -0.43904154405E+02  0.19300136285E+03  0.20061993162E+03  0.47000000000E+01 0. -1.
         -5    1    1    2    0  502  0.34858620289E+02  0.28431294255E+02 -0.52186725940E+02  0.69057992049E+02  0.47000000000E+01 0.  1.
        -11    1    3    3    0    0  0.97409505072E+01 -0.35677042893E+02  0.47036680753E+02  0.59834662552E+02  0.00000000000E+00 0. -1.
         11    1    3    3    0    0 -0.12208736783E+02  0.51149903044E+02  0.71826691924E+02  0.89019320981E+02  0.00000000000E+00 0.  1.
<mgrwt>
<rscale>  0 0.18170658E+03</rscale>
<asrwt>0</asrwt>
<pdfrwt beam="1">  1        2 0.52169993E-01 0.22999439E+03</pdfrwt>
<pdfrwt beam="2">  1       -2 0.12219531E-01 0.22999439E+03</pdfrwt>
<totfact> 0.45325224E+03</totfact>
</mgrwt>
</event>
<event>
 8    1  0.1646661E-005  0.2179441E+03  0.7546771E-02  0.1139165E+00
         -1   -1    0    0    0  501 -0.00000000000E+00  0.00000000000E+00  0.44134874059E+02  0.44134874059E+02  0.00000000000E+00 0.  1.
          1   -1    0    0  501    0  0.00000000000E+00 -0.00000000000E+00 -0.10714629944E+04  0.10714629944E+04  0.00000000000E+00 0. -1.
         23    2    1    2    0    0  0.15094669864E+03 -0.95336416421E+02 -0.37673743101E+03  0.43523639139E+03  0.12500274534E+03 0.  0.
         23    2    1    2    0    0 -0.15094669864E+03  0.95336416421E+02 -0.65059068938E+03  0.68036147711E+03  0.88031564262E+02 0.  0.
          5    1    3    3  502    0  0.11912082698E+02 -0.35284564283E+02 -0.10630618270E+02  0.39012795794E+02  0.47000000000E+01 0. -1.
         -5    1    3    3    0  502  0.13903461594E+03 -0.60051852138E+02 -0.36610681274E+03  0.39622359560E+03  0.47000000000E+01 0. -1.
        -11    1    4    4    0    0 -0.82850674020E+02  0.71123568230E+01 -0.20926524437E+03  0.22518162071E+03  0.00000000000E+00 0.  1.
         11    1    4    4    0    0 -0.68096024620E+02  0.88224059598E+02 -0.44132544501E+03  0.45517985640E+03  0.00000000000E+00 0. -1.
<mgrwt>
<rscale>  0 0.21306049E+03</rscale>
<asrwt>0</asrwt>
<pdfrwt beam="2">  1        1 0.16484044E+00 0.21794409E+03</pdfrwt>
<pdfrwt beam="1">  1       -1 0.67899813E-02 0.21794409E+03</pdfrwt>
<totfact> 0.15666328E+03</totfact>
</mgrwt>
</event>
<event>
 7    1  0.1646661E-005  0.1492680E+03  0.7546771E-02  0.1219755E+00
         -2   -1    0    0    0  501 -0.00000000000E+00  0.00000000000E+00  0.13694166058E+03  0.13694166058E+03  0.00000000000E+00 0.  1.
          2   -1    0    0  501    0  0.00000000000E+00 -0.00000000000E+00 -0.11550218539E+03  0.11550218539E+03  0.00000000000E+00 0. -1.
         23    2    1    2    0    0  0.49826818287E+02 -0.18887766967E+02  0.21782846919E+02  0.10317544504E+03  0.85622546555E+02 0.  0.
          5    1    1    2  502    0  0.18995443370E+02  0.63604202536E+02 -0.63062054967E+01  0.66844443874E+02  0.47000000000E+01 0. -1.
         -5    1    1    2    0  502 -0.68822261657E+02 -0.44716435568E+02  0.59628337593E+01  0.82423957051E+02  0.47000000000E+01 0.  1.
        -11    1    3    3    0    0  0.44539570216E+02  0.18619415548E+02 -0.14823447527E+02  0.50499411353E+02  0.00000000000E+00 0. -1.
         11    1    3    3    0    0  0.52872480710E+01 -0.37507182515E+02  0.36606294446E+02  0.52676033692E+02  0.00000000000E+00 0.  1.
<mgrwt>
<rscale>  0 0.13532991E+03</rscale>
<asrwt>0</asrwt>
<pdfrwt beam="2">  1        2 0.17769567E-01 0.14926801E+03</pdfrwt>
<pdfrwt beam="1">  1       -2 0.21067948E-01 0.14926801E+03</pdfrwt>
<totfact> 0.58565505E+03</totfact>
</mgrwt>
</event>
<event>
 8    1  0.1646661E-005  0.1607538E+03  0.7546771E-02  0.1195344E+00
          2   -1    0    0  501    0  0.00000000000E+00  0.00000000000E+00  0.18502838680E+03  0.18502838680E+03  0.00000000000E+00 0. -1.
         -2   -1    0    0    0  501 -0.00000000000E+00 -0.00000000000E+00 -0.15026706397E+03  0.15026706397E+03  0.00000000000E+00 0.  1.
         23    2    1    2    0    0  0.34647153302E+02  0.94976365627E+02 -0.57493870058E+02  0.17072588657E+03  0.12498339087E+03 0.  0.
         23    2    1    2    0    0 -0.34647153302E+02 -0.94976365627E+02  0.92255192892E+02  0.16456956419E+03  0.91384821408E+02 0.  0.
          5    1    3    3  502    0  0.62891636868E+02  0.41854211905E+02  0.14202581228E+02  0.77012572712E+02  0.47000000000E+01 0.  1.
         -5    1    3    3    0  502 -0.28244483566E+02  0.53122153722E+02 -0.71696451286E+02  0.93713313861E+02  0.47000000000E+01 0.  1.
        -11    1    4    4    0    0 -0.49363241921E+02 -0.46716004994E+02  0.10890362823E+02  0.68831059690E+02  0.00000000000E+00 0. -1.
         11    1    4    4    0    0  0.14716088618E+02 -0.48260360633E+02  0.81364830069E+02  0.95738504505E+02  0.00000000000E+00 0.  1.
<mgrwt>
<rscale>  0 0.15425122E+03</rscale>
<asrwt>0</asrwt>
<pdfrwt beam="1">  1        2 0.28465906E-01 0.16075380E+03</pdfrwt>
<pdfrwt beam="2">  1       -2 0.23118010E-01 0.16075380E+03</pdfrwt>
<totfact> 0.29564624E+03</totfact>
</mgrwt>
</event>
<event>
 8    1  0.1646661E-005  0.1572454E+03  0.7546771E-02  0.1199882E+00
          1   -1    0    0  501    0  0.00000000000E+00  0.00000000000E+00  0.68068249713E+02  0.68068249713E+02  0.00000000000E+00 0. -1.
         -1   -1    0    0    0  501 -0.00000000000E+00 -0.00000000000E+00 -0.31113225913E+03  0.31113225913E+03  0.00000000000E+00 0.  1.
         23    2    1    2    0    0 -0.73096429614E+02  0.61307660588E+02 -0.11037423221E+03  0.19211610711E+03  0.12499764080E+03 0.  0.
         23    2    1    2    0    0  0.73096429614E+02 -0.61307660588E+02 -0.13268977720E+03  0.18708440173E+03  0.91061952137E+02 0.  0.
          5    1    3    3  502    0 -0.16758593763E+02 -0.68786322949E+00 -0.10672288408E+03  0.10813504338E+03  0.47000000000E+01 0.  1.
         -5    1    3    3    0  502 -0.56337835851E+02  0.61995523817E+02 -0.36513481300E+01  0.83981063729E+02  0.47000000000E+01 0.  1.
        -11    1    4    4    0    0  0.62439665766E+01 -0.57870896012E+02 -0.91629470171E+02  0.10855407651E+03  0.00000000000E+00 0.  1.
         11    1    4    4    0    0  0.66852463037E+02 -0.34367645758E+01 -0.41060307032E+02  0.78530325216E+02  0.00000000000E+00 0. -1.
<mgrwt>
<rscale>  0 0.15048162E+03</rscale>
<asrwt>0</asrwt>
<pdfrwt beam="1">  1        1 0.10472039E-01 0.15724544E+03</pdfrwt>
<pdfrwt beam="2">  1       -1 0.47866500E-01 0.15724544E+03</pdfrwt>
<totfact> 0.26153484E+03</totfact>
</mgrwt>
</event>
<event>
 6    1  0.1646661E-005  0.1327043E+03  0.7546771E-02  0.1287395E+00
         -1   -1    0    0    0  501 -0.00000000000E+00  0.00000000000E+00  0.18474329347E+03  0.18474329347E+03  0.00000000000E+00 0.  1.
          1   -1    0    0  501    0  0.00000000000E+00 -0.00000000000E+00 -0.46248659115E+02  0.46248659115E+02  0.00000000000E+00 0. -1.
          5    1    1    2  502    0 -0.52519646757E+02  0.29062300474E+02  0.16551848526E+02  0.62441847298E+02  0.47000000000E+01 0. -1.
         -5    1    1    2    0  502  0.41121063152E+02 -0.43402217559E+01  0.12428118542E+03  0.13106365785E+03  0.47000000000E+01 0.  1.
        -11    1    1    2    0    0  0.16454723560E+02 -0.58708774096E+01  0.17077797409E+01  0.17553963673E+02  0.00000000000E+00 0. -1.
         11    1    1    2    0    0 -0.50561399547E+01 -0.18851201308E+02 -0.40461793289E+01  0.19932483768E+02  0.00000000000E+00 0.  1.
<mgrwt>
<rscale>  0 0.96698718E+02</rscale>
<asrwt>0</asrwt>
<pdfrwt beam="2">  1        1 0.71151785E-02 0.13270432E+03</pdfrwt>
<pdfrwt beam="1">  1       -1 0.28422045E-01 0.13270432E+03</pdfrwt>
<totfact> 0.10719465E+04</totfact>
</mgrwt>
</event>
<event>
 8    1  0.1646661E-005  0.1820265E+03  0.7546771E-02  0.1170992E+00
          3   -1    0    0  501    0  0.00000000000E+00  0.00000000000E+00  0.47504065309E+03  0.47504065309E+03  0.00000000000E+00 0. -1.
         -3   -1    0    0    0  501 -0.00000000000E+00 -0.00000000000E+00 -0.69978462316E+02  0.69978462316E+02  0.00000000000E+00 0.  1.
         23    2    1    2    0    0 -0.52363941866E+02  0.12151472827E+03  0.12248652566E+03  0.21940050623E+03  0.12500328624E+03 0.  0.
         23    2    1    2    0    0  0.52363941866E+02 -0.12151472827E+03  0.28257566511E+03  0.32561860918E+03  0.93116381658E+02 0.  0.
          5    1    3    3  502    0 -0.35948972882E+02  0.45351160267E+02 -0.16181246928E+02  0.60274199630E+02  0.47000000000E+01 0.  1.
         -5    1    3    3    0  502 -0.16414968984E+02  0.76163568003E+02  0.13866777259E+03  0.15912630660E+03  0.47000000000E+01 0.  1.
        -11    1    4    4    0    0  0.22597715154E+02 -0.12911252700E+03  0.22830786693E+03  0.26325877661E+03  0.00000000000E+00 0. -1.
         11    1    4    4    0    0  0.29766226712E+02  0.75977987316E+01  0.54267798181E+02  0.62359832566E+02  0.00000000000E+00 0.  1.
<mgrwt>
<rscale>  0 0.17674370E+03</rscale>
<asrwt>0</asrwt>
<pdfrwt beam="1">  1        3 0.73083175E-01 0.18202646E+03</pdfrwt>
<pdfrwt beam="2">  1       -3 0.10765918E-01 0.18202646E+03</pdfrwt>
<totfact> 0.28620203E+02</totfact>
</mgrwt>
</event>
<event>
 8    1  0.1646661E-005  0.2812994E+03  0.7546771E-02  0.1096863E+00
         -2   -1    0    0    0  501 -0.00000000000E+00  0.00000000000E+00  0.22730355855E+03  0.22730355855E+03  0.00000000000E+00 0.  1.
          2   -1    0    0  501    0  0.00000000000E+00 -0.00000000000E+00 -0.33161104770E+03  0.33161104770E+03  0.00000000000E+00 0. -1.
         23    2    1    2    0    0 -0.17682584492E+03  0.17956439067E+03 -0.52985008473E+02  0.28624596566E+03  0.12497436500E+03 0.  0.
         23    2    1    2    0    0  0.17682584492E+03 -0.17956439067E+03 -0.51322480678E+02  0.27266864059E+03  0.90572847538E+02 0.  0.
          5    1    3    3  502    0 -0.87140584453E+02  0.15493736492E+02 -0.44089646670E+02  0.98992546552E+02  0.47000000000E+01 0.  1.
         -5    1    3    3    0  502 -0.89685260462E+02  0.16407065418E+03 -0.88953618031E+01  0.18725341911E+03  0.47000000000E+01 0.  1.
        -11    1    4    4    0    0  0.14034800354E+03 -0.12187344119E+03 -0.74976837186E+02  0.20043009724E+03  0.00000000000E+00 0.  1.
         11    1    4    4    0    0  0.36477841373E+02 -0.57690949483E+02  0.23654356508E+02  0.72238543349E+02  0.00000000000E+00 0. -1.
<mgrwt>
<rscale>  0 0.27786076E+03</rscale>
<asrwt>0</asrwt>
<pdfrwt beam="2">  1        2 0.51017084E-01 0.28129938E+03</pdfrwt>
<pdfrwt beam="1">  1       -2 0.34969778E-01 0.28129938E+03</pdfrwt>
<totfact> 0.75641588E+02</totfact>
</mgrwt>
</event>
<event>
 8    1  0.1646661E-005  0.1613047E+03  0.7546771E-02  0.1194647E+00
          3   -1    0    0  501    0  0.00000000000E+00  0.00000000000E+00  0.12668328935E+03  0.12668328935E+03  0.00000000000E+00 0. -1.
         -3   -1    0    0    0  501 -0.00000000000E+00 -0.00000000000E+00 -0.18214338937E+03  0.18214338937E+03  0.00000000000E+00 0.  1.
         23    2    1    2    0    0  0.90743300522E+02  0.46481734131E+02 -0.59160595579E+02  0.17181145603E+03  0.12499720859E+03 0.  0.
         23    2    1    2    0    0 -0.90743300522E+02 -0.46481734131E+02  0.37004955546E+01  0.13701522269E+03  0.91458074460E+02 0.  0.
          5    1    3    3  502    0  0.90311834668E+02  0.15563673570E+01 -0.81200053736E+02  0.12154911965E+03  0.47000000000E+01 0.  1.
         -5    1    3    3    0  502  0.43146585408E+00  0.44925366774E+02  0.22039458157E+02  0.50262336381E+02  0.47000000000E+01 0.  1.
        -11    1    4    4    0    0 -0.10889328979E+03 -0.35487249482E+02  0.97648330651E+01  0.11494540183E+03  0.00000000000E+00 0. -1.
         11    1    4    4    0    0  0.18149989270E+02 -0.10994484650E+02 -0.60643375105E+01  0.22069820857E+02  0.00000000000E+00 0.  1.
<mgrwt>
<rscale>  0 0.15484166E+03</rscale>
<asrwt>0</asrwt>
<pdfrwt beam="1">  1        3 0.19489737E-01 0.16130468E+03</pdfrwt>
<pdfrwt beam="2">  1       -3 0.28022060E-01 0.16130468E+03</pdfrwt>
<totfact> 0.67913424E+02</totfact>
</mgrwt>
</event>
<event>
 8    1  0.1646661E-005  0.1494853E+03  0.7546771E-02  0.1210011E+00
          1   -1    0    0  501    0  0.00000000000E+00  0.00000000000E+00  0.12015757274E+03  0.12015757274E+03  0.00000000000E+00 0. -1.
         -1   -1    0    0    0  501 -0.00000000000E+00 -0.00000000000E+00 -0.15581685272E+03  0.15581685272E+03  0.00000000000E+00 0.  1.
         23    2    1    2    0    0  0.21062110250E+02  0.79226868078E+02 -0.93495482973E+01  0.14977743812E+03  0.12500143121E+03 0.  0.
         23    2    1    2    0    0 -0.21062110250E+02 -0.79226868078E+02 -0.26309731688E+02  0.12619698734E+03  0.92265749435E+02 0.  0.
          5    1    3    3  502    0  0.68332274871E+02  0.15911238317E+02 -0.53971952029E+01  0.70524371744E+02  0.47000000000E+01 0. -1.
         -5    1    3    3    0  502 -0.47270164621E+02  0.63315629761E+02 -0.39523530944E+01  0.79253066378E+02  0.47000000000E+01 0. -1.
        -11    1    4    4    0    0  0.25645195407E+02 -0.59132200143E+02 -0.36885993800E+02  0.74262168564E+02  0.00000000000E+00 0.  1.
         11    1    4    4    0    0 -0.46707305657E+02 -0.20094667935E+02  0.10576262112E+02  0.51934818777E+02  0.00000000000E+00 0. -1.
<mgrwt>
<rscale>  0 0.14249474E+03</rscale>
<asrwt>0</asrwt>
<pdfrwt beam="1">  1        1 0.18485780E-01 0.14948534E+03</pdfrwt>
<pdfrwt beam="2">  1       -1 0.23971823E-01 0.14948534E+03</pdfrwt>
<totfact> 0.40770071E+03</totfact>
</mgrwt>
</event>
<event>
 8    1  0.1646661E-005  0.1742419E+03  0.7546771E-02  0.1179637E+00
         -1   -1    0    0    0  501 -0.00000000000E+00  0.00000000000E+00  0.13209919860E+03  0.13209919860E+03  0.00000000000E+00 0.  1.
          1   -1    0    0  501    0  0.00000000000E+00 -0.00000000000E+00 -0.22817044330E+03  0.22817044330E+03  0.00000000000E+00 0. -1.
         23    2    1    2    0    0  0.11682518503E+03 -0.32982638098E+02  0.11068675606E+02  0.17459307709E+03  0.12499699482E+03 0.  0.
         23    2    1    2    0    0 -0.11682518503E+03  0.32982638098E+02 -0.10713992031E+03  0.18567656482E+03  0.90889195868E+02 0.  0.
          5    1    3    3  502    0  0.61984280272E+02  0.34491684834E+02 -0.31394974217E+02  0.77713973838E+02  0.47000000000E+01 0. -1.
         -5    1    3    3    0  502  0.54840904756E+02 -0.67474322933E+02  0.42463649823E+02  0.96879103247E+02  0.47000000000E+01 0. -1.
        -11    1    4    4    0    0 -0.59601002776E+02 -0.21325962006E+02 -0.16311396283E+02  0.65369242279E+02  0.00000000000E+00 0.  1.
         11    1    4    4    0    0 -0.57224182253E+02  0.54308600104E+02 -0.90828524023E+02  0.12030732254E+03  0.00000000000E+00 0. -1.
<mgrwt>
<rscale>  0 0.16829564E+03</rscale>
<asrwt>0</asrwt>
<pdfrwt beam="2">  1        1 0.35103145E-01 0.17424186E+03</pdfrwt>
<pdfrwt beam="1">  1       -1 0.20322954E-01 0.17424186E+03</pdfrwt>
<totfact> 0.23925515E+03</totfact>
</mgrwt>
</event>
<event>
 8    1  0.1646661E-005  0.1339759E+03  0.7546771E-02  0.1234569E+00
          4   -1    0    0  501    0  0.00000000000E+00  0.00000000000E+00  0.56035347923E+02  0.56035347923E+02  0.00000000000E+00 0. -1.
         -4   -1    0    0    0  501 -0.00000000000E+00 -0.00000000000E+00 -0.26282089083E+03  0.26282089083E+03  0.00000000000E+00 0.  1.
         23    2    1    2    0    0 -0.48182106778E+02 -0.18711603366E+01 -0.15184633326E+03  0.20250147585E+03  0.12499808855E+03 0.  0.
         23    2    1    2    0    0  0.48182106778E+02  0.18711603366E+01 -0.54939209652E+02  0.11635476291E+03  0.90526777473E+02 0.  0.
          5    1    3    3  502    0  0.31732217889E+02  0.25581075685E+02 -0.19541312369E+02  0.45445329512E+02  0.47000000000E+01 0.  1.
         -5    1    3    3    0  502 -0.79914324667E+02 -0.27452236022E+02 -0.13230502089E+03  0.15705614633E+03  0.47000000000E+01 0.  1.
        -11    1    4    4    0    0  0.59254275025E+02 -0.30656902768E+02 -0.45389599618E+02  0.80691576695E+02  0.00000000000E+00 0. -1.
         11    1    4    4    0    0 -0.11072168247E+02  0.32528063105E+02 -0.95496100337E+01  0.35663186213E+02  0.00000000000E+00 0.  1.
<mgrwt>
<rscale>  0 0.12532062E+03</rscale>
<asrwt>0</asrwt>
<pdfrwt beam="1">  1        4 0.86208229E-02 0.13397589E+03</pdfrwt>
<pdfrwt beam="2">  1       -4 0.40433983E-01 0.13397589E+03</pdfrwt>
<totfact> 0.95597216E+02</totfact>
</mgrwt>
</event>
<event>
 8    1  0.1646661E-005  0.1437915E+03  0.7546771E-02  0.1218696E+00
          2   -1    0    0  501    0  0.00000000000E+00  0.00000000000E+00  0.18504143935E+02  0.18504143935E+02  0.00000000000E+00 0.  1.
         -2   -1    0    0    0  501 -0.00000000000E+00 -0.00000000000E+00 -0.10646417457E+04  0.10646417457E+04  0.00000000000E+00 0. -1.
         23    2    1    2    0    0 -0.44671780284E+02  0.55278916586E+02 -0.77908221763E+03  0.79224054824E+03  0.12499863150E+03 0.  0.
         23    2    1    2    0    0  0.44671780284E+02 -0.55278916586E+02 -0.26705538416E+03  0.29090534142E+03  0.90862604436E+02 0.  0.
          5    1    3    3  502    0 -0.53165043400E+02  0.90998773316E+02 -0.61978399950E+03  0.62869833356E+03  0.47000000000E+01 0. -1.
         -5    1    3    3    0  502  0.84932631151E+01 -0.35719856730E+02 -0.15929821813E+03  0.16354221468E+03  0.47000000000E+01 0. -1.
        -11    1    4    4    0    0  0.14686303615E+02 -0.64126289629E+02 -0.92122805778E+02  0.11320105953E+03  0.00000000000E+00 0.  1.
         11    1    4    4    0    0  0.29985476669E+02  0.88473730427E+01 -0.17493257838E+03  0.17770428188E+03  0.00000000000E+00 0. -1.
<mgrwt>
<rscale>  0 0.13608530E+03</rscale>
<asrwt>0</asrwt>
<pdfrwt beam="1">  1        2 0.28467906E-02 0.14379146E+03</pdfrwt>
<pdfrwt beam="2">  1       -2 0.16379108E+00 0.14379146E+03</pdfrwt>
<totfact> 0.82433864E+02</totfact>
</mgrwt>
</event>
<event>
 8    1  0.1646661E-005  0.2054389E+03  0.7546771E-02  0.1149281E+00
         -1   -1    0    0    0  501 -0.00000000000E+00  0.00000000000E+00  0.28225274579E+03  0.28225274579E+03  0.00000000000E+00 0.  1.
          1   -1    0    0  501    0  0.00000000000E+00 -0.00000000000E+00 -0.13813396427E+03  0.13813396427E+03  0.00000000000E+00 0. -1.
         23    2    1    2    0    0 -0.15513773892E+03 -0.50144341283E+02  0.10098535989E+03  0.22891740310E+03  0.12499184585E+03 0.  0.
         23    2    1    2    0    0  0.15513773892E+03  0.50144341283E+02  0.43133421634E+02  0.19146930696E+03  0.90652250085E+02 0.  0.
          5    1    3    3  502    0 -0.11360606822E+03 -0.88703054581E+01  0.12155256924E+03  0.16667974726E+03  0.47000000000E+01 0. -1.
         -5    1    3    3    0  502 -0.41531670702E+02 -0.41274035825E+02 -0.20567209350E+02  0.62237655844E+02  0.47000000000E+01 0. -1.
        -11    1    4    4    0    0  0.20115611634E+02  0.57232678684E+01  0.44665691700E+02  0.49319546242E+02  0.00000000000E+00 0.  1.
         11    1    4    4    0    0  0.13502212729E+03  0.44421073414E+02 -0.15322700653E+01  0.14214976072E+03  0.00000000000E+00 0. -1.
<mgrwt>
<rscale>  0 0.20054387E+03</rscale>
<asrwt>0</asrwt>
<pdfrwt beam="2">  1        1 0.21251379E-01 0.20543888E+03</pdfrwt>
<pdfrwt beam="1">  1       -1 0.43423499E-01 0.20543888E+03</pdfrwt>
<totfact> 0.12492944E+03</totfact>
</mgrwt>
</event>
<event>
 8    1  0.1646661E-005  0.1255400E+03  0.7546771E-02  0.1254474E+00
          2   -1    0    0  501    0  0.00000000000E+00  0.00000000000E+00  0.99046459506E+02  0.99046459506E+02  0.00000000000E+00 0. -1.
         -2   -1    0    0    0  501 -0.00000000000E+00 -0.00000000000E+00 -0.11110249985E+03  0.11110249985E+03  0.00000000000E+00 0.  1.
         23    2    1    2    0    0  0.95506821196E+01  0.65727727708E+01  0.17715834857E+01  0.12555249605E+03  0.12500349550E+03 0.  0.
         23    2    1    2    0    0 -0.95506821196E+01 -0.65727727708E+01 -0.13827623829E+02  0.84596463302E+02  0.82649510292E+02 0.  0.
          5    1    3    3  502    0 -0.56636146838E+02  0.13926117226E+02  0.49191512791E+01  0.58718633490E+02  0.47000000000E+01 0.  1.
         -5    1    3    3    0  502  0.66186828957E+02 -0.73533444554E+01 -0.31475677933E+01  0.66833862563E+02  0.47000000000E+01 0.  1.
        -11    1    4    4    0    0 -0.44906560077E+02  0.20506648330E+01  0.18028055220E+01  0.44989492906E+02  0.00000000000E+00 0. -1.
         11    1    4    4    0    0  0.35355877957E+02 -0.86234376038E+01 -0.15630429351E+02  0.39606970396E+02  0.00000000000E+00 0.  1.
<mgrwt>
<rscale>  0 0.11335861E+03</rscale>
<asrwt>0</asrwt>
<pdfrwt beam="1">  1        2 0.15237917E-01 0.12554000E+03</pdfrwt>
<pdfrwt beam="2">  1       -2 0.17092692E-01 0.12554000E+03</pdfrwt>
<totfact> 0.98164407E+03</totfact>
</mgrwt>
</event>
<event>
 8    1  0.1646661E-005  0.1295076E+03  0.7546771E-02  0.1242060E+00
          1   -1    0    0  501    0  0.00000000000E+00  0.00000000000E+00  0.33717355103E+02  0.33717355103E+02  0.00000000000E+00 0. -1.
         -1   -1    0    0    0  501 -0.00000000000E+00 -0.00000000000E+00 -0.38205487834E+03  0.38205487834E+03  0.00000000000E+00 0.  1.
         23    2    1    2    0    0 -0.11847150126E+02  0.31739304313E+02 -0.19773683972E+03  0.23637273966E+03  0.12499790344E+03 0.  0.
         23    2    1    2    0    0  0.11847150126E+02 -0.31739304313E+02 -0.15060068351E+03  0.17939949378E+03  0.91410470356E+02 0.  0.
          5    1    3    3  502    0 -0.42063482111E+02  0.65211157784E+02 -0.86778586458E+02  0.11650941891E+03  0.47000000000E+01 0. -1.
         -5    1    3    3    0  502  0.30216331984E+02 -0.33471853471E+02 -0.11095825327E+03  0.11986332075E+03  0.47000000000E+01 0. -1.
        -11    1    4    4    0    0 -0.20652095395E+02  0.17117293699E+02 -0.94443420441E+02  0.98178767829E+02  0.00000000000E+00 0.  1.
         11    1    4    4    0    0  0.32499245521E+02 -0.48856598012E+02 -0.56157263068E+02  0.81220725951E+02  0.00000000000E+00 0. -1.
<mgrwt>
<rscale>  0 0.12063060E+03</rscale>
<asrwt>0</asrwt>
<pdfrwt beam="1">  1        1 0.51872859E-02 0.12950758E+03</pdfrwt>
<pdfrwt beam="2">  1       -1 0.58777667E-01 0.12950758E+03</pdfrwt>
<totfact> 0.45576567E+03</totfact>
</mgrwt>
</event>
<event>
 8    1  0.1646661E-005  0.1488908E+03  0.7546771E-02  0.1211053E+00
          2   -1    0    0  501    0  0.00000000000E+00  0.00000000000E+00  0.21042438606E+03  0.21042438606E+03  0.00000000000E+00 0. -1.
         -2   -1    0    0    0  501 -0.00000000000E+00 -0.00000000000E+00 -0.91453316677E+02  0.91453316677E+02  0.00000000000E+00 0.  1.
         23    2    1    2    0    0  0.74626291894E+02  0.31187251642E+02  0.33022139632E+02  0.15250879635E+03  0.12500697241E+03 0.  0.
         23    2    1    2    0    0 -0.74626291894E+02 -0.31187251642E+02  0.85948929747E+02  0.14936890639E+03  0.91553938004E+02 0.  0.
          5    1    3    3  502    0  0.30470305796E+01  0.59552647741E+02  0.44457714416E+02  0.74527717122E+02  0.47000000000E+01 0.  1.
         -5    1    3    3    0  502  0.71579261314E+02 -0.28365396099E+02 -0.11435574785E+02  0.77981079223E+02  0.47000000000E+01 0.  1.
        -11    1    4    4    0    0  0.49945487822E+01  0.24480370169E+02  0.16319410246E+02  0.29842204877E+02  0.00000000000E+00 0.  1.
         11    1    4    4    0    0 -0.79620840676E+02 -0.55667621811E+02  0.69629519501E+02  0.11952670151E+03  0.00000000000E+00 0. -1.
<mgrwt>
<rscale>  0 0.14170528E+03</rscale>
<asrwt>0</asrwt>
<pdfrwt beam="1">  1        2 0.32372982E-01 0.14889080E+03</pdfrwt>
<pdfrwt beam="2">  1       -2 0.14069741E-01 0.14889080E+03</pdfrwt>
<totfact> 0.58851759E+03</totfact>
</mgrwt>
</event>
<event>
 8    1  0.1646661E-005  0.1698472E+03  0.7546771E-02  0.1184552E+00
         -2   -1    0    0    0  501 -0.00000000000E+00  0.00000000000E+00  0.35203298816E+03  0.35203298816E+03  0.00000000000E+00 0.  1.
          2   -1    0    0  501    0  0.00000000000E+00 -0.00000000000E+00 -0.72824261414E+02  0.72824261414E+02  0.00000000000E+00 0. -1.
         23    2    1    2    0    0  0.51204882023E+02  0.10296061394E+03  0.18181244041E+03  0.24880483160E+03  0.12500101110E+03 0.  0.
         23    2    1    2    0    0 -0.51204882023E+02 -0.10296061394E+03  0.97396286336E+02  0.17605241797E+03  0.91025212527E+02 0.  0.
          5    1    3    3  502    0  0.89466069274E+02  0.46555277904E+02  0.11826034824E+03  0.15549653185E+03  0.47000000000E+01 0. -1.
         -5    1    3    3    0  502 -0.38261187251E+02  0.56405336036E+02  0.63552092171E+02  0.93308299751E+02  0.47000000000E+01 0. -1.
        -11    1    4    4    0    0 -0.37602999461E+02 -0.11804450795E+03  0.71154741460E+02  0.14286878126E+03  0.00000000000E+00 0. -1.
         11    1    4    4    0    0 -0.13601882562E+02  0.15083894014E+02  0.26241544876E+02  0.33183636711E+02  0.00000000000E+00 0.  1.
<mgrwt>
<rscale>  0 0.16372685E+03</rscale>
<asrwt>0</asrwt>
<pdfrwt beam="2">  1        2 0.11203733E-01 0.16984723E+03</pdfrwt>
<pdfrwt beam="1">  1       -2 0.54158920E-01 0.16984723E+03</pdfrwt>
<totfact> 0.17787959E+03</totfact>
</mgrwt>
</event>
<event>
 8    1  0.1646661E-005  0.2526038E+03  0.7546771E-02  0.1113321E+00
         -4   -1    0    0    0  501 -0.00000000000E+00  0.00000000000E+00  0.93149453780E+03  0.93149453780E+03  0.00000000000E+00 0.  1.
          4   -1    0    0  501    0  0.00000000000E+00 -0.00000000000E+00 -0.72732339162E+02  0.72732339162E+02  0.00000000000E+00 0. -1.
         23    2    1    2    0    0  0.10627886317E+03 -0.19206254318E+03  0.59335278263E+03  0.64488464246E+03  0.12500184069E+03 0.  0.
         23    2    1    2    0    0 -0.10627886317E+03  0.19206254318E+03  0.26540941600E+03  0.35934223450E+03  0.10247666145E+03 0.  0.
          5    1    3    3  502    0  0.42860501229E+02  0.59122349050E+01  0.12773449692E+03  0.13494505842E+03  0.47000000000E+01 0.  1.
         -5    1    3    3    0  502  0.63418361937E+02 -0.19797477808E+03  0.46561828571E+03  0.50993958405E+03  0.47000000000E+01 0.  1.
        -11    1    4    4    0    0 -0.93387779410E+02  0.11819560447E+03  0.10915506712E+03  0.18602770476E+03  0.00000000000E+00 0. -1.
         11    1    4    4    0    0 -0.12891083756E+02  0.73866938710E+02  0.15625434888E+03  0.17331452974E+03  0.00000000000E+00 0.  1.
<mgrwt>
<rscale>  0 0.24997438E+03</rscale>
<asrwt>0</asrwt>
<pdfrwt beam="2">  1        4 0.11189591E-01 0.25260380E+03</pdfrwt>
<pdfrwt beam="1">  1       -4 0.14330684E+00 0.25260380E+03</pdfrwt>
<totfact> 0.40693963E+01</totfact>
</mgrwt>
</event>
<event>
 8    1  0.1646661E-005  0.1265028E+03  0.7546771E-02  0.1250933E+00
         -2   -1    0    0    0  501 -0.00000000000E+00  0.00000000000E+00  0.10543239062E+03  0.10543239062E+03  0.00000000000E+00 0.  1.
          2   -1    0    0  501    0  0.00000000000E+00 -0.00000000000E+00 -0.18839242600E+03  0.18839242600E+03  0.00000000000E+00 0. -1.
         23    2    1    2    0    0  0.48769254677E+01  0.18799239028E+02  0.48848070478E+02  0.13560637600E+03  0.12500303769E+03 0.  0.
         23    2    1    2    0    0 -0.48769254677E+01 -0.18799239028E+02 -0.13180810586E+03  0.15821844061E+03  0.85337579004E+02 0.  0.
          5    1    3    3  502    0  0.22824854515E+02  0.11648801891E+02  0.87956376009E+02  0.91733759597E+02  0.47000000000E+01 0. -1.
         -5    1    3    3    0  502 -0.17947929047E+02  0.71504371376E+01 -0.39108305531E+02  0.43872616400E+02  0.47000000000E+01 0. -1.
        -11    1    4    4    0    0 -0.31274784297E+02  0.15832791987E+02 -0.25530934501E+02  0.43366093339E+02  0.00000000000E+00 0.  1.
         11    1    4    4    0    0  0.26397858829E+02 -0.34632031015E+02 -0.10627717136E+03  0.11485234728E+03  0.00000000000E+00 0. -1.
<mgrwt>
<rscale>  0 0.11537229E+03</rscale>
<asrwt>0</asrwt>
<pdfrwt beam="2">  1        2 0.28983450E-01 0.12650279E+03</pdfrwt>
<pdfrwt beam="1">  1       -2 0.16220368E-01 0.12650279E+03</pdfrwt>
<totfact> 0.52024005E+03</totfact>
</mgrwt>
</event>
<event>
 8    1  0.1646661E-005  0.1292316E+03  0.7546771E-02  0.1241969E+00
         -1   -1    0    0    0  501 -0.00000000000E+00  0.00000000000E+00  0.39311778446E+02  0.39311778446E+02  0.00000000000E+00 0.  1.
          1   -1    0    0  501    0  0.00000000000E+00 -0.00000000000E+00 -0.33464742594E+03  0.33464742594E+03  0.00000000000E+00 0. -1.
         23    2    1    2    0    0  0.29160967195E+02  0.15070561178E+02 -0.14380818848E+03  0.19334320287E+03  0.12499326062E+03 0.  0.
         23    2    1    2    0    0 -0.29160967195E+02 -0.15070561178E+02 -0.15152745902E+03  0.18061600151E+03  0.92650339150E+02 0.  0.
          5    1    3    3  502    0  0.47602073288E+02 -0.11342858010E+02 -0.15201779028E+03  0.15976894683E+03  0.47000000000E+01 0.  1.
         -5    1    3    3    0  502 -0.18441106093E+02  0.26413419188E+02  0.82096018016E+01  0.33574256044E+02  0.47000000000E+01 0.  1.
        -11    1    4    4    0    0 -0.15943050408E+02 -0.53463649772E+02 -0.69791483294E+02  0.89349839639E+02  0.00000000000E+00 0. -1.
         11    1    4    4    0    0 -0.13217916787E+02  0.38393088593E+02 -0.81735975721E+02  0.91266161873E+02  0.00000000000E+00 0.  1.
<mgrwt>
<rscale>  0 0.12068615E+03</rscale>
<asrwt>0</asrwt>
<pdfrwt beam="2">  1        1 0.51484219E-01 0.12923157E+03</pdfrwt>
<pdfrwt beam="1">  1       -1 0.60479659E-02 0.12923157E+03</pdfrwt>
<totfact> 0.95028269E+03</totfact>
</mgrwt>
</event>
<event>
 8    1  0.1646661E-005  0.1864734E+03  0.7546771E-02  0.1168370E+00
          2   -1    0    0  501    0  0.00000000000E+00  0.00000000000E+00  0.29135764328E+03  0.29135764328E+03  0.00000000000E+00 0. -1.
         -2   -1    0    0    0  501 -0.00000000000E+00 -0.00000000000E+00 -0.11244103149E+03  0.11244103149E+03  0.00000000000E+00 0.  1.
         23    2    1    2    0    0 -0.13742047249E+03  0.16204538087E+02  0.37073529246E+02  0.19012303489E+03  0.12500139404E+03 0.  0.
         23    2    1    2    0    0  0.13742047249E+03 -0.16204538087E+02  0.14184308254E+03  0.21367563988E+03  0.79942765155E+02 0.  0.
          5    1    3    3  502    0 -0.11719866792E+03 -0.41259733899E+02  0.15376145844E+02  0.12528531145E+03  0.47000000000E+01 0. -1.
         -5    1    3    3    0  502 -0.20221804567E+02  0.57464271986E+02  0.21697383401E+02  0.64837723443E+02  0.47000000000E+01 0. -1.
        -11    1    4    4    0    0  0.66175520926E+02 -0.47868621995E+02  0.77452607588E+02  0.11255892219E+03  0.00000000000E+00 0.  1.
         11    1    4    4    0    0  0.71244951562E+02  0.31664083908E+02  0.64390474952E+02  0.10111671769E+03  0.00000000000E+00 0. -1.
<mgrwt>
<rscale>  0 0.17941577E+03</rscale>
<asrwt>0</asrwt>
<pdfrwt beam="1">  1        2 0.44824253E-01 0.18647338E+03</pdfrwt>
<pdfrwt beam="2">  1       -2 0.17298620E-01 0.18647338E+03</pdfrwt>
<totfact> 0.29859627E+03</totfact>
</mgrwt>
</event>
<event>
 8    1  0.1646661E-005  0.1279383E+03  0.7546771E-02  0.1244187E+00
         -1   -1    0    0    0  501 -0.00000000000E+00  0.00000000000E+00  0.48406003735E+02  0.48406003735E+02  0.00000000000E+00 0.  1.
          1   -1    0    0  501    0  0.00000000000E+00 -0.00000000000E+00 -0.31836360358E+03  0.31836360358E+03  0.00000000000E+00 0. -1.
         23    2    1    2    0    0 -0.14361455014E+02  0.23118361235E+02 -0.73045303536E+02  0.14732214372E+03  0.12500995019E+03 0.  0.
         23    2    1    2    0    0  0.14361455014E+02 -0.23118361235E+02 -0.19691229631E+03  0.21944746359E+03  0.92962502247E+02 0.  0.
          5    1    3    3  502    0  0.30194680811E+02 -0.32140078144E+02  0.13747287375E+01  0.44369846196E+02  0.47000000000E+01 0. -1.
         -5    1    3    3    0  502 -0.44556135825E+02  0.55258439378E+02 -0.74420032273E+02  0.10295229753E+03  0.47000000000E+01 0. -1.
        -11    1    4    4    0    0  0.37441104839E+02  0.20586065793E+01 -0.17476051923E+03  0.17873811366E+03  0.00000000000E+00 0. -1.
         11    1    4    4    0    0 -0.23079649826E+02 -0.25176967814E+02 -0.22151777077E+02  0.40709349934E+02  0.00000000000E+00 0.  1.
<mgrwt>
<rscale>  0 0.11934151E+03</rscale>
<asrwt>0</asrwt>
<pdfrwt beam="2">  1        1 0.48979014E-01 0.12793826E+03</pdfrwt>
<pdfrwt beam="1">  1       -1 0.74470778E-02 0.12793826E+03</pdfrwt>
<totfact> 0.74016247E+03</totfact>
</mgrwt>
</event>
<event>
 8    1  0.1646661E-005  0.1269506E+03  0.7546771E-02  0.1246665E+00
         -2   -1    0    0    0  501 -0.00000000000E+00  0.00000000000E+00  0.85479034925E+02  0.85479034925E+02  0.00000000000E+00 0.  1.
          2   -1    0    0  501    0  0.00000000000E+00 -0.00000000000E+00 -0.14792744298E+03  0.14792744298E+03  0.00000000000E+00 0. -1.
         23    2    1    2    0    0 -0.22145865419E+02  0.53821051539E+00 -0.15026442654E+02  0.12783680151E+03  0.12500289923E+03 0.  0.
         23    2    1    2    0    0  0.22145865419E+02 -0.53821051539E+00 -0.47421965404E+02  0.10556967640E+03  0.91680885391E+02 0.  0.
          5    1    3    3  502    0  0.33843157415E+02 -0.43463045949E+02 -0.22072239488E+01  0.55329535553E+02  0.47000000000E+01 0. -1.
         -5    1    3    3    0  502 -0.55989022834E+02  0.44001256465E+02 -0.12819218705E+02  0.72507265957E+02  0.47000000000E+01 0. -1.
        -11    1    4    4    0    0  0.57002573032E+02 -0.63572692444E+01 -0.38634516107E+02  0.69154421691E+02  0.00000000000E+00 0. -1.
         11    1    4    4    0    0 -0.34856707613E+02  0.58190587290E+01 -0.87874492962E+01  0.36415254706E+02  0.00000000000E+00 0.  1.
<mgrwt>
<rscale>  0 0.11786262E+03</rscale>
<asrwt>0</asrwt>
<pdfrwt beam="2">  1        2 0.22758068E-01 0.12695060E+03</pdfrwt>
<pdfrwt beam="1">  1       -2 0.13150621E-01 0.12695060E+03</pdfrwt>
<totfact> 0.95458104E+03</totfact>
</mgrwt>
</event>
<event>
 8    1  0.1646661E-005  0.1514799E+03  0.7546771E-02  0.1207114E+00
          2   -1    0    0  501    0  0.00000000000E+00  0.00000000000E+00  0.11444334484E+04  0.11444334484E+04  0.00000000000E+00 0. -1.
         -2   -1    0    0    0  501 -0.00000000000E+00 -0.00000000000E+00 -0.17363167318E+02  0.17363167318E+02  0.00000000000E+00 0.  1.
         23    2    1    2    0    0 -0.80797178274E+02  0.28163439723E+02  0.51325237436E+03  0.53513939447E+03  0.12499923353E+03 0.  0.
         23    2    1    2    0    0  0.80797178274E+02 -0.28163439723E+02  0.61381790669E+03  0.62665722120E+03  0.92765763970E+02 0.  0.
          5    1    3    3  502    0 -0.84102819014E+02 -0.23863943359E+01  0.48762303120E+03  0.49485077508E+03  0.47000000000E+01 0.  1.
         -5    1    3    3    0  502  0.33056407400E+01  0.30549834059E+02  0.25629343154E+02  0.40288619389E+02  0.47000000000E+01 0.  1.
        -11    1    4    4    0    0  0.57933536652E+02 -0.62271550912E+02  0.40296456507E+03  0.41184278726E+03  0.00000000000E+00 0.  1.
         11    1    4    4    0    0  0.22863641622E+02  0.34108111188E+02  0.21085334162E+03  0.21481443394E+03  0.00000000000E+00 0. -1.
<mgrwt>
<rscale>  0 0.14472134E+03</rscale>
<asrwt>0</asrwt>
<pdfrwt beam="1">  1        2 0.17606663E+00 0.15147994E+03</pdfrwt>
<pdfrwt beam="2">  1       -2 0.26712574E-02 0.15147994E+03</pdfrwt>
<totfact> 0.10534934E+04</totfact>
</mgrwt>
</event>
<event>
 8    1  0.1646661E-005  0.1270262E+03  0.7546771E-02  0.1247498E+00
          2   -1    0    0  501    0  0.00000000000E+00  0.00000000000E+00  0.40085917353E+02  0.40085917353E+02  0.00000000000E+00 0. -1.
         -2   -1    0    0    0  501 -0.00000000000E+00 -0.00000000000E+00 -0.39884745776E+03  0.39884745776E+03  0.00000000000E+00 0.  1.
         23    2    1    2    0    0  0.20142581260E+01 -0.22507060820E+02 -0.30839440794E+03  0.33353074176E+03  0.12500007929E+03 0.  0.
         23    2    1    2    0    0 -0.20142581260E+01  0.22507060820E+02 -0.50367132464E+02  0.10540263336E+03  0.89789988661E+02 0.  0.
          5    1    3    3  502    0 -0.83155025068E+01 -0.62316794496E+02 -0.26933909478E+03  0.27661917583E+03  0.47000000000E+01 0.  1.
         -5    1    3    3    0  502  0.10329760633E+02  0.39809733676E+02 -0.39055313161E+02  0.56911565926E+02  0.47000000000E+01 0.  1.
        -11    1    4    4    0    0  0.32672944642E+01 -0.31012814361E+02 -0.39854646613E+02  0.50604967388E+02  0.00000000000E+00 0.  1.
         11    1    4    4    0    0 -0.52815525902E+01  0.53519875180E+02 -0.10512485851E+02  0.54797665971E+02  0.00000000000E+00 0. -1.
<mgrwt>
<rscale>  0 0.11737095E+03</rscale>
<asrwt>0</asrwt>
<pdfrwt beam="1">  1        2 0.61670641E-02 0.12702616E+03</pdfrwt>
<pdfrwt beam="2">  1       -2 0.61361148E-01 0.12702616E+03</pdfrwt>
<totfact> 0.28664624E+03</totfact>
</mgrwt>
</event>
<event>
 8    1  0.1646661E-005  0.1380958E+03  0.7546771E-02  0.1227985E+00
         -2   -1    0    0    0  501 -0.00000000000E+00  0.00000000000E+00  0.33168110599E+02  0.33168110599E+02  0.00000000000E+00 0.  1.
          2   -1    0    0  501    0  0.00000000000E+00 -0.00000000000E+00 -0.47868258402E+03  0.47868258402E+03  0.00000000000E+00 0. -1.
         23    2    1    2    0    0 -0.42425569851E+02  0.40576209118E+02 -0.19134751468E+03  0.23597522792E+03  0.12499631631E+03 0.  0.
         23    2    1    2    0    0  0.42425569851E+02 -0.40576209118E+02 -0.25416695874E+03  0.27587546670E+03  0.89777906466E+02 0.  0.
          5    1    3    3  502    0 -0.16685170382E+02 -0.16541808663E+02  0.93147554360E+01  0.25707606138E+02  0.47000000000E+01 0.  1.
         -5    1    3    3    0  502 -0.25740399469E+02  0.57118017781E+02 -0.20066227012E+03  0.21026762178E+03  0.47000000000E+01 0.  1.
        -11    1    4    4    0    0 -0.19311479408E+02 -0.41201547737E+02 -0.10490401887E+03  0.11434751395E+03  0.00000000000E+00 0.  1.
         11    1    4    4    0    0  0.61737049260E+02  0.62533861904E+00 -0.14926293987E+03  0.16152795275E+03  0.00000000000E+00 0. -1.
<mgrwt>
<rscale>  0 0.12964412E+03</rscale>
<asrwt>0</asrwt>
<pdfrwt beam="2">  1        2 0.73643472E-01 0.13809575E+03</pdfrwt>
<pdfrwt beam="1">  1       -2 0.51027864E-02 0.13809575E+03</pdfrwt>
<totfact> 0.11791660E+04</totfact>
</mgrwt>
</event>
<event>
 8    1  0.1646661E-005  0.1324482E+03  0.7546771E-02  0.1237284E+00
          2   -1    0    0  501    0  0.00000000000E+00  0.00000000000E+00  0.17349712684E+02  0.17349712684E+02  0.00000000000E+00 0. -1.
         -2   -1    0    0    0  501 -0.00000000000E+00 -0.00000000000E+00 -0.82363033359E+03  0.82363033359E+03  0.00000000000E+00 0.  1.
         23    2    1    2    0    0  0.42168135214E+02  0.11759748600E+02 -0.55006317663E+03  0.56578443390E+03  0.12500433612E+03 0.  0.
         23    2    1    2    0    0 -0.42168135214E+02 -0.11759748600E+02 -0.25621744428E+03  0.27519561237E+03  0.90381430622E+02 0.  0.
          5    1    3    3  502    0  0.37477108610E+02 -0.44716871337E+02 -0.41687796496E+03  0.42096729080E+03  0.47000000000E+01 0.  1.
         -5    1    3    3    0  502  0.46910266041E+01  0.56476619937E+02 -0.13318521166E+03  0.14481714310E+03  0.47000000000E+01 0.  1.
        -11    1    4    4    0    0 -0.26352868016E+02  0.25644023907E+02 -0.36693779388E+02  0.51947310427E+02  0.00000000000E+00 0. -1.
         11    1    4    4    0    0 -0.15815267198E+02 -0.37403772507E+02 -0.21952366489E+03  0.22324830194E+03  0.00000000000E+00 0.  1.
<mgrwt>
<rscale>  0 0.12359343E+03</rscale>
<asrwt>0</asrwt>
<pdfrwt beam="1">  1        2 0.26691861E-02 0.13244821E+03</pdfrwt>
<pdfrwt beam="2">  1       -2 0.12671238E+00 0.13244821E+03</pdfrwt>
<totfact> 0.17122879E+03</totfact>
</mgrwt>
</event>
<event>
 7    1  0.1646661E-005  0.1465334E+03  0.7546771E-02  0.1228411E+00
          2   -1    0    0  501    0  0.00000000000E+00  0.00000000000E+00  0.35490082684E+03  0.35490082684E+03  0.00000000000E+00 0. -1.
         -2   -1    0    0    0  501 -0.00000000000E+00 -0.00000000000E+00 -0.62752365924E+02  0.62752365924E+02  0.00000000000E+00 0.  1.
         23    2    1    2    0    0  0.14505682797E+02 -0.75979350261E+02  0.42433276488E+02  0.15255367134E+03  0.12445385967E+03 0.  0.
          5    1    3    3  502    0  0.27312473806E+02  0.20961579629E+02  0.42189656878E+02  0.54657261122E+02  0.47000000000E+01 0. -1.
         -5    1    3    3    0  502 -0.12806791009E+02 -0.96940929890E+02  0.24361960995E+00  0.97896410222E+02  0.47000000000E+01 0.  1.
        -11    1    1    2    0    0  0.10825561740E+02  0.53106023666E+02  0.16857788766E+03  0.17707610439E+03  0.00000000000E+00 0. -1.
         11    1    1    2    0    0 -0.25331244537E+02  0.22873326595E+02  0.81137296769E+02  0.88023417034E+02  0.00000000000E+00 0.  1.
<mgrwt>
<rscale>  0 0.12935812E+03</rscale>
<asrwt>0</asrwt>
<pdfrwt beam="1">  1        2 0.54600126E-01 0.14653341E+03</pdfrwt>
<pdfrwt beam="2">  1       -2 0.96542104E-02 0.14653341E+03</pdfrwt>
<totfact> 0.61407947E+03</totfact>
</mgrwt>
</event>
<event>
 8    1  0.1646661E-005  0.1526063E+03  0.7546771E-02  0.1206274E+00
         -3   -1    0    0    0  501 -0.00000000000E+00  0.00000000000E+00  0.45813126826E+03  0.45813126826E+03  0.00000000000E+00 0.  1.
          3   -1    0    0  501    0  0.00000000000E+00 -0.00000000000E+00 -0.48134232993E+02  0.48134232993E+02  0.00000000000E+00 0. -1.
         23    2    1    2    0    0  0.80749072279E+02 -0.33797805786E+02  0.31049423012E+03  0.34597017067E+03  0.12500395074E+03 0.  0.
         23    2    1    2    0    0 -0.80749072279E+02  0.33797805786E+02  0.99502805146E+02  0.16029533059E+03  0.90172503720E+02 0.  0.
          5    1    3    3  502    0 -0.13393056524E+02  0.11940914882E+02  0.29017137683E+00  0.18550838545E+02  0.47000000000E+01 0.  1.
         -5    1    3    3    0  502  0.94142128803E+02 -0.45738720668E+02  0.31020405875E+03  0.32741933212E+03  0.47000000000E+01 0.  1.
        -11    1    4    4    0    0 -0.97819359529E+02  0.41447995521E+02  0.78017340865E+02  0.13180769669E+03  0.00000000000E+00 0. -1.
         11    1    4    4    0    0  0.17070287250E+02 -0.76501897348E+01  0.21485464280E+02  0.28487633899E+02  0.00000000000E+00 0.  1.
<mgrwt>
<rscale>  0 0.14537515E+03</rscale>
<asrwt>0</asrwt>
<pdfrwt beam="2">  1        3 0.74052669E-02 0.15260633E+03</pdfrwt>
<pdfrwt beam="1">  1       -3 0.70481731E-01 0.15260633E+03</pdfrwt>
<totfact> 0.55932974E+02</totfact>
</mgrwt>
</event>
<event>
 8    1  0.1646661E-005  0.1146656E+03  0.7546771E-02  0.1256837E+00
          2   -1    0    0  501    0  0.00000000000E+00  0.00000000000E+00  0.31141428917E+03  0.31141428917E+03  0.00000000000E+00 0. -1.
         -2   -1    0    0    0  501 -0.00000000000E+00 -0.00000000000E+00 -0.39224872138E+02  0.39224872138E+02  0.00000000000E+00 0.  1.
         23    2    1    2    0    0 -0.28431170183E+02 -0.13393975855E+02  0.16494484376E+03  0.20088553141E+03  0.11027449941E+03 0.  0.
         23    2    1    2    0    0  0.28431170183E+02  0.13393975855E+02  0.10724457327E+03  0.14975362989E+03  0.99684608360E+02 0.  0.
          5    1    3    3  502    0 -0.61127798880E+02  0.19143756138E+02  0.68658817034E+02  0.94017096059E+02  0.47000000000E+01 0. -1.
         -5    1    3    3    0  502  0.32696628697E+02 -0.32537731992E+02  0.96286026728E+02  0.10686843535E+03  0.47000000000E+01 0.  1.
        -11    1    4    4    0    0  0.27836926219E+02 -0.30219646514E+02  0.87144735912E+01  0.42000756502E+02  0.00000000000E+00 0.  1.
         11    1    4    4    0    0  0.59424396401E+00  0.43613622369E+02  0.98530099676E+02  0.10775287339E+03  0.00000000000E+00 0. -1.
<mgrwt>
<rscale>  0 0.11204081E+03</rscale>
<asrwt>0</asrwt>
<pdfrwt beam="1">  1        2 0.47909889E-01 0.11466558E+03</pdfrwt>
<pdfrwt beam="2">  1       -2 0.60345959E-02 0.11466558E+03</pdfrwt>
<totfact> 0.14271638E+04</totfact>
</mgrwt>
</event>
<event>
 8    1  0.1646661E-005  0.1564421E+03  0.7546771E-02  0.1200587E+00
          1   -1    0    0  501    0  0.00000000000E+00  0.00000000000E+00  0.40522054608E+03  0.40522054608E+03  0.00000000000E+00 0. -1.
         -1   -1    0    0    0  501 -0.00000000000E+00 -0.00000000000E+00 -0.53641909233E+02  0.53641909233E+02  0.00000000000E+00 0.  1.
         23    2    1    2    0    0  0.28459398331E+02  0.89659213610E+02  0.14225028921E+03  0.21144569644E+03  0.12500170328E+03 0.  0.
         23    2    1    2    0    0 -0.28459398331E+02 -0.89659213610E+02  0.20932834764E+03  0.24741675888E+03  0.92455305479E+02 0.  0.
          5    1    3    3  502    0  0.52423986001E+02  0.34349108777E+02  0.69291483701E+01  0.63231627206E+02  0.47000000000E+01 0.  1.
         -5    1    3    3    0  502 -0.23964587670E+02  0.55310104834E+02  0.13532114084E+03  0.14821406923E+03  0.47000000000E+01 0.  1.
        -11    1    4    4    0    0  0.66645641993E+01 -0.94898442430E+02  0.13635825238E+03  0.16626395817E+03  0.00000000000E+00 0. -1.
         11    1    4    4    0    0 -0.35123962530E+02  0.52392288196E+01  0.72970095251E+02  0.81152800711E+02  0.00000000000E+00 0.  1.
<mgrwt>
<rscale>  0 0.14990759E+03</rscale>
<asrwt>0</asrwt>
<pdfrwt beam="1">  1        1 0.62341620E-01 0.15644212E+03</pdfrwt>
<pdfrwt beam="2">  1       -1 0.82526017E-02 0.15644212E+03</pdfrwt>
<totfact> 0.47431171E+03</totfact>
</mgrwt>
</event>
<event>
 8    1  0.1646661E-005  0.3011874E+03  0.7546771E-02  0.1086434E+00
          2   -1    0    0  501    0  0.00000000000E+00  0.00000000000E+00  0.13537253900E+04  0.13537253900E+04  0.00000000000E+00 0. -1.
         -2   -1    0    0    0  501 -0.00000000000E+00 -0.00000000000E+00 -0.68828679849E+02  0.68828679849E+02  0.00000000000E+00 0.  1.
         23    2    1    2    0    0  0.13105186593E+03 -0.24064634355E+03  0.46698686615E+03  0.55568926176E+03  0.12501427218E+03 0.  0.
         23    2    1    2    0    0 -0.13105186593E+03  0.24064634355E+03  0.81790984399E+03  0.86686480809E+03  0.85981558298E+02 0.  0.
          5    1    3    3  502    0  0.50795583629E+02 -0.50284881500E+01  0.63900153066E+02  0.81919451726E+02  0.47000000000E+01 0.  1.
         -5    1    3    3    0  502  0.80256282303E+02 -0.23561785540E+03  0.40308671309E+03  0.47376981003E+03  0.47000000000E+01 0.  1.
        -11    1    4    4    0    0 -0.81016017985E+02  0.17494196055E+03  0.67303772160E+03  0.70010574874E+03  0.00000000000E+00 0. -1.
         11    1    4    4    0    0 -0.50035847947E+02  0.65704382995E+02  0.14487212240E+03  0.16675905934E+03  0.00000000000E+00 0.  1.
<mgrwt>
<rscale>  0 0.29762532E+03</rscale>
<asrwt>0</asrwt>
<pdfrwt beam="1">  1        2 0.20826542E+00 0.30118735E+03</pdfrwt>
<pdfrwt beam="2">  1       -2 0.10589029E-01 0.30118735E+03</pdfrwt>
<totfact> 0.99166141E+02</totfact>
</mgrwt>
</event>
<event>
 8    1  0.1646661E-005  0.1781372E+03  0.7546771E-02  0.1175661E+00
         -2   -1    0    0    0  501 -0.00000000000E+00  0.00000000000E+00  0.19429682196E+03  0.19429682196E+03  0.00000000000E+00 0.  1.
          2   -1    0    0  501    0  0.00000000000E+00 -0.00000000000E+00 -0.16274626469E+03  0.16274626469E+03  0.00000000000E+00 0. -1.
         23    2    1    2    0    0  0.12468204152E+03 -0.23716963609E+02  0.78779066299E+02  0.19477933572E+03  0.12499896998E+03 0.  0.
         23    2    1    2    0    0 -0.12468204152E+03  0.23716963609E+02 -0.47228509029E+02  0.16226375093E+03  0.89391761141E+02 0.  0.
          5    1    3    3  502    0  0.17944982535E+02 -0.41791804140E+02 -0.18342546154E+02  0.49265772001E+02  0.47000000000E+01 0. -1.
         -5    1    3    3    0  502  0.10673705899E+03  0.18074840531E+02  0.97121612453E+02  0.14551356372E+03  0.47000000000E+01 0. -1.
        -11    1    4    4    0    0 -0.34414793389E+02  0.34660025984E+02  0.16130561048E+02  0.51438219302E+02  0.00000000000E+00 0.  1.
         11    1    4    4    0    0 -0.90267248131E+02 -0.10943062375E+02 -0.63359070078E+02  0.11082553163E+03  0.00000000000E+00 0. -1.
<mgrwt>
<rscale>  0 0.17211383E+03</rscale>
<asrwt>0</asrwt>
<pdfrwt beam="2">  1        2 0.25037887E-01 0.17813716E+03</pdfrwt>
<pdfrwt beam="1">  1       -2 0.29891819E-01 0.17813716E+03</pdfrwt>
<totfact> 0.21710852E+03</totfact>
</mgrwt>
</event>
<event>
 8    1  0.1646661E-005  0.1546185E+03  0.7546771E-02  0.1203285E+00
         -2   -1    0    0    0  501 -0.00000000000E+00  0.00000000000E+00  0.25244475964E+02  0.25244475964E+02  0.00000000000E+00 0. -1.
          2   -1    0    0  501    0  0.00000000000E+00 -0.00000000000E+00 -0.79588840605E+03  0.79588840605E+03  0.00000000000E+00 0.  1.
         23    2    1    2    0    0 -0.75989937882E+02 -0.50077374999E+02 -0.42303632917E+03  0.45040716495E+03  0.12499865720E+03 0.  0.
         23    2    1    2    0    0  0.75989937882E+02  0.50077374999E+02 -0.34760760092E+03  0.37072571706E+03  0.91237596012E+02 0.  0.
          5    1    3    3  502    0  0.26521748160E+02 -0.11996900411E+02 -0.19777047981E+03  0.19995644883E+03  0.47000000000E+01 0. -1.
         -5    1    3    3    0  502 -0.10251168604E+03 -0.38080474589E+02 -0.22526584936E+03  0.25045071612E+03  0.47000000000E+01 0. -1.
        -11    1    4    4    0    0  0.59556430246E+02  0.77227776556E+01 -0.29573499007E+03  0.30177109542E+03  0.00000000000E+00 0.  1.
         11    1    4    4    0    0  0.16433507636E+02  0.42354597344E+02 -0.51872610852E+02  0.68954621643E+02  0.00000000000E+00 0. -1.
<mgrwt>
<rscale>  0 0.14773415E+03</rscale>
<asrwt>0</asrwt>
<pdfrwt beam="2">  1        2 0.12244437E+00 0.15461849E+03</pdfrwt>
<pdfrwt beam="1">  1       -2 0.38837656E-02 0.15461849E+03</pdfrwt>
<totfact> 0.99289338E+03</totfact>
</mgrwt>
</event>
<event>
 8    1  0.1646661E-005  0.1692754E+03  0.7546771E-02  0.1185414E+00
          3   -1    0    0  501    0  0.00000000000E+00  0.00000000000E+00  0.44760884644E+03  0.44760884644E+03  0.00000000000E+00 0. -1.
         -3   -1    0    0    0  501 -0.00000000000E+00 -0.00000000000E+00 -0.55788541981E+02  0.55788541981E+02  0.00000000000E+00 0.  1.
         23    2    1    2    0    0 -0.39990054885E+02 -0.10685764117E+03  0.18674364350E+03  0.25204631361E+03  0.12504557509E+03 0.  0.
         23    2    1    2    0    0  0.39990054885E+02  0.10685764117E+03  0.20507666095E+03  0.25135107481E+03  0.90017587031E+02 0.  0.
          5    1    3    3  502    0 -0.76790480903E+02 -0.37624129837E+02  0.66531679451E+02  0.10844771770E+03  0.47000000000E+01 0.  1.
         -5    1    3    3    0  502  0.36800426018E+02 -0.69233511331E+02  0.12021196405E+03  0.14359859591E+03  0.47000000000E+01 0.  1.
        -11    1    4    4    0    0  0.45643016450E+02  0.83588053882E+02  0.81120570470E+02  0.12510313608E+03  0.00000000000E+00 0.  1.
         11    1    4    4    0    0 -0.56529615657E+01  0.23269587286E+02  0.12395609048E+03  0.12624793873E+03  0.00000000000E+00 0. -1.
<mgrwt>
<rscale>  0 0.16294254E+03</rscale>
<asrwt>0</asrwt>
<pdfrwt beam="1">  1        3 0.68862897E-01 0.16927538E+03</pdfrwt>
<pdfrwt beam="2">  1       -3 0.85828529E-02 0.16927538E+03</pdfrwt>
<totfact> 0.46879698E+02</totfact>
</mgrwt>
</event>
<event>
 8    1  0.1646661E-005  0.1288135E+03  0.7546771E-02  0.1239256E+00
          1   -1    0    0  501    0  0.00000000000E+00  0.00000000000E+00  0.60159962979E+03  0.60159962979E+03  0.00000000000E+00 0. -1.
         -1   -1    0    0    0  501 -0.00000000000E+00 -0.00000000000E+00 -0.23122710543E+02  0.23122710543E+02  0.00000000000E+00 0.  1.
         23    2    1    2    0    0 -0.31609620174E+01  0.30960352714E+02  0.27595690310E+03  0.30454086485E+03  0.12499756347E+03 0.  0.
         23    2    1    2    0    0  0.31609620174E+01 -0.30960352714E+02  0.30252001615E+03  0.32018147548E+03  0.10014630274E+03 0.  0.
          5    1    3    3  502    0 -0.59155394015E+02 -0.34226574153E+01  0.96076464266E+02  0.11297721987E+03  0.47000000000E+01 0.  1.
         -5    1    3    3    0  502  0.55994431998E+02  0.34383010130E+02  0.17988043884E+03  0.19156364498E+03  0.47000000000E+01 0.  1.
        -11    1    4    4    0    0 -0.28489940803E+02 -0.56238489576E+02  0.20809415826E+03  0.21743418117E+03  0.00000000000E+00 0. -1.
         11    1    4    4    0    0  0.31650902821E+02  0.25278136861E+02  0.94425857885E+02  0.10274729432E+03  0.00000000000E+00 0.  1.
<mgrwt>
<rscale>  0 0.12235858E+03</rscale>
<asrwt>0</asrwt>
<pdfrwt beam="1">  1        1 0.92553777E-01 0.12881353E+03</pdfrwt>
<pdfrwt beam="2">  1       -1 0.35573405E-02 0.12881353E+03</pdfrwt>
<totfact> 0.97737788E+03</totfact>
</mgrwt>
</event>
<event>
 8    1  0.1646661E-005  0.1651034E+03  0.7546771E-02  0.1190420E+00
         -2   -1    0    0    0  501 -0.00000000000E+00  0.00000000000E+00  0.11015794787E+03  0.11015794787E+03  0.00000000000E+00 0.  1.
          2   -1    0    0  501    0  0.00000000000E+00 -0.00000000000E+00 -0.34331563869E+03  0.34331563869E+03  0.00000000000E+00 0. -1.
         23    2    1    2    0    0 -0.56589109372E+02  0.91745160039E+02  0.17762166052E+02  0.16605610869E+03  0.12505852630E+03 0.  0.
         23    2    1    2    0    0  0.56589109372E+02 -0.91745160039E+02 -0.25091985687E+03  0.28741747788E+03  0.89602066543E+02 0.  0.
          5    1    3    3  502    0 -0.20619160995E+02  0.11754059795E+03  0.21650191486E+02  0.12137447325E+03  0.47000000000E+01 0.  1.
         -5    1    3    3    0  502 -0.35969948377E+02 -0.25795437909E+02 -0.38880254338E+01  0.44681635433E+02  0.47000000000E+01 0.  1.
        -11    1    4    4    0    0 -0.18397352506E+02 -0.39746409064E+02 -0.48317689391E+02  0.65213792412E+02  0.00000000000E+00 0.  1.
         11    1    4    4    0    0  0.74986461878E+02 -0.51998750975E+02 -0.20260216748E+03  0.22220368547E+03  0.00000000000E+00 0. -1.
<mgrwt>
<rscale>  0 0.15848272E+03</rscale>
<asrwt>0</asrwt>
<pdfrwt beam="2">  1        2 0.52817789E-01 0.16510341E+03</pdfrwt>
<pdfrwt beam="1">  1       -2 0.16947377E-01 0.16510341E+03</pdfrwt>
<totfact> 0.25807952E+03</totfact>
</mgrwt>
</event>
<event>
 8    1  0.1646661E-005  0.1404735E+03  0.7546771E-02  0.1226281E+00
          2   -1    0    0  501    0  0.00000000000E+00  0.00000000000E+00  0.54196785853E+03  0.54196785853E+03  0.00000000000E+00 0. -1.
         -2   -1    0    0    0  501 -0.00000000000E+00 -0.00000000000E+00 -0.28161274701E+02  0.28161274701E+02  0.00000000000E+00 0.  1.
         23    2    1    2    0    0  0.44556177083E+02  0.46077949281E+02  0.26728777149E+03  0.30195292050E+03  0.12499753231E+03 0.  0.
         23    2    1    2    0    0 -0.44556177083E+02 -0.46077949281E+02  0.24651881234E+03  0.26817621274E+03  0.83895923096E+02 0.  0.
          5    1    3    3  502    0 -0.30301965446E+02 -0.16103254707E+02  0.31453631807E+02  0.46786161158E+02  0.47000000000E+01 0. -1.
         -5    1    3    3    0  502  0.74858142530E+02  0.62181203987E+02  0.23583413968E+03  0.25516675934E+03  0.47000000000E+01 0. -1.
        -11    1    4    4    0    0  0.38203732542E+01 -0.49851890689E+02  0.17306268288E+03  0.18014021889E+03  0.00000000000E+00 0.  1.
         11    1    4    4    0    0 -0.48376550338E+02  0.37739414083E+01  0.73456129464E+02  0.88035993845E+02  0.00000000000E+00 0. -1.
<mgrwt>
<rscale>  0 0.13079478E+03</rscale>
<asrwt>0</asrwt>
<pdfrwt beam="1">  1        2 0.83379663E-01 0.14047353E+03</pdfrwt>
<pdfrwt beam="2">  1       -2 0.43325042E-02 0.14047353E+03</pdfrwt>
<totfact> 0.13155580E+04</totfact>
</mgrwt>
</event>
<event>
 8    1  0.1646661E-005  0.2050342E+03  0.7546771E-02  0.1149589E+00
          2   -1    0    0  501    0  0.00000000000E+00  0.00000000000E+00  0.19086174967E+03  0.19086174967E+03  0.00000000000E+00 0. -1.
         -2   -1    0    0    0  501 -0.00000000000E+00 -0.00000000000E+00 -0.21859491629E+03  0.21859491629E+03  0.00000000000E+00 0.  1.
         23    2    1    2    0    0 -0.26209944989E+02  0.16039717281E+03 -0.73186344456E+02  0.21770456540E+03  0.12499929009E+03 0.  0.
         23    2    1    2    0    0  0.26209944989E+02 -0.16039717281E+03  0.45453177842E+02  0.19175210055E+03  0.91042091531E+02 0.  0.
          5    1    3    3  502    0 -0.14456036768E+02  0.17614651204E+03 -0.43978903261E+02  0.18218892567E+03  0.47000000000E+01 0.  1.
         -5    1    3    3    0  502 -0.11753908222E+02 -0.15749339236E+02 -0.29207441195E+02  0.35515639738E+02  0.47000000000E+01 0.  1.
        -11    1    4    4    0    0  0.46573228492E+02 -0.34122592381E+02  0.68091836059E+01  0.58135891705E+02  0.00000000000E+00 0.  1.
         11    1    4    4    0    0 -0.20363283503E+02 -0.12627458042E+03  0.38643994236E+02  0.13361620885E+03  0.00000000000E+00 0. -1.
<mgrwt>
<rscale>  0 0.20017760E+03</rscale>
<asrwt>0</asrwt>
<pdfrwt beam="1">  1        2 0.29363346E-01 0.20503423E+03</pdfrwt>
<pdfrwt beam="2">  1       -2 0.33629987E-01 0.20503423E+03</pdfrwt>
<totfact> 0.14746844E+03</totfact>
</mgrwt>
</event>
<event>
 8    1  0.1646661E-005  0.1258449E+03  0.7546771E-02  0.1247939E+00
         -1   -1    0    0    0  501 -0.00000000000E+00  0.00000000000E+00  0.74353453858E+02  0.74353453858E+02  0.00000000000E+00 0.  1.
          1   -1    0    0  501    0  0.00000000000E+00 -0.00000000000E+00 -0.23798380316E+03  0.23798380316E+03  0.00000000000E+00 0. -1.
         23    2    1    2    0    0  0.75789724849E+01  0.12461158139E+02 -0.28218040802E+01  0.12587651787E+03  0.12499685551E+03 0.  0.
         23    2    1    2    0    0 -0.75789724849E+01 -0.12461158139E+02 -0.16080854522E+03  0.18646073914E+03  0.93249652763E+02 0.  0.
          5    1    3    3  502    0  0.36720087438E+02 -0.36977552377E+02 -0.31991706723E+02  0.61329140710E+02  0.47000000000E+01 0.  1.
         -5    1    3    3    0  502 -0.29141114953E+02  0.49438710516E+02  0.29169902643E+02  0.64547377161E+02  0.47000000000E+01 0.  1.
        -11    1    4    4    0    0  0.39372566556E+02 -0.52000946059E+00 -0.39219393295E+02  0.55575446175E+02  0.00000000000E+00 0. -1.
         11    1    4    4    0    0 -0.46951539041E+02 -0.11941148678E+02 -0.12158915192E+03  0.13088529297E+03  0.00000000000E+00 0.  1.
<mgrwt>
<rscale>  0 0.11711177E+03</rscale>
<asrwt>0</asrwt>
<pdfrwt beam="2">  1        1 0.36612893E-01 0.12584489E+03</pdfrwt>
<pdfrwt beam="1">  1       -1 0.11438993E-01 0.12584489E+03</pdfrwt>
<totfact> 0.55206739E+03</totfact>
</mgrwt>
</event>
<event>
 8    1  0.1646661E-005  0.1446640E+03  0.7546771E-02  0.1217597E+00
         -1   -1    0    0    0  501 -0.00000000000E+00  0.00000000000E+00  0.31300291790E+02  0.31300291790E+02  0.00000000000E+00 0.  1.
          1   -1    0    0  501    0  0.00000000000E+00 -0.00000000000E+00 -0.54426659795E+03  0.54426659795E+03  0.00000000000E+00 0. -1.
         23    2    1    2    0    0  0.58612381358E+02 -0.43212394624E+02 -0.26801874417E+03  0.30456810741E+03  0.12499985012E+03 0.  0.
         23    2    1    2    0    0 -0.58612381358E+02  0.43212394624E+02 -0.24494756199E+03  0.27099878233E+03  0.90212580052E+02 0.  0.
          5    1    3    3  502    0  0.29450754618E+02  0.14645700471E+02 -0.22316707136E+03  0.22562684953E+03  0.47000000000E+01 0.  1.
         -5    1    3    3    0  502  0.29161626740E+02 -0.57858095095E+02 -0.44851672805E+02  0.78941257879E+02  0.47000000000E+01 0.  1.
        -11    1    4    4    0    0 -0.25275077708E+02  0.43888380518E+02 -0.22807168665E+03  0.23362729667E+03  0.00000000000E+00 0. -1.
         11    1    4    4    0    0 -0.33337303650E+02 -0.67598589385E+00 -0.16875875338E+02  0.37371485654E+02  0.00000000000E+00 0.  1.
<mgrwt>
<rscale>  0 0.13687512E+03</rscale>
<asrwt>0</asrwt>
<pdfrwt beam="2">  1        1 0.83733312E-01 0.14466404E+03</pdfrwt>
<pdfrwt beam="1">  1       -1 0.48154301E-02 0.14466404E+03</pdfrwt>
<totfact> 0.72177092E+03</totfact>
</mgrwt>
</event>
<event>
 8    1  0.1646661E-005  0.1286961E+03  0.7546771E-02  0.1243837E+00
          4   -1    0    0  501    0  0.00000000000E+00  0.00000000000E+00  0.12071747977E+03  0.12071747977E+03  0.00000000000E+00 0. -1.
         -4   -1    0    0    0  501 -0.00000000000E+00 -0.00000000000E+00 -0.11599172500E+03  0.11599172500E+03  0.00000000000E+00 0.  1.
         23    2    1    2    0    0 -0.17505811529E+02  0.25132167790E+02 -0.34366214997E+02  0.13320558667E+03  0.12499844916E+03 0.  0.
         23    2    1    2    0    0  0.17505811529E+02 -0.25132167790E+02  0.39091969772E+02  0.10350361810E+03  0.90811549724E+02 0.  0.
          5    1    3    3  502    0 -0.48026248477E+02  0.84501575444E+01 -0.68520462306E+02  0.84232235278E+02  0.47000000000E+01 0.  1.
         -5    1    3    3    0  502  0.30520436948E+02  0.16682010246E+02  0.34154247309E+02  0.48973351392E+02  0.47000000000E+01 0.  1.
        -11    1    4    4    0    0  0.38193671710E+02 -0.48610727952E+02  0.13981466649E+02  0.63381707459E+02  0.00000000000E+00 0.  1.
         11    1    4    4    0    0 -0.20687860181E+02  0.23478560162E+02  0.25110503122E+02  0.40121910638E+02  0.00000000000E+00 0. -1.
<mgrwt>
<rscale>  0 0.11955229E+03</rscale>
<asrwt>0</asrwt>
<pdfrwt beam="1">  1        4 0.18571920E-01 0.12869612E+03</pdfrwt>
<pdfrwt beam="2">  1       -4 0.17844881E-01 0.12869612E+03</pdfrwt>
<totfact> 0.11645353E+03</totfact>
</mgrwt>
</event>
<event>
 8    1  0.1646661E-005  0.1325201E+03  0.7546771E-02  0.1235627E+00
         -1   -1    0    0    0  501 -0.00000000000E+00  0.00000000000E+00  0.44135531096E+03  0.44135531096E+03  0.00000000000E+00 0.  1.
          1   -1    0    0  501    0  0.00000000000E+00 -0.00000000000E+00 -0.31707838488E+02  0.31707838488E+02  0.00000000000E+00 0. -1.
         23    2    1    2    0    0  0.32291491660E+02  0.29883355390E+02  0.24269555826E+03  0.27651890645E+03  0.12500326500E+03 0.  0.
         23    2    1    2    0    0 -0.32291491660E+02 -0.29883355390E+02  0.16695191421E+03  0.19654424300E+03  0.93919872416E+02 0.  0.
          5    1    3    3  502    0  0.88684996000E+00  0.46044157700E+02  0.19059051106E+02  0.50061845653E+02  0.47000000000E+01 0. -1.
         -5    1    3    3    0  502  0.31404641700E+02 -0.16160802310E+02  0.22363650716E+03  0.22645706080E+03  0.47000000000E+01 0. -1.
        -11    1    4    4    0    0  0.32982431436E+02 -0.15742320605E+02  0.67260818991E+02  0.76548541546E+02  0.00000000000E+00 0. -1.
         11    1    4    4    0    0 -0.65273923097E+02 -0.14141034784E+02  0.99691095220E+02  0.11999570145E+03  0.00000000000E+00 0.  1.
<mgrwt>
<rscale>  0 0.12464393E+03</rscale>
<asrwt>0</asrwt>
<pdfrwt beam="2">  1        1 0.48781293E-02 0.13252008E+03</pdfrwt>
<pdfrwt beam="1">  1       -1 0.67900813E-01 0.13252008E+03</pdfrwt>
<totfact> 0.37620168E+03</totfact>
</mgrwt>
</event>
<event>
 8    1  0.1646661E-005  0.1331082E+03  0.7546771E-02  0.1235874E+00
         -1   -1    0    0    0  501 -0.00000000000E+00  0.00000000000E+00  0.51380834906E+02  0.51380834906E+02  0.00000000000E+00 0.  1.
          1   -1    0    0  501    0  0.00000000000E+00 -0.00000000000E+00 -0.27599052886E+03  0.27599052886E+03  0.00000000000E+00 0. -1.
         23    2    1    2    0    0 -0.45565283175E+02 -0.41192012616E+01 -0.10023502964E+03  0.16662786154E+03  0.12499848090E+03 0.  0.
         23    2    1    2    0    0  0.45565283175E+02  0.41192012616E+01 -0.12437466432E+03  0.16074350223E+03  0.90973916777E+02 0.  0.
          5    1    3    3  502    0  0.31370220506E+02 -0.36978693645E+02 -0.29364371442E+02  0.56884715245E+02  0.47000000000E+01 0. -1.
         -5    1    3    3    0  502 -0.76935503681E+02  0.32859492383E+02 -0.70870658196E+02  0.10974314630E+03  0.47000000000E+01 0. -1.
        -11    1    4    4    0    0  0.51674209798E+02  0.36812635277E+02 -0.55649588360E+02  0.84393546904E+02  0.00000000000E+00 0.  1.
         11    1    4    4    0    0 -0.61089266235E+01 -0.32693434016E+02 -0.68725075960E+02  0.76349955324E+02  0.00000000000E+00 0. -1.
<mgrwt>
<rscale>  0 0.12448666E+03</rscale>
<asrwt>0</asrwt>
<pdfrwt beam="2">  1        1 0.42460080E-01 0.13310816E+03</pdfrwt>
<pdfrwt beam="1">  1       -1 0.79047440E-02 0.13310816E+03</pdfrwt>
<totfact> 0.80958397E+03</totfact>
</mgrwt>
</event>
<event>
 7    1  0.1646661E-005  0.1810030E+03  0.7546771E-02  0.1176551E+00
         -2   -1    0    0    0  501 -0.00000000000E+00  0.00000000000E+00  0.30347341200E+02  0.30347341200E+02  0.00000000000E+00 0.  1.
          2   -1    0    0  501    0  0.00000000000E+00 -0.00000000000E+00 -0.92035898580E+03  0.92035898580E+03  0.00000000000E+00 0. -1.
         23    2    1    2    0    0  0.92230015008E+02  0.60522407562E+02 -0.50241823448E+03  0.52293217985E+03  0.94152243232E+02 0.  0.
          5    1    1    2  502    0 -0.91688325044E+02 -0.92045153967E+02 -0.36816500928E+03  0.39044413605E+03  0.47000000000E+01 0. -1.
         -5    1    1    2    0  502 -0.54168996388E+00  0.31522746405E+02 -0.19428400838E+02  0.37330011091E+02  0.47000000000E+01 0.  1.
        -11    1    3    3    0    0 -0.17257247419E+02  0.23514502633E+02 -0.88555442592E+02  0.93235244598E+02  0.00000000000E+00 0. -1.
         11    1    3    3    0    0  0.10948726243E+03  0.37007904929E+02 -0.41386279188E+03  0.42969693525E+03  0.00000000000E+00 0.  1.
<mgrwt>
<rscale>  0 0.17124955E+03</rscale>
<asrwt>0</asrwt>
<pdfrwt beam="2">  1        2 0.14159368E+00 0.18100295E+03</pdfrwt>
<pdfrwt beam="1">  1       -2 0.46688222E-02 0.18100295E+03</pdfrwt>
<totfact> 0.62951943E+03</totfact>
</mgrwt>
</event>
<event>
 8    1  0.1646661E-005  0.1820232E+03  0.7546771E-02  0.1171509E+00
          2   -1    0    0  501    0  0.00000000000E+00  0.00000000000E+00  0.72939729285E+03  0.72939729285E+03  0.00000000000E+00 0. -1.
         -2   -1    0    0    0  501 -0.00000000000E+00 -0.00000000000E+00 -0.43945190081E+02  0.43945190081E+02  0.00000000000E+00 0.  1.
         23    2    1    2    0    0  0.91183605854E+02  0.95877738901E+02  0.24838790960E+03  0.30794320002E+03  0.12500188003E+03 0.  0.
         23    2    1    2    0    0 -0.91183605854E+02 -0.95877738901E+02  0.43706419317E+03  0.46539928291E+03  0.89801964283E+02 0.  0.
          5    1    3    3  502    0  0.62038657955E+02 -0.60417144658E+01  0.40331015686E+02  0.74390713270E+02  0.47000000000E+01 0. -1.
         -5    1    3    3    0  502  0.29144947899E+02  0.10191945337E+03  0.20805689391E+03  0.23355248675E+03  0.47000000000E+01 0. -1.
        -11    1    4    4    0    0 -0.56489590647E+02 -0.16211876746E+02  0.27804599222E+03  0.28418914932E+03  0.00000000000E+00 0.  1.
         11    1    4    4    0    0 -0.34694015207E+02 -0.79665862155E+02  0.15901820095E+03  0.18121013359E+03  0.00000000000E+00 0. -1.
<mgrwt>
<rscale>  0 0.17622374E+03</rscale>
<asrwt>0</asrwt>
<pdfrwt beam="1">  1        2 0.11221496E+00 0.18202324E+03</pdfrwt>
<pdfrwt beam="2">  1       -2 0.67607990E-02 0.18202324E+03</pdfrwt>
<totfact> 0.48190413E+03</totfact>
</mgrwt>
</event>
<event>
 8    1  0.1646661E-005  0.1795142E+03  0.7546771E-02  0.1173611E+00
          2   -1    0    0  501    0  0.00000000000E+00  0.00000000000E+00  0.84293568900E+03  0.84293568900E+03  0.00000000000E+00 0. -1.
         -2   -1    0    0    0  501 -0.00000000000E+00 -0.00000000000E+00 -0.34117583307E+02  0.34117583307E+02  0.00000000000E+00 0.  1.
         23    2    1    2    0    0 -0.34302593392E+02  0.12417223657E+03  0.40002936166E+03  0.43846189051E+03  0.12501970640E+03 0.  0.
         23    2    1    2    0    0  0.34302593392E+02 -0.12417223657E+03  0.40878874402E+03  0.43859138179E+03  0.93052408311E+02 0.  0.
          5    1    3    3  502    0  0.39126168182E+02  0.53724854331E+01  0.87721794244E+02  0.96316788889E+02  0.47000000000E+01 0. -1.
         -5    1    3    3    0  502 -0.73428761574E+02  0.11879975114E+03  0.31230756742E+03  0.34214510162E+03  0.47000000000E+01 0. -1.
        -11    1    4    4    0    0 -0.87327814302E+01 -0.75365077928E+02  0.11563438779E+03  0.13830208994E+03  0.00000000000E+00 0.  1.
         11    1    4    4    0    0  0.43035374822E+02 -0.48807158644E+02  0.29315435623E+03  0.30028929185E+03  0.00000000000E+00 0. -1.
<mgrwt>
<rscale>  0 0.17412683E+03</rscale>
<asrwt>0</asrwt>
<pdfrwt beam="1">  1        2 0.12968240E+00 0.17951418E+03</pdfrwt>
<pdfrwt beam="2">  1       -2 0.52488596E-02 0.17951418E+03</pdfrwt>
<totfact> 0.59156507E+03</totfact>
</mgrwt>
</event>
<event>
 8    1  0.1646661E-005  0.1765144E+03  0.7546771E-02  0.1178713E+00
          2   -1    0    0  501    0  0.00000000000E+00  0.00000000000E+00  0.87196256736E+02  0.87196256736E+02  0.00000000000E+00 0.  1.
         -2   -1    0    0    0  501 -0.00000000000E+00 -0.00000000000E+00 -0.31233729679E+03  0.31233729679E+03  0.00000000000E+00 0. -1.
         23    2    1    2    0    0 -0.11323998234E+03  0.52051245536E+02 -0.15501493107E+03  0.23491903697E+03  0.12499879726E+03 0.  0.
         23    2    1    2    0    0  0.11323998234E+03 -0.52051245536E+02 -0.70126108986E+02  0.16461451655E+03  0.81533073872E+02 0.  0.
          5    1    3    3  502    0 -0.11701440028E+02  0.71626601927E+02 -0.57600798939E+02  0.92775189791E+02  0.47000000000E+01 0. -1.
         -5    1    3    3    0  502 -0.10153854232E+03 -0.19575356391E+02 -0.97414132127E+02  0.14214384718E+03  0.47000000000E+01 0. -1.
        -11    1    4    4    0    0  0.61727760595E+01  0.16365499046E+02  0.33940666609E+01  0.17817194274E+02  0.00000000000E+00 0.  1.
         11    1    4    4    0    0  0.10706720628E+03 -0.68416744582E+02 -0.73520175647E+02  0.14679732228E+03  0.00000000000E+00 0. -1.
<mgrwt>
<rscale>  0 0.16917295E+03</rscale>
<asrwt>0</asrwt>
<pdfrwt beam="1">  1        2 0.13414809E-01 0.17651438E+03</pdfrwt>
<pdfrwt beam="2">  1       -2 0.48051892E-01 0.17651438E+03</pdfrwt>
<totfact> 0.18199050E+03</totfact>
</mgrwt>
</event>
<event>
 8    1  0.1646661E-005  0.1377432E+03  0.7546771E-02  0.1227602E+00
          2   -1    0    0  501    0  0.00000000000E+00  0.00000000000E+00  0.14176973998E+03  0.14176973998E+03  0.00000000000E+00 0. -1.
         -2   -1    0    0    0  501 -0.00000000000E+00 -0.00000000000E+00 -0.10877666427E+03  0.10877666427E+03  0.00000000000E+00 0.  1.
         23    2    1    2    0    0 -0.38579993914E+02 -0.43167085318E+02  0.40083103464E+01  0.13780146345E+03  0.12498545352E+03 0.  0.
         23    2    1    2    0    0  0.38579993914E+02  0.43167085318E+02  0.28984765373E+02  0.11274494081E+03  0.92301093538E+02 0.  0.
          5    1    3    3  502    0 -0.32123058811E+02 -0.82013613895E+02 -0.21318628523E+02  0.90745235101E+02  0.47000000000E+01 0.  1.
         -5    1    3    3    0  502 -0.64569351031E+01  0.38846528577E+02  0.25326938869E+02  0.47056228344E+02  0.47000000000E+01 0.  1.
        -11    1    4    4    0    0 -0.16550687033E+02 -0.16908750386E+02  0.19492472281E+02  0.30655954666E+02  0.00000000000E+00 0. -1.
         11    1    4    4    0    0  0.55130680947E+02  0.60075835704E+02  0.94922930916E+01  0.82088986139E+02  0.00000000000E+00 0.  1.
<mgrwt>
<rscale>  0 0.12990170E+03</rscale>
<asrwt>0</asrwt>
<pdfrwt beam="1">  1        2 0.21810729E-01 0.13774316E+03</pdfrwt>
<pdfrwt beam="2">  1       -2 0.16734871E-01 0.13774316E+03</pdfrwt>
<totfact> 0.67973686E+03</totfact>
</mgrwt>
</event>
<event>
 8    1  0.1646661E-005  0.1852393E+03  0.7546771E-02  0.1167839E+00
         -2   -1    0    0    0  501 -0.00000000000E+00  0.00000000000E+00  0.99124103971E+02  0.99124103971E+02  0.00000000000E+00 0.  1.
          2   -1    0    0  501    0  0.00000000000E+00 -0.00000000000E+00 -0.54567328472E+03  0.54567328472E+03  0.00000000000E+00 0. -1.
         23    2    1    2    0    0  0.88754956586E+02 -0.10405948842E+03 -0.18643792726E+02  0.18617511722E+03  0.12493103625E+03 0.  0.
         23    2    1    2    0    0 -0.88754956586E+02  0.10405948842E+03 -0.42790538802E+03  0.45862227147E+03  0.92333890530E+02 0.  0.
          5    1    3    3  502    0  0.48836590503E+02 -0.10282203003E+02 -0.58142303376E+02  0.76768181641E+02  0.47000000000E+01 0. -1.
         -5    1    3    3    0  502  0.39918366082E+02 -0.93777285412E+02  0.39498510650E+02  0.10940693558E+03  0.47000000000E+01 0. -1.
        -11    1    4    4    0    0 -0.48512712701E+02 -0.48942813889E+00 -0.18281188836E+03  0.18913992005E+03  0.00000000000E+00 0.  1.
         11    1    4    4    0    0 -0.40242243885E+02  0.10454891655E+03 -0.24509349967E+03  0.26948235142E+03  0.00000000000E+00 0. -1.
<mgrwt>
<rscale>  0 0.17996310E+03</rscale>
<asrwt>0</asrwt>
<pdfrwt beam="2">  1        2 0.83949736E-01 0.18523926E+03</pdfrwt>
<pdfrwt beam="1">  1       -2 0.15249862E-01 0.18523926E+03</pdfrwt>
<totfact> 0.18605842E+03</totfact>
</mgrwt>
</event>
<event>
 8    1  0.1646661E-005  0.1316374E+03  0.7546771E-02  0.1238012E+00
         -2   -1    0    0    0  501 -0.00000000000E+00  0.00000000000E+00  0.43912147657E+02  0.43912147657E+02  0.00000000000E+00 0.  1.
          2   -1    0    0  501    0  0.00000000000E+00 -0.00000000000E+00 -0.31460840391E+03  0.31460840391E+03  0.00000000000E+00 0. -1.
         23    2    1    2    0    0 -0.10342115528E+02  0.39964438609E+02 -0.12629089767E+03  0.18242201784E+03  0.12499714418E+03 0.  0.
         23    2    1    2    0    0  0.10342115528E+02 -0.39964438609E+02 -0.14440535859E+03  0.17609853373E+03  0.91943843102E+02 0.  0.
          5    1    3    3  502    0  0.25606703795E+02  0.73154996099E+02 -0.10022497737E+03  0.12678522320E+03  0.47000000000E+01 0.  1.
         -5    1    3    3    0  502 -0.35948819324E+02 -0.33190557489E+02 -0.26065920300E+02  0.55636794645E+02  0.47000000000E+01 0.  1.
        -11    1    4    4    0    0  0.10032969154E+02 -0.57783696408E+01  0.11601070549E+02  0.16390084308E+02  0.00000000000E+00 0.  1.
         11    1    4    4    0    0  0.30914637481E+00 -0.34186068968E+02 -0.15600642914E+03  0.15970844942E+03  0.00000000000E+00 0. -1.
<mgrwt>
<rscale>  0 0.12313580E+03</rscale>
<asrwt>0</asrwt>
<pdfrwt beam="2">  1        2 0.48401293E-01 0.13163739E+03</pdfrwt>
<pdfrwt beam="1">  1       -2 0.67557150E-02 0.13163739E+03</pdfrwt>
<totfact> 0.12034221E+04</totfact>
</mgrwt>
</event>
<event>
 8    1  0.1646661E-005  0.1370252E+03  0.7546771E-02  0.1229056E+00
          3   -1    0    0  501    0  0.00000000000E+00  0.00000000000E+00  0.25614470567E+02  0.25614470567E+02  0.00000000000E+00 0. -1.
         -3   -1    0    0    0  501 -0.00000000000E+00 -0.00000000000E+00 -0.59482144529E+03  0.59482144529E+03  0.00000000000E+00 0.  1.
         23    2    1    2    0    0 -0.23729268193E+02  0.50865728739E+02 -0.36169946736E+03  0.38678472323E+03  0.12500206762E+03 0.  0.
         23    2    1    2    0    0  0.23729268193E+02 -0.50865728739E+02 -0.20750750737E+03  0.23365119263E+03  0.91559345092E+02 0.  0.
          5    1    3    3  502    0  0.35596547792E+02 -0.21290962464E+01 -0.23043625669E+03  0.23322651149E+03  0.47000000000E+01 0.  1.
         -5    1    3    3    0  502 -0.59325815984E+02  0.52994824986E+02 -0.13126321067E+03  0.15355821174E+03  0.47000000000E+01 0.  1.
        -11    1    4    4    0    0  0.21220340664E+02  0.17810384337E+02 -0.11570805420E+03  0.11897842853E+03  0.00000000000E+00 0.  1.
         11    1    4    4    0    0  0.25089275291E+01 -0.68676113076E+02 -0.91799453165E+02  0.11467276410E+03  0.00000000000E+00 0. -1.
<mgrwt>
<rscale>  0 0.12892752E+03</rscale>
<asrwt>0</asrwt>
<pdfrwt beam="1">  1        3 0.39406881E-02 0.13702524E+03</pdfrwt>
<pdfrwt beam="2">  1       -3 0.91510985E-01 0.13702524E+03</pdfrwt>
<totfact> 0.85139633E+02</totfact>
</mgrwt>
</event>
<event>
 8    1  0.1646661E-005  0.1258878E+03  0.7546771E-02  0.1248554E+00
          3   -1    0    0  501    0  0.00000000000E+00  0.00000000000E+00  0.16891158783E+03  0.16891158783E+03  0.00000000000E+00 0. -1.
         -3   -1    0    0    0  501 -0.00000000000E+00 -0.00000000000E+00 -0.76081693208E+02  0.76081693208E+02  0.00000000000E+00 0.  1.
         23    2    1    2    0    0  0.82777268371E+01  0.12350446978E+02  0.21561446706E+02  0.12772093192E+03  0.12500674447E+03 0.  0.
         23    2    1    2    0    0 -0.82777268371E+01 -0.12350446978E+02  0.71268447916E+02  0.11727234912E+03  0.91937793631E+02 0.  0.
          5    1    3    3  502    0  0.12768651819E+02  0.66781541054E+02 -0.16930036670E+01  0.68174547715E+02  0.47000000000E+01 0. -1.
         -5    1    3    3    0  502 -0.44909249816E+01 -0.54431094075E+02  0.23254450373E+02  0.59546384203E+02  0.47000000000E+01 0. -1.
        -11    1    4    4    0    0  0.97821141358E+01 -0.40265350447E+02  0.32510208579E+01  0.41563894671E+02  0.00000000000E+00 0.  1.
         11    1    4    4    0    0 -0.18059840973E+02  0.27914903469E+02  0.68017427058E+02  0.75708454450E+02  0.00000000000E+00 0. -1.
<mgrwt>
<rscale>  0 0.11675158E+03</rscale>
<asrwt>0</asrwt>
<pdfrwt beam="1">  1        3 0.25986398E-01 0.12588781E+03</pdfrwt>
<pdfrwt beam="2">  1       -3 0.11704876E-01 0.12588781E+03</pdfrwt>
<totfact> 0.17963354E+03</totfact>
</mgrwt>
</event>
<event>
 8    1  0.1646661E-005  0.1357387E+03  0.7546771E-02  0.1231314E+00
         -3   -1    0    0    0  501 -0.00000000000E+00  0.00000000000E+00  0.86515195618E+03  0.86515195618E+03  0.00000000000E+00 0.  1.
          3   -1    0    0  501    0  0.00000000000E+00 -0.00000000000E+00 -0.18650847712E+02  0.18650847712E+02  0.00000000000E+00 0. -1.
         23    2    1    2    0    0  0.46923648966E+02  0.24384744085E+02  0.60903850113E+03  0.62398148152E+03  0.12501419460E+03 0.  0.
         23    2    1    2    0    0 -0.46923648966E+02 -0.24384744085E+02  0.23746260734E+03  0.25982132237E+03  0.91226011076E+02 0.  0.
          5    1    3    3  502    0 -0.25908822356E+02  0.17459581364E+01  0.40890899190E+03  0.40975964797E+03  0.47000000000E+01 0. -1.
         -5    1    3    3    0  502  0.72832471322E+02  0.22638785948E+02  0.20012950922E+03  0.21422183355E+03  0.47000000000E+01 0. -1.
        -11    1    4    4    0    0  0.67303977810E+01  0.19209450685E+02  0.11198340945E+02  0.23231532232E+02  0.00000000000E+00 0. -1.
         11    1    4    4    0    0 -0.53654046747E+02 -0.43594194770E+02  0.22626426640E+03  0.23658979014E+03  0.00000000000E+00 0.  1.
<mgrwt>
<rscale>  0 0.12743366E+03</rscale>
<asrwt>0</asrwt>
<pdfrwt beam="2">  1        3 0.28693619E-02 0.13573870E+03</pdfrwt>
<pdfrwt beam="1">  1       -3 0.13310027E+00 0.13573870E+03</pdfrwt>
<totfact> 0.58382204E+02</totfact>
</mgrwt>
</event>
<event>
 8    1  0.1646661E-005  0.1263354E+03  0.7546771E-02  0.1247957E+00
         -2   -1    0    0    0  501 -0.00000000000E+00  0.00000000000E+00  0.68916037856E+02  0.68916037856E+02  0.00000000000E+00 0.  1.
          2   -1    0    0  501    0  0.00000000000E+00 -0.00000000000E+00 -0.17492548801E+03  0.17492548801E+03  0.00000000000E+00 0. -1.
         23    2    1    2    0    0  0.18302895959E+02 -0.95969589885E+00 -0.60487729552E+02  0.14006926537E+03  0.12499886663E+03 0.  0.
         23    2    1    2    0    0 -0.18302895959E+02  0.95969589885E+00 -0.45521720602E+02  0.10377226050E+03  0.91435977520E+02 0.  0.
          5    1    3    3  502    0 -0.81482290463E+01 -0.53610011744E+02 -0.59930905702E+02  0.80958201895E+02  0.47000000000E+01 0. -1.
         -5    1    3    3    0  502  0.26451125005E+02  0.52650315845E+02 -0.55682384983E+00  0.59111063477E+02  0.47000000000E+01 0. -1.
        -11    1    4    4    0    0  0.18650751285E+01  0.44809698996E+02 -0.24775035144E+02  0.51236607965E+02  0.00000000000E+00 0.  1.
         11    1    4    4    0    0 -0.20167971087E+02 -0.43850003097E+02 -0.20746685458E+02  0.52535652531E+02  0.00000000000E+00 0. -1.
<mgrwt>
<rscale>  0 0.11710126E+03</rscale>
<asrwt>0</asrwt>
<pdfrwt beam="2">  1        2 0.26911614E-01 0.12633540E+03</pdfrwt>
<pdfrwt beam="1">  1       -2 0.10602467E-01 0.12633540E+03</pdfrwt>
<totfact> 0.11176314E+04</totfact>
</mgrwt>
</event>
<event>
 8    1  0.1646661E-005  0.1378364E+03  0.7546771E-02  0.1228450E+00
         -1   -1    0    0    0  501 -0.00000000000E+00  0.00000000000E+00  0.31024302006E+02  0.31024302006E+02  0.00000000000E+00 0.  1.
          1   -1    0    0  501    0  0.00000000000E+00 -0.00000000000E+00 -0.60154556403E+03  0.60154556403E+03  0.00000000000E+00 0. -1.
         23    2    1    2    0    0 -0.57329187393E+02 -0.94765175212E+01 -0.17440036971E+03  0.22229340803E+03  0.12498972032E+03 0.  0.
         23    2    1    2    0    0  0.57329187393E+02  0.94765175212E+01 -0.39612089231E+03  0.41027645800E+03  0.89658075812E+02 0.  0.
          5    1    3    3  502    0 -0.44654803289E+02  0.83716591006E+01  0.78611926469E+00  0.45681988971E+02  0.47000000000E+01 0.  1.
         -5    1    3    3    0  502 -0.12674384104E+02 -0.17848176622E+02 -0.17518648898E+03  0.17661141906E+03  0.47000000000E+01 0.  1.
        -11    1    4    4    0    0  0.18903522939E+02  0.44738871523E+02 -0.26018455502E+03  0.26467888559E+03  0.00000000000E+00 0.  1.
         11    1    4    4    0    0  0.38425664454E+02 -0.35262354002E+02 -0.13593633728E+03  0.14559757241E+03  0.00000000000E+00 0. -1.
<mgrwt>
<rscale>  0 0.12933244E+03</rscale>
<asrwt>0</asrwt>
<pdfrwt beam="2">  1        1 0.92545466E-01 0.13783639E+03</pdfrwt>
<pdfrwt beam="1">  1       -1 0.47729698E-02 0.13783639E+03</pdfrwt>
<totfact> 0.63736027E+03</totfact>
</mgrwt>
</event>
<event>
 7    1  0.1646661E-005  0.3671999E+03  0.7546771E-02  0.1055769E+00
         -2   -1    0    0    0  501 -0.00000000000E+00  0.00000000000E+00  0.60519762558E+02  0.60519762558E+02  0.00000000000E+00 0.  1.
          2   -1    0    0  501    0  0.00000000000E+00 -0.00000000000E+00 -0.55699073616E+03  0.55699073616E+03  0.00000000000E+00 0. -1.
         23    2    1    2    0    0  0.57148932392E+02  0.11977182058E+01 -0.24108568062E+03  0.26421174824E+03  0.91750245255E+02 0.  0.
          5    1    1    2  502    0  0.33623317171E+02 -0.22291151995E+02 -0.25678693749E+03  0.25997893026E+03  0.47000000000E+01 0. -1.
         -5    1    1    2    0  502 -0.90772249564E+02  0.21093433789E+02  0.14016444980E+01  0.93319820227E+02  0.47000000000E+01 0.  1.
        -11    1    3    3    0    0  0.82541564926E+02  0.10353751352E+01 -0.19025279654E+03  0.20738926812E+03  0.00000000000E+00 0.  1.
         11    1    3    3    0    0 -0.25392632534E+02  0.16234307055E+00 -0.50832884081E+02  0.56822480113E+02  0.00000000000E+00 0. -1.
<mgrwt>
<rscale>  0 0.36719993E+03</rscale>
<asrwt>0</asrwt>
<pdfrwt beam="2">  1        2 0.85690881E-01 0.36719993E+03</pdfrwt>
<pdfrwt beam="1">  1       -2 0.93107328E-02 0.36719993E+03</pdfrwt>
<totfact> 0.41119033E+03</totfact>
</mgrwt>
</event>
<event>
 8    1  0.1646661E-005  0.1270701E+03  0.7546771E-02  0.1261493E+00
          2   -1    0    0  501    0  0.00000000000E+00  0.00000000000E+00  0.11557920176E+03  0.11557920176E+03  0.00000000000E+00 0. -1.
         -2   -1    0    0    0  501 -0.00000000000E+00 -0.00000000000E+00 -0.10096418792E+03  0.10096418792E+03  0.00000000000E+00 0.  1.
         23    2    1    2    0    0  0.23680880272E+01  0.22726723407E+02 -0.33653658768E+02  0.13145109502E+03  0.12499883934E+03 0.  0.
         23    2    1    2    0    0 -0.23680880272E+01 -0.22726723407E+02  0.48268672600E+02  0.85092294657E+02  0.66247430574E+02 0.  0.
          5    1    3    3  502    0  0.10265258165E+02 -0.45250207193E+02  0.13094482632E+02  0.48440811839E+02  0.47000000000E+01 0.  1.
         -5    1    3    3    0  502 -0.78971701377E+01  0.67976930600E+02 -0.46748141400E+02  0.83010283184E+02  0.47000000000E+01 0.  1.
        -11    1    4    4    0    0  0.28962734058E+02 -0.64430165244E+01  0.38211041340E+02  0.48378053974E+02  0.00000000000E+00 0.  1.
         11    1    4    4    0    0 -0.31330822085E+02 -0.16283706882E+02  0.10057631260E+02  0.36714240683E+02  0.00000000000E+00 0. -1.
<mgrwt>
<rscale>  0 0.10950326E+03</rscale>
<asrwt>0</asrwt>
<pdfrwt beam="1">  1        2 0.17781416E-01 0.12707014E+03</pdfrwt>
<pdfrwt beam="2">  1       -2 0.15532952E-01 0.12707014E+03</pdfrwt>
<totfact> 0.96241677E+03</totfact>
</mgrwt>
</event>
<event>
 8    1  0.1646661E-005  0.1498843E+03  0.7546771E-02  0.1211453E+00
         -1   -1    0    0    0  501 -0.00000000000E+00  0.00000000000E+00  0.50215207222E+02  0.50215207222E+02  0.00000000000E+00 0.  1.
          1   -1    0    0  501    0  0.00000000000E+00 -0.00000000000E+00 -0.35923240142E+03  0.35923240142E+03  0.00000000000E+00 0. -1.
         23    2    1    2    0    0 -0.25851281891E+02 -0.78596621218E+02 -0.17319299836E+03  0.22904391360E+03  0.12497832625E+03 0.  0.
         23    2    1    2    0    0  0.25851281891E+02  0.78596621218E+02 -0.13582419584E+03  0.18040369505E+03  0.85156111756E+02 0.  0.
          5    1    3    3  502    0  0.14656360149E+02 -0.56795765435E+02 -0.17307271672E+03  0.18280268909E+03  0.47000000000E+01 0. -1.
         -5    1    3    3    0  502 -0.40507642040E+02 -0.21800855783E+02 -0.12028164116E+00  0.46241224510E+02  0.47000000000E+01 0. -1.
        -11    1    4    4    0    0  0.50647428613E+02  0.58921207816E+02 -0.59776149327E+02  0.98030907289E+02  0.00000000000E+00 0.  1.
         11    1    4    4    0    0 -0.24796146723E+02  0.19675413403E+02 -0.76048046512E+02  0.82372787758E+02  0.00000000000E+00 0. -1.
<mgrwt>
<rscale>  0 0.14140312E+03</rscale>
<asrwt>0</asrwt>
<pdfrwt beam="2">  1        1 0.55266524E-01 0.14988429E+03</pdfrwt>
<pdfrwt beam="1">  1       -1 0.77254165E-02 0.14988429E+03</pdfrwt>
<totfact> 0.60863329E+03</totfact>
</mgrwt>
</event>
<event>
 8    1  0.1646661E-005  0.1513730E+03  0.7546771E-02  0.1207652E+00
          1   -1    0    0  501    0  0.00000000000E+00  0.00000000000E+00  0.11483797509E+03  0.11483797509E+03  0.00000000000E+00 0. -1.
         -1   -1    0    0    0  501 -0.00000000000E+00 -0.00000000000E+00 -0.22756427584E+03  0.22756427584E+03  0.00000000000E+00 0.  1.
         23    2    1    2    0    0 -0.72487738011E+02 -0.45131754808E+02 -0.14882235903E+03  0.21227784296E+03  0.12498976203E+03 0.  0.
         23    2    1    2    0    0  0.72487738011E+02  0.45131754808E+02  0.36096058275E+02  0.13012440797E+03  0.91313135266E+02 0.  0.
          5    1    3    3  502    0  0.15942141433E+02  0.17978352261E+02  0.39048786501E+01  0.24793368080E+02  0.47000000000E+01 0.  1.
         -5    1    3    3    0  502 -0.88429879444E+02 -0.63110107068E+02 -0.15272723768E+03  0.18748447488E+03  0.47000000000E+01 0.  1.
        -11    1    4    4    0    0  0.53406007858E+02  0.71504207648E+02  0.39095647920E+02  0.97434711848E+02  0.00000000000E+00 0.  1.
         11    1    4    4    0    0  0.19081730153E+02 -0.26372452840E+02 -0.29995896443E+01  0.32689696120E+02  0.00000000000E+00 0. -1.
<mgrwt>
<rscale>  0 0.14430429E+03</rscale>
<asrwt>0</asrwt>
<pdfrwt beam="1">  1        1 0.17667381E-01 0.15137301E+03</pdfrwt>
<pdfrwt beam="2">  1       -1 0.35009888E-01 0.15137301E+03</pdfrwt>
<totfact> 0.22903040E+03</totfact>
</mgrwt>
</event>
<event>
 8    1  0.1646661E-005  0.1869802E+03  0.7546771E-02  0.1167150E+00
         -1   -1    0    0    0  501 -0.00000000000E+00  0.00000000000E+00  0.46535725388E+03  0.46535725388E+03  0.00000000000E+00 0. -1.
          1   -1    0    0  501    0  0.00000000000E+00 -0.00000000000E+00 -0.66041713364E+02  0.66041713364E+02  0.00000000000E+00 0.  1.
         23    2    1    2    0    0  0.12708168239E+03 -0.56397481520E+02  0.19744884793E+03  0.27193316377E+03  0.12502466993E+03 0.  0.
         23    2    1    2    0    0 -0.12708168239E+03  0.56397481520E+02  0.20186669259E+03  0.25946580347E+03  0.85099422294E+02 0.  0.
          5    1    3    3  502    0  0.11888658922E+03  0.94174664804E+01  0.14083928778E+03  0.18460905924E+03  0.47000000000E+01 0.  1.
         -5    1    3    3    0  502  0.81950931695E+01 -0.65814948001E+02  0.56609560147E+02  0.87324104533E+02  0.47000000000E+01 0.  1.
        -11    1    4    4    0    0 -0.10648242018E+03  0.35245771000E+02  0.90116405015E+02  0.14388098079E+03  0.00000000000E+00 0.  1.
         11    1    4    4    0    0 -0.20599262208E+02  0.21151710520E+02  0.11175028758E+03  0.11558482268E+03  0.00000000000E+00 0. -1.
<mgrwt>
<rscale>  0 0.18067600E+03</rscale>
<asrwt>0</asrwt>
<pdfrwt beam="2">  1        1 0.10160264E-01 0.18698021E+03</pdfrwt>
<pdfrwt beam="1">  1       -1 0.71593422E-01 0.18698021E+03</pdfrwt>
<totfact> 0.12739064E+03</totfact>
</mgrwt>
</event>
<event>
 8    1  0.1646661E-005  0.1468435E+03  0.7546771E-02  0.1213900E+00
         -3   -1    0    0    0  501 -0.00000000000E+00  0.00000000000E+00  0.38394794921E+02  0.38394794921E+02  0.00000000000E+00 0.  1.
          3   -1    0    0  501    0  0.00000000000E+00 -0.00000000000E+00 -0.46332644732E+03  0.46332644732E+03  0.00000000000E+00 0. -1.
         23    2    1    2    0    0 -0.38088069512E+02  0.66962678549E+02 -0.22921523961E+03  0.27221798291E+03  0.12501321046E+03 0.  0.
         23    2    1    2    0    0  0.38088069512E+02 -0.66962678549E+02 -0.19571641278E+03  0.22950325933E+03  0.91826632591E+02 0.  0.
          5    1    3    3  502    0 -0.54044597618E+02  0.30170682448E+02 -0.22285988717E+03  0.23134326859E+03  0.47000000000E+01 0. -1.
         -5    1    3    3    0  502  0.15956528105E+02  0.36791996101E+02 -0.63553524462E+01  0.40874714323E+02  0.47000000000E+01 0. -1.
        -11    1    4    4    0    0 -0.27425700248E+02 -0.38649807363E+02 -0.93658664034E+02  0.10496628979E+03  0.00000000000E+00 0. -1.
         11    1    4    4    0    0  0.65513769760E+02 -0.28312871186E+02 -0.10205774875E+03  0.12453696954E+03  0.00000000000E+00 0.  1.
<mgrwt>
<rscale>  0 0.13957611E+03</rscale>
<asrwt>0</asrwt>
<pdfrwt beam="2">  1        3 0.71280992E-01 0.14684347E+03</pdfrwt>
<pdfrwt beam="1">  1       -3 0.59068915E-02 0.14684347E+03</pdfrwt>
<totfact> 0.78242637E+02</totfact>
</mgrwt>
</event>
<event>
 8    1  0.1646661E-005  0.1980930E+03  0.7546771E-02  0.1155617E+00
          1   -1    0    0  501    0  0.00000000000E+00  0.00000000000E+00  0.41911519982E+02  0.41911519982E+02  0.00000000000E+00 0. -1.
         -1   -1    0    0    0  501 -0.00000000000E+00 -0.00000000000E+00 -0.85833558081E+03  0.85833558081E+03  0.00000000000E+00 0.  1.
         23    2    1    2    0    0 -0.13540791071E+03  0.72670392367E+02 -0.38174149977E+03  0.43007835854E+03  0.12499813448E+03 0.  0.
         23    2    1    2    0    0  0.13540791071E+03 -0.72670392367E+02 -0.43468256106E+03  0.47016874226E+03  0.92159801974E+02 0.  0.
          5    1    3    3  502    0 -0.61129837589E+02  0.88049764364E+02 -0.13823397371E+03  0.17498668388E+03  0.47000000000E+01 0.  1.
         -5    1    3    3    0  502 -0.74278073117E+02 -0.15379371997E+02 -0.24350752606E+03  0.25509167466E+03  0.47000000000E+01 0.  1.
        -11    1    4    4    0    0  0.15073474412E+02  0.66257945739E+01 -0.53780433162E+01  0.17321493425E+02  0.00000000000E+00 0. -1.
         11    1    4    4    0    0  0.12033443629E+03 -0.79296186941E+02 -0.42930451774E+03  0.45284724883E+03  0.00000000000E+00 0.  1.
<mgrwt>
<rscale>  0 0.19318853E+03</rscale>
<asrwt>0</asrwt>
<pdfrwt beam="1">  1        1 0.64479262E-02 0.19809296E+03</pdfrwt>
<pdfrwt beam="2">  1       -1 0.13205163E+00 0.19809296E+03</pdfrwt>
<totfact> 0.61090656E+02</totfact>
</mgrwt>
</event>
<event>
 8    1  0.1646661E-005  0.1141393E+03  0.7546771E-02  0.1265297E+00
         -2   -1    0    0    0  501 -0.00000000000E+00  0.00000000000E+00  0.13815300924E+03  0.13815300924E+03  0.00000000000E+00 0.  1.
          2   -1    0    0  501    0  0.00000000000E+00 -0.00000000000E+00 -0.21580194410E+03  0.21580194410E+03  0.00000000000E+00 0. -1.
         23    2    1    2    0    0 -0.10263913365E+02 -0.23934608049E+02  0.10203453564E+03  0.15309746257E+03  0.11112863359E+03 0.  0.
         23    2    1    2    0    0  0.10263913365E+02  0.23934608049E+02 -0.17968347050E+03  0.20085749076E+03  0.85903251659E+02 0.  0.
          5    1    3    3  502    0  0.50165832254E+02 -0.14369715192E+02  0.40780264647E+02  0.66394423148E+02  0.47000000000E+01 0. -1.
         -5    1    3    3    0  502 -0.60429745619E+02 -0.95648928574E+01  0.61254270991E+02  0.86703039425E+02  0.47000000000E+01 0.  1.
        -11    1    4    4    0    0 -0.26070309732E+02  0.12153919633E+02 -0.16285468546E+02  0.33054429321E+02  0.00000000000E+00 0.  1.
         11    1    4    4    0    0  0.36334223098E+02  0.11780688416E+02 -0.16339800195E+03  0.16780306144E+03  0.00000000000E+00 0. -1.
<mgrwt>
<rscale>  0 0.10748604E+03</rscale>
<asrwt>0</asrwt>
<pdfrwt beam="2">  1        2 0.33200299E-01 0.11413933E+03</pdfrwt>
<pdfrwt beam="1">  1       -2 0.21254309E-01 0.11413933E+03</pdfrwt>
<totfact> 0.28441517E+03</totfact>
</mgrwt>
</event>
<event>
 8    1  0.1646661E-005  0.1690203E+03  0.7546771E-02  0.1186866E+00
         -1   -1    0    0    0  501 -0.00000000000E+00  0.00000000000E+00  0.19537600760E+04  0.19537600760E+04  0.00000000000E+00 0.  1.
          1   -1    0    0  501    0  0.00000000000E+00 -0.00000000000E+00 -0.14241497457E+02  0.14241497457E+02  0.00000000000E+00 0. -1.
         23    2    1    2    0    0  0.10138234266E+03 -0.51393516371E+02  0.14041915075E+04  0.14143272757E+04  0.12509268591E+03 0.  0.
         23    2    1    2    0    0 -0.10138234266E+03  0.51393516371E+02  0.53532707104E+03  0.55367429778E+03  0.84026674926E+02 0.  0.
          5    1    3    3  502    0  0.11200007670E+03 -0.51090205780E+02  0.75134553954E+03  0.76137798504E+03  0.47000000000E+01 0.  1.
         -5    1    3    3    0  502 -0.10617734038E+02 -0.30331059138E+00  0.65284596800E+03  0.65294929068E+03  0.47000000000E+01 0.  1.
        -11    1    4    4    0    0 -0.11038166742E+03  0.46325854523E+02  0.52694929312E+03  0.54037556830E+03  0.00000000000E+00 0.  1.
         11    1    4    4    0    0  0.89993247586E+01  0.50676618478E+01  0.83777779260E+01  0.13298729477E+02  0.00000000000E+00 0. -1.
<mgrwt>
<rscale>  0 0.16163260E+03</rscale>
<asrwt>0</asrwt>
<pdfrwt beam="2">  1        1 0.21910012E-02 0.16902027E+03</pdfrwt>
<pdfrwt beam="1">  1       -1 0.30057826E+00 0.16902027E+03</pdfrwt>
<totfact> 0.20486754E+02</totfact>
</mgrwt>
</event>
<event>
 8    1  0.1646661E-005  0.1664885E+03  0.7546771E-02  0.1188439E+00
         -2   -1    0    0    0  501 -0.00000000000E+00  0.00000000000E+00  0.14625284118E+03  0.14625284118E+03  0.00000000000E+00 0.  1.
          2   -1    0    0  501    0  0.00000000000E+00 -0.00000000000E+00 -0.21675720450E+03  0.21675720450E+03  0.00000000000E+00 0. -1.
         23    2    1    2    0    0 -0.82950761293E+02 -0.72260403920E+02  0.52446369495E+02  0.17455388457E+03  0.12496416355E+03 0.  0.
         23    2    1    2    0    0  0.82950761293E+02  0.72260403920E+02 -0.12295073281E+03  0.18845616111E+03  0.91084835116E+02 0.  0.
          5    1    3    3  502    0 -0.10999931239E+03 -0.81190463285E+02  0.49727780266E+02  0.14555645703E+03  0.47000000000E+01 0.  1.
         -5    1    3    3    0  502  0.27048551093E+02  0.89300593660E+01  0.27185892287E+01  0.28997427539E+02  0.47000000000E+01 0.  1.
        -11    1    4    4    0    0  0.76148312891E+02  0.91491759646E+02 -0.11768396831E+03  0.16738824342E+03  0.00000000000E+00 0. -1.
         11    1    4    4    0    0  0.68024484024E+01 -0.19231355727E+02 -0.52667645000E+01  0.21067917687E+02  0.00000000000E+00 0.  1.
<mgrwt>
<rscale>  0 0.16022820E+03</rscale>
<asrwt>0</asrwt>
<pdfrwt beam="2">  1        2 0.33347262E-01 0.16648855E+03</pdfrwt>
<pdfrwt beam="1">  1       -2 0.22500437E-01 0.16648855E+03</pdfrwt>
<totfact> 0.26124728E+03</totfact>
</mgrwt>
</event>
<event>
 8    1  0.1646661E-005  0.1805331E+03  0.7546771E-02  0.1171759E+00
         -1   -1    0    0    0  501 -0.00000000000E+00  0.00000000000E+00  0.18733562808E+03  0.18733562808E+03  0.00000000000E+00 0.  1.
          1   -1    0    0  501    0  0.00000000000E+00 -0.00000000000E+00 -0.31336047481E+03  0.31336047481E+03  0.00000000000E+00 0. -1.
         23    2    1    2    0    0 -0.79984659921E+02 -0.10280395390E+03  0.11183254982E+03  0.21236459355E+03  0.12500401047E+03 0.  0.
         23    2    1    2    0    0  0.79984659921E+02  0.10280395390E+03 -0.23785739656E+03  0.28833150934E+03  0.97942429104E+02 0.  0.
          5    1    3    3  502    0 -0.19641145867E+02 -0.95661200758E+02  0.11547973868E+03  0.15130928586E+03  0.47000000000E+01 0. -1.
         -5    1    3    3    0  502 -0.60343514054E+02 -0.71427531414E+01 -0.36471888546E+01  0.61055307692E+02  0.47000000000E+01 0. -1.
        -11    1    4    4    0    0  0.90524131980E+02  0.55846313006E+02 -0.11635387363E+03  0.15764407079E+03  0.00000000000E+00 0.  1.
         11    1    4    4    0    0 -0.10539472059E+02  0.46957640894E+02 -0.12150352293E+03  0.13068743855E+03  0.00000000000E+00 0. -1.
<mgrwt>
<rscale>  0 0.17597215E+03</rscale>
<asrwt>0</asrwt>
<pdfrwt beam="2">  1        1 0.48209303E-01 0.18053310E+03</pdfrwt>
<pdfrwt beam="1">  1       -1 0.28820866E-01 0.18053310E+03</pdfrwt>
<totfact> 0.90625045E+02</totfact>
</mgrwt>
</event>
<event>
 8    1  0.1646661E-005  0.1275243E+03  0.7546771E-02  0.1243018E+00
          1   -1    0    0  501    0  0.00000000000E+00  0.00000000000E+00  0.43504426508E+02  0.43504426508E+02  0.00000000000E+00 0. -1.
         -1   -1    0    0    0  501 -0.00000000000E+00 -0.00000000000E+00 -0.36915716782E+03  0.36915716782E+03  0.00000000000E+00 0.  1.
         23    2    1    2    0    0  0.14954797392E+02 -0.20350968383E+02 -0.26876410397E+03  0.29748374702E+03  0.12499851310E+03 0.  0.
         23    2    1    2    0    0 -0.14954797392E+02  0.20350968383E+02 -0.56888637339E+02  0.11517784731E+03  0.96911359360E+02 0.  0.
          5    1    3    3  502    0  0.43538128992E+01 -0.70171378778E+02 -0.19802471812E+03  0.21018767108E+03  0.47000000000E+01 0.  1.
         -5    1    3    3    0  502  0.10600984492E+02  0.49820410394E+02 -0.70739385847E+02  0.87296075937E+02  0.47000000000E+01 0.  1.
        -11    1    4    4    0    0  0.19392120639E+02  0.91717884831E+00  0.20545848620E+02  0.28267073697E+02  0.00000000000E+00 0. -1.
         11    1    4    4    0    0 -0.34346918030E+02  0.19433789535E+02 -0.77434485959E+02  0.86910773611E+02  0.00000000000E+00 0.  1.
<mgrwt>
<rscale>  0 0.12004806E+03</rscale>
<asrwt>0</asrwt>
<pdfrwt beam="1">  1        1 0.66929888E-02 0.12752426E+03</pdfrwt>
<pdfrwt beam="2">  1       -1 0.56793410E-01 0.12752426E+03</pdfrwt>
<totfact> 0.34372660E+03</totfact>
</mgrwt>
</event>
<event>
 8    1  0.1646661E-005  0.2538065E+03  0.7546771E-02  0.1113248E+00
          1   -1    0    0  501    0  0.00000000000E+00  0.00000000000E+00  0.64117148385E+02  0.64117148385E+02  0.00000000000E+00 0. -1.
         -1   -1    0    0    0  501 -0.00000000000E+00 -0.00000000000E+00 -0.95512762861E+03  0.95512762861E+03  0.00000000000E+00 0.  1.
         23    2    1    2    0    0 -0.11535278502E+03 -0.18838197469E+03 -0.41436978002E+03  0.48592187607E+03  0.12499488649E+03 0.  0.
         23    2    1    2    0    0  0.11535278502E+03  0.18838197469E+03 -0.47664070020E+03  0.53332290093E+03  0.91939796410E+02 0.  0.
          5    1    3    3  502    0 -0.16324981959E+02 -0.61215696603E+01  0.43882020214E+01  0.18582921408E+02  0.47000000000E+01 0.  1.
         -5    1    3    3    0  502 -0.99027803062E+02 -0.18226040503E+03 -0.41875798204E+03  0.46733895466E+03  0.47000000000E+01 0.  1.
        -11    1    4    4    0    0 -0.94937895835E+01  0.55284339312E+02 -0.95695659295E+02  0.11092407052E+03  0.00000000000E+00 0.  1.
         11    1    4    4    0    0  0.12484657460E+03  0.13309763537E+03 -0.38094504091E+03  0.42239883040E+03  0.00000000000E+00 0. -1.
<mgrwt>
<rscale>  0 0.25008990E+03</rscale>
<asrwt>0</asrwt>
<pdfrwt beam="1">  1        1 0.98641776E-02 0.25380653E+03</pdfrwt>
<pdfrwt beam="2">  1       -1 0.14694270E+00 0.25380653E+03</pdfrwt>
<totfact> 0.26138889E+02</totfact>
</mgrwt>
</event>
<event>
 8    1  0.1646661E-005  0.1466054E+03  0.7546771E-02  0.1214680E+00
          1   -1    0    0  501    0  0.00000000000E+00  0.00000000000E+00  0.71176852599E+03  0.71176852599E+03  0.00000000000E+00 0. -1.
         -1   -1    0    0    0  501 -0.00000000000E+00 -0.00000000000E+00 -0.25042259827E+02  0.25042259827E+02  0.00000000000E+00 0.  1.
         23    2    1    2    0    0 -0.46844572455E+02  0.60609278243E+02  0.33521439915E+03  0.36587134089E+03  0.12500098444E+03 0.  0.
         23    2    1    2    0    0  0.46844572455E+02 -0.60609278243E+02  0.35151186701E+03  0.37093944493E+03  0.90374667760E+02 0.  0.
          5    1    3    3  502    0 -0.35190849849E+02 -0.73354432435E+01  0.26460974358E+03  0.26708165612E+03  0.47000000000E+01 0.  1.
         -5    1    3    3    0  502 -0.11653722606E+02  0.67944721487E+02  0.70604655572E+02  0.98789684770E+02  0.47000000000E+01 0.  1.
        -11    1    4    4    0    0 -0.11876572535E+02 -0.25924502879E+02  0.26765796944E+02  0.39109343011E+02  0.00000000000E+00 0.  1.
         11    1    4    4    0    0  0.58721144990E+02 -0.34684775364E+02  0.32474607007E+03  0.33183010192E+03  0.00000000000E+00 0. -1.
<mgrwt>
<rscale>  0 0.13900035E+03</rscale>
<asrwt>0</asrwt>
<pdfrwt beam="1">  1        1 0.10950283E+00 0.14660540E+03</pdfrwt>
<pdfrwt beam="2">  1       -1 0.38526559E-02 0.14660540E+03</pdfrwt>
<totfact> 0.69272138E+03</totfact>
</mgrwt>
</event>
<event>
 8    1  0.1646661E-005  0.1533460E+03  0.7546771E-02  0.1205320E+00
          2   -1    0    0  501    0  0.00000000000E+00  0.00000000000E+00  0.16879436690E+03  0.16879436690E+03  0.00000000000E+00 0. -1.
         -2   -1    0    0    0  501 -0.00000000000E+00 -0.00000000000E+00 -0.14715927815E+03  0.14715927815E+03  0.00000000000E+00 0.  1.
         23    2    1    2    0    0  0.58186954164E+02  0.67129905057E+02 -0.60867887660E+02  0.16498449001E+03  0.12499134534E+03 0.  0.
         23    2    1    2    0    0 -0.58186954164E+02 -0.67129905057E+02  0.82502976411E+02  0.15096915503E+03  0.89959984807E+02 0.  0.
          5    1    3    3  502    0  0.65609384870E+02 -0.12809513793E+02 -0.50473495638E+02  0.83894807876E+02  0.47000000000E+01 0.  1.
         -5    1    3    3    0  502 -0.74224307061E+01  0.79939418850E+02 -0.10394392023E+02  0.81089682137E+02  0.47000000000E+01 0.  1.
        -11    1    4    4    0    0  0.11794151234E+02 -0.37586634689E+02  0.78897656925E+00  0.39401517669E+02  0.00000000000E+00 0. -1.
         11    1    4    4    0    0 -0.69981105397E+02 -0.29543270368E+02  0.81713999842E+02  0.11156763736E+03  0.00000000000E+00 0.  1.
<mgrwt>
<rscale>  0 0.14612285E+03</rscale>
<asrwt>0</asrwt>
<pdfrwt beam="1">  1        2 0.25968364E-01 0.15334596E+03</pdfrwt>
<pdfrwt beam="2">  1       -2 0.22639889E-01 0.15334596E+03</pdfrwt>
<totfact> 0.33825782E+03</totfact>
</mgrwt>
</event>
<event>
 8    1  0.1646661E-005  0.1326202E+03  0.7546771E-02  0.1237800E+00
         -2   -1    0    0    0  501 -0.00000000000E+00  0.00000000000E+00  0.16978652291E+03  0.16978652291E+03  0.00000000000E+00 0.  1.
          2   -1    0    0  501    0  0.00000000000E+00 -0.00000000000E+00 -0.79469665181E+02  0.79469665181E+02  0.00000000000E+00 0. -1.
         23    2    1    2    0    0 -0.36533231641E+02 -0.25078169251E+02  0.61308428875E+02  0.14610562075E+03  0.12499814949E+03 0.  0.
         23    2    1    2    0    0  0.36533231641E+02  0.25078169251E+02  0.29008428856E+02  0.10315056734E+03  0.88515303827E+02 0.  0.
          5    1    3    3  502    0 -0.57611385667E+02 -0.64626048186E+02  0.48083364669E+02  0.99144832546E+02  0.47000000000E+01 0. -1.
         -5    1    3    3    0  502  0.21078154027E+02  0.39547878935E+02  0.13225064206E+02  0.46960788203E+02  0.47000000000E+01 0. -1.
        -11    1    4    4    0    0 -0.68709490238E+01 -0.11374776448E+02  0.42800173489E+02  0.44815737531E+02  0.00000000000E+00 0.  1.
         11    1    4    4    0    0  0.43404180664E+02  0.36452945699E+02 -0.13791744633E+02  0.58334829813E+02  0.00000000000E+00 0. -1.
<mgrwt>
<rscale>  0 0.12326864E+03</rscale>
<asrwt>0</asrwt>
<pdfrwt beam="2">  1        2 0.12226102E-01 0.13262024E+03</pdfrwt>
<pdfrwt beam="1">  1       -2 0.26121004E-01 0.13262024E+03</pdfrwt>
<totfact> 0.62102698E+03</totfact>
</mgrwt>
</event>
<event>
 7    1  0.1646661E-005  0.1435225E+03  0.7546771E-02  0.1233952E+00
         -1   -1    0    0    0  501 -0.00000000000E+00  0.00000000000E+00  0.45048936860E+02  0.45048936860E+02  0.00000000000E+00 0.  1.
          1   -1    0    0  501    0  0.00000000000E+00 -0.00000000000E+00 -0.39038653388E+03  0.39038653388E+03  0.00000000000E+00 0. -1.
         23    2    1    2    0    0 -0.80426776298E+01  0.31649888114E+02 -0.24805251001E+03  0.26204832781E+03  0.77928674468E+02 0.  0.
          5    1    1    2  502    0  0.57773724966E+02  0.27781631531E+02 -0.57050672360E+02  0.85944700614E+02  0.47000000000E+01 0. -1.
         -5    1    1    2    0  502 -0.49731047336E+02 -0.59431519644E+02 -0.40234414654E+02  0.87442442320E+02  0.47000000000E+01 0.  1.
        -11    1    3    3    0    0 -0.18912427709E+02 -0.19533661989E+02 -0.13161626996E+03  0.13439526179E+03  0.00000000000E+00 0.  1.
         11    1    3    3    0    0  0.10869750079E+02  0.51183550103E+02 -0.11643624004E+03  0.12765306602E+03  0.00000000000E+00 0. -1.
<mgrwt>
<rscale>  0 0.12571781E+03</rscale>
<asrwt>0</asrwt>
<pdfrwt beam="2">  1        1 0.60059468E-01 0.14352252E+03</pdfrwt>
<pdfrwt beam="1">  1       -1 0.69306055E-02 0.14352252E+03</pdfrwt>
<totfact> 0.64391021E+03</totfact>
</mgrwt>
</event>
<event>
 8    1  0.1646661E-005  0.1458731E+03  0.7546771E-02  0.1215273E+00
          4   -1    0    0  501    0  0.00000000000E+00  0.00000000000E+00  0.18347521818E+03  0.18347521818E+03  0.00000000000E+00 0. -1.
         -4   -1    0    0    0  501 -0.00000000000E+00 -0.00000000000E+00 -0.10874582304E+03  0.10874582304E+03  0.00000000000E+00 0.  1.
         23    2    1    2    0    0  0.47225869793E+02  0.58506924833E+02 -0.10176270310E+02  0.14622759094E+03  0.12500243536E+03 0.  0.
         23    2    1    2    0    0 -0.47225869793E+02 -0.58506924833E+02  0.84905665449E+02  0.14599345028E+03  0.91933522004E+02 0.  0.
          5    1    3    3  502    0 -0.13916607165E+02  0.20402962132E+02 -0.55537693873E+02  0.60962925287E+02  0.47000000000E+01 0.  1.
         -5    1    3    3    0  502  0.61142476958E+02  0.38103962701E+02  0.45361423563E+02  0.85264665658E+02  0.47000000000E+01 0.  1.
        -11    1    4    4    0    0 -0.32797784497E+02 -0.71845910627E+02  0.24835006722E+02  0.82790742844E+02  0.00000000000E+00 0.  1.
         11    1    4    4    0    0 -0.14428085297E+02  0.13338985794E+02  0.60070658727E+02  0.63202707436E+02  0.00000000000E+00 0. -1.
<mgrwt>
<rscale>  0 0.13856496E+03</rscale>
<asrwt>0</asrwt>
<pdfrwt beam="1">  1        4 0.28226956E-01 0.14587307E+03</pdfrwt>
<pdfrwt beam="2">  1       -4 0.16730127E-01 0.14587307E+03</pdfrwt>
<totfact> 0.62304221E+02</totfact>
</mgrwt>
</event>
<event>
 7    1  0.1646661E-005  0.3241425E+03  0.7546771E-02  0.1073758E+00
         -2   -1    0    0    0  501 -0.00000000000E+00  0.00000000000E+00  0.30588328687E+02  0.30588328687E+02  0.00000000000E+00 0.  1.
          2   -1    0    0  501    0  0.00000000000E+00 -0.00000000000E+00 -0.85872917186E+03  0.85872917186E+03  0.00000000000E+00 0. -1.
         23    2    1    2    0    0 -0.34747414777E+02  0.78101426060E+02 -0.36644873842E+03  0.38712072090E+03  0.90942614181E+02 0.  0.
          5    1    1    2  502    0 -0.98766343557E+01 -0.12870398769E+03 -0.32378223131E+03  0.34859616702E+03  0.47000000000E+01 0. -1.
         -5    1    1    2    0  502  0.44624049133E+02  0.50602561631E+02 -0.13790987344E+03  0.15360061262E+03  0.47000000000E+01 0.  1.
        -11    1    3    3    0    0  0.96740732452E+01  0.58136067787E+02 -0.98525843009E+02  0.11480736828E+03  0.00000000000E+00 0.  1.
         11    1    3    3    0    0 -0.44421488022E+02  0.19965358272E+02 -0.26792289541E+03  0.27231335262E+03  0.00000000000E+00 0. -1.
<mgrwt>
<rscale>  0 0.32414250E+03</rscale>
<asrwt>0</asrwt>
<pdfrwt beam="2">  1        2 0.13211218E+00 0.32414250E+03</pdfrwt>
<pdfrwt beam="1">  1       -2 0.47058967E-02 0.32414250E+03</pdfrwt>
<totfact> 0.69664717E+03</totfact>
</mgrwt>
</event>
<event>
 8    1  0.1646661E-005  0.1593329E+03  0.7546771E-02  0.1198220E+00
          1   -1    0    0  501    0  0.00000000000E+00  0.00000000000E+00  0.19874283578E+03  0.19874283578E+03  0.00000000000E+00 0. -1.
         -1   -1    0    0    0  501 -0.00000000000E+00 -0.00000000000E+00 -0.14456130110E+03  0.14456130110E+03  0.00000000000E+00 0.  1.
         23    2    1    2    0    0  0.37461288349E+02  0.91424714243E+02 -0.58943684125E+02  0.16988622357E+03  0.12500057825E+03 0.  0.
         23    2    1    2    0    0 -0.37461288349E+02 -0.91424714243E+02  0.11312521880E+03  0.17341791331E+03  0.86686971499E+02 0.  0.
          5    1    3    3  502    0  0.78769301027E+02  0.69408958852E+02 -0.63230347730E+02  0.12264735312E+03  0.47000000000E+01 0. -1.
         -5    1    3    3    0  502 -0.41308012678E+02  0.22015755391E+02  0.42866636047E+01  0.47238870453E+02  0.47000000000E+01 0. -1.
        -11    1    4    4    0    0 -0.34683038713E+02 -0.21950485033E+02  0.48734723053E+00  0.41048440590E+02  0.00000000000E+00 0.  1.
         11    1    4    4    0    0 -0.27782496361E+01 -0.69474229209E+02  0.11263787157E+03  0.13236947272E+03  0.00000000000E+00 0. -1.
<mgrwt>
<rscale>  0 0.15184864E+03</rscale>
<asrwt>0</asrwt>
<pdfrwt beam="1">  1        1 0.30575821E-01 0.15933289E+03</pdfrwt>
<pdfrwt beam="2">  1       -1 0.22240200E-01 0.15933289E+03</pdfrwt>
<totfact> 0.24474737E+03</totfact>
</mgrwt>
</event>
<event>
 8    1  0.1646661E-005  0.1537439E+03  0.7546771E-02  0.1204269E+00
          1   -1    0    0  501    0  0.00000000000E+00  0.00000000000E+00  0.17695113870E+02  0.17695113870E+02  0.00000000000E+00 0. -1.
         -1   -1    0    0    0  501 -0.00000000000E+00 -0.00000000000E+00 -0.11658322208E+04  0.11658322208E+04  0.00000000000E+00 0.  1.
         23    2    1    2    0    0  0.66590266749E+02  0.59836097711E+02 -0.73551128542E+03  0.75140804298E+03  0.12499029507E+03 0.  0.
         23    2    1    2    0    0 -0.66590266749E+02 -0.59836097711E+02 -0.41262582146E+03  0.43211929164E+03  0.91936888441E+02 0.  0.
          5    1    3    3  502    0 -0.30957696136E+02 -0.10878344662E+02 -0.15354112674E+03  0.15707859476E+03  0.47000000000E+01 0. -1.
         -5    1    3    3    0  502  0.97547962885E+02  0.70714442373E+02 -0.58197015868E+03  0.59432944822E+03  0.47000000000E+01 0. -1.
        -11    1    4    4    0    0 -0.66912671236E+02 -0.35267259165E+02 -0.39424194684E+03  0.40143218330E+03  0.00000000000E+00 0.  1.
         11    1    4    4    0    0  0.32240448692E+00 -0.24568838545E+02 -0.18383874618E+02  0.30687108337E+02  0.00000000000E+00 0. -1.
<mgrwt>
<rscale>  0 0.14695195E+03</rscale>
<asrwt>0</asrwt>
<pdfrwt beam="1">  1        1 0.27223247E-02 0.15374393E+03</pdfrwt>
<pdfrwt beam="2">  1       -1 0.17935884E+00 0.15374393E+03</pdfrwt>
<totfact> 0.89142389E+02</totfact>
</mgrwt>
</event>
<event>
 8    1  0.1646661E-005  0.1996229E+03  0.7546771E-02  0.1152164E+00
         -3   -1    0    0    0  501 -0.00000000000E+00  0.00000000000E+00  0.26911553097E+03  0.26911553097E+03  0.00000000000E+00 0.  1.
          3   -1    0    0  501    0  0.00000000000E+00 -0.00000000000E+00 -0.17480709849E+03  0.17480709849E+03  0.00000000000E+00 0. -1.
         23    2    1    2    0    0  0.13389171425E+02  0.15506803519E+03  0.14573551778E+03  0.24716013311E+03  0.12499569917E+03 0.  0.
         23    2    1    2    0    0 -0.13389171425E+02 -0.15506803519E+03 -0.51427085296E+02  0.19676249634E+03  0.10883643423E+03 0.  0.
          5    1    3    3  502    0 -0.13167815448E+02  0.10142696100E+03  0.15565189825E+03  0.18630733537E+03  0.47000000000E+01 0. -1.
         -5    1    3    3    0  502  0.26556986873E+02  0.53641074187E+02 -0.99163804793E+01  0.60852797747E+02  0.47000000000E+01 0. -1.
        -11    1    4    4    0    0 -0.25630206391E+02 -0.34574551499E+02  0.28530205462E+02  0.51636031167E+02  0.00000000000E+00 0.  1.
         11    1    4    4    0    0  0.12241034966E+02 -0.12049348369E+03 -0.79957290758E+02  0.14512646517E+03  0.00000000000E+00 0. -1.
<mgrwt>
<rscale>  0 0.19715241E+03</rscale>
<asrwt>0</asrwt>
<pdfrwt beam="2">  1        3 0.26893400E-01 0.19962287E+03</pdfrwt>
<pdfrwt beam="1">  1       -3 0.41402390E-01 0.19962287E+03</pdfrwt>
<totfact> 0.18638948E+02</totfact>
</mgrwt>
</event>
<event>
 8    1  0.1646661E-005  0.1328897E+03  0.7546771E-02  0.1237912E+00
         -3   -1    0    0    0  501 -0.00000000000E+00  0.00000000000E+00  0.89711886826E+02  0.89711886826E+02  0.00000000000E+00 0.  1.
          3   -1    0    0  501    0  0.00000000000E+00 -0.00000000000E+00 -0.15289437094E+03  0.15289437094E+03  0.00000000000E+00 0. -1.
         23    2    1    2    0    0  0.10801832060E+02 -0.43787473358E+02 -0.16504079576E+02  0.13391063271E+03  0.12500260202E+03 0.  0.
         23    2    1    2    0    0 -0.10801832060E+02  0.43787473358E+02 -0.46678404540E+02  0.10869562505E+03  0.87188548885E+02 0.  0.
          5    1    3    3  502    0  0.28962837081E+02 -0.46848368123E+02  0.43897984292E+02  0.70588515726E+02  0.47000000000E+01 0. -1.
         -5    1    3    3    0  502 -0.18161005022E+02  0.30608947649E+01 -0.60402063867E+02  0.63322116986E+02  0.47000000000E+01 0. -1.
        -11    1    4    4    0    0 -0.25403168670E+02 -0.19500587125E+02 -0.76674365695E+01  0.32929978139E+02  0.00000000000E+00 0. -1.
         11    1    4    4    0    0  0.14601336610E+02  0.63288060483E+02 -0.39010967970E+02  0.75765646915E+02  0.00000000000E+00 0.  1.
<mgrwt>
<rscale>  0 0.12319833E+03</rscale>
<asrwt>0</asrwt>
<pdfrwt beam="2">  1        3 0.23522211E-01 0.13288970E+03</pdfrwt>
<pdfrwt beam="1">  1       -3 0.13801829E-01 0.13288970E+03</pdfrwt>
<totfact> 0.16444817E+03</totfact>
</mgrwt>
</event>
<event>
 7    1  0.1646661E-005  0.1434608E+03  0.7546771E-02  0.1222637E+00
          2   -1    0    0  501    0  0.00000000000E+00  0.00000000000E+00  0.29975392271E+03  0.29975392271E+03  0.00000000000E+00 0. -1.
         -2   -1    0    0    0  501 -0.00000000000E+00 -0.00000000000E+00 -0.96177686616E+02  0.96177686616E+02  0.00000000000E+00 0.  1.
         23    2    1    2    0    0  0.51269610824E+02 -0.23143455421E+02  0.22666382614E+03  0.25062490478E+03  0.90951417187E+02 0.  0.
          5    1    1    2  502    0 -0.38878989203E+02  0.77771660612E+02 -0.17507100918E+02  0.88817766119E+02  0.47000000000E+01 0. -1.
         -5    1    1    2    0  502 -0.12390621622E+02 -0.54628205191E+02 -0.55804891296E+01  0.56488938435E+02  0.47000000000E+01 0.  1.
        -11    1    3    3    0    0  0.68203382588E+02 -0.43101829219E+02  0.17535796947E+03  0.19302820140E+03  0.00000000000E+00 0. -1.
         11    1    3    3    0    0 -0.16933771764E+02  0.19958373798E+02  0.51305856677E+02  0.57596703379E+02  0.00000000000E+00 0.  1.
<mgrwt>
<rscale>  0 0.13330176E+03</rscale>
<asrwt>0</asrwt>
<pdfrwt beam="1">  1        2 0.46115988E-01 0.14346080E+03</pdfrwt>
<pdfrwt beam="2">  1       -2 0.14796567E-01 0.14346080E+03</pdfrwt>
<totfact> 0.37070439E+03</totfact>
</mgrwt>
</event>
<event>
 8    1  0.1646661E-005  0.1447945E+03  0.7546771E-02  0.1217141E+00
         -2   -1    0    0    0  501 -0.00000000000E+00  0.00000000000E+00  0.43415714364E+02  0.43415714364E+02  0.00000000000E+00 0.  1.
          2   -1    0    0  501    0  0.00000000000E+00 -0.00000000000E+00 -0.39534882882E+03  0.39534882882E+03  0.00000000000E+00 0. -1.
         23    2    1    2    0    0  0.33144858089E+02 -0.65126098992E+02 -0.20814332523E+03  0.25355292484E+03  0.12500180586E+03 0.  0.
         23    2    1    2    0    0 -0.33144858089E+02  0.65126098992E+02 -0.14378978922E+03  0.18521161834E+03  0.91037627915E+02 0.  0.
          5    1    3    3  502    0 -0.37018960292E+02 -0.10446136892E+02 -0.16303687503E+02  0.42040759071E+02  0.47000000000E+01 0. -1.
         -5    1    3    3    0  502  0.70163818380E+02 -0.54679962100E+02 -0.19183963773E+03  0.21151216577E+03  0.47000000000E+01 0. -1.
        -11    1    4    4    0    0  0.23941958923E+02  0.36810265000E+02 -0.25313075816E+02  0.50684956483E+02  0.00000000000E+00 0.  1.
         11    1    4    4    0    0 -0.57086817012E+02  0.28315833992E+02 -0.11847671341E+03  0.13452666186E+03  0.00000000000E+00 0. -1.
<mgrwt>
<rscale>  0 0.13720419E+03</rscale>
<asrwt>0</asrwt>
<pdfrwt beam="2">  1        2 0.60822898E-01 0.14479448E+03</pdfrwt>
<pdfrwt beam="1">  1       -2 0.66793405E-02 0.14479448E+03</pdfrwt>
<totfact> 0.96716067E+03</totfact>
</mgrwt>
</event>
<event>
 8    1  0.1646661E-005  0.1491701E+03  0.7546771E-02  0.1212301E+00
          2   -1    0    0  501    0  0.00000000000E+00  0.00000000000E+00  0.21029712225E+03  0.21029712225E+03  0.00000000000E+00 0. -1.
         -2   -1    0    0    0  501 -0.00000000000E+00 -0.00000000000E+00 -0.11145616626E+03  0.11145616626E+03  0.00000000000E+00 0.  1.
         23    2    1    2    0    0  0.47621078347E+02 -0.66021049656E+02 -0.24145921347E+02  0.15111174099E+03  0.12500074658E+03 0.  0.
         23    2    1    2    0    0 -0.47621078347E+02  0.66021049656E+02  0.12298687734E+03  0.17064154752E+03  0.85826683754E+02 0.  0.
          5    1    3    3  502    0  0.35490894773E+02 -0.90702475308E+02 -0.52991741144E+02  0.11098088695E+03  0.47000000000E+01 0. -1.
         -5    1    3    3    0  502  0.12130183574E+02  0.24681425653E+02  0.28845819798E+02  0.40130854035E+02  0.47000000000E+01 0. -1.
        -11    1    4    4    0    0 -0.69631779935E+02  0.43950511609E+02  0.65377086744E+02  0.10513988643E+03  0.00000000000E+00 0.  1.
         11    1    4    4    0    0  0.22010701587E+02  0.22070538047E+02  0.57609790592E+02  0.65501661094E+02  0.00000000000E+00 0. -1.
<mgrwt>
<rscale>  0 0.14076652E+03</rscale>
<asrwt>0</asrwt>
<pdfrwt beam="1">  1        2 0.32353403E-01 0.14917015E+03</pdfrwt>
<pdfrwt beam="2">  1       -2 0.17147103E-01 0.14917015E+03</pdfrwt>
<totfact> 0.42546482E+03</totfact>
</mgrwt>
</event>
<event>
 8    1  0.1646661E-005  0.1545817E+03  0.7546771E-02  0.1203519E+00
         -2   -1    0    0    0  501 -0.00000000000E+00  0.00000000000E+00  0.55557030472E+02  0.55557030472E+02  0.00000000000E+00 0.  1.
          2   -1    0    0  501    0  0.00000000000E+00 -0.00000000000E+00 -0.36419715334E+03  0.36419715334E+03  0.00000000000E+00 0. -1.
         23    2    1    2    0    0  0.56293285410E+02 -0.71423096771E+02 -0.19063056813E+03  0.24542925616E+03  0.12500125415E+03 0.  0.
         23    2    1    2    0    0 -0.56293285410E+02  0.71423096771E+02 -0.11800955473E+03  0.17432492765E+03  0.90513715296E+02 0.  0.
          5    1    3    3  502    0  0.77992931556E+02 -0.81273016940E+02 -0.19023947065E+03  0.22113648918E+03  0.47000000000E+01 0.  1.
         -5    1    3    3    0  502 -0.21699646146E+02  0.98499201696E+01 -0.39109748360E+00  0.24292766978E+02  0.47000000000E+01 0.  1.
        -11    1    4    4    0    0 -0.16105652384E+01  0.71845070333E+02 -0.81056001539E+02  0.10832535916E+03  0.00000000000E+00 0. -1.
         11    1    4    4    0    0 -0.54682720172E+02 -0.42197356186E+00 -0.36953553192E+02  0.65999568488E+02  0.00000000000E+00 0.  1.
<mgrwt>
<rscale>  0 0.14754754E+03</rscale>
<asrwt>0</asrwt>
<pdfrwt beam="2">  1        2 0.56030331E-01 0.15458171E+03</pdfrwt>
<pdfrwt beam="1">  1       -2 0.85472356E-02 0.15458171E+03</pdfrwt>
<totfact> 0.72497733E+03</totfact>
</mgrwt>
</event>
<event>
 8    1  0.1646661E-005  0.1306389E+03  0.7546771E-02  0.1241464E+00
         -2   -1    0    0    0  501 -0.00000000000E+00  0.00000000000E+00  0.19098335384E+02  0.19098335384E+02  0.00000000000E+00 0.  1.
          2   -1    0    0  501    0  0.00000000000E+00 -0.00000000000E+00 -0.69077232880E+03  0.69077232880E+03  0.00000000000E+00 0. -1.
         23    2    1    2    0    0 -0.30187563436E+02 -0.23022143723E+02 -0.44168289139E+03  0.46059775908E+03  0.12500084414E+03 0.  0.
         23    2    1    2    0    0  0.30187563436E+02  0.23022143723E+02 -0.22999110203E+03  0.24927290511E+03  0.88316284569E+02 0.  0.
          5    1    3    3  502    0 -0.55301010681E+02  0.20682618505E+02 -0.35743827400E+03  0.36231227168E+03  0.47000000000E+01 0.  1.
         -5    1    3    3    0  502  0.25113447245E+02 -0.43704762228E+02 -0.84244617387E+02  0.98285487396E+02  0.47000000000E+01 0.  1.
        -11    1    4    4    0    0 -0.17255586447E+02 -0.17555469388E+02 -0.12266502903E+03  0.12511058755E+03  0.00000000000E+00 0.  1.
         11    1    4    4    0    0  0.47443149883E+02  0.40577613111E+02 -0.10732607300E+03  0.12416231756E+03  0.00000000000E+00 0. -1.
<mgrwt>
<rscale>  0 0.12099562E+03</rscale>
<asrwt>0</asrwt>
<pdfrwt beam="2">  1        2 0.10627267E+00 0.13063889E+03</pdfrwt>
<pdfrwt beam="1">  1       -2 0.29382054E-02 0.13063889E+03</pdfrwt>
<totfact> 0.17604053E+04</totfact>
</mgrwt>
</event>
<event>
 7    1  0.1646661E-005  0.1533081E+03  0.7546771E-02  0.1206619E+00
          3   -1    0    0  501    0  0.00000000000E+00  0.00000000000E+00  0.27504064699E+03  0.27504064699E+03  0.00000000000E+00 0. -1.
         -3   -1    0    0    0  501 -0.00000000000E+00 -0.00000000000E+00 -0.69782524418E+02  0.69782524418E+02  0.00000000000E+00 0.  1.
         23    2    1    2    0    0  0.73628701826E+01  0.82172367621E+02  0.10387627253E+03  0.16102528921E+03  0.91281728257E+02 0.  0.
          5    1    1    2  502    0  0.57570624250E+02 -0.62688428346E+02  0.52958272101E+02  0.10035379619E+03  0.47000000000E+01 0. -1.
         -5    1    1    2    0  502 -0.64933494433E+02 -0.19483939275E+02  0.48423577935E+02  0.83444086003E+02  0.47000000000E+01 0.  1.
        -11    1    3    3    0    0  0.20165675394E+02 -0.11441928168E+02  0.42325260347E+02  0.48259712470E+02  0.00000000000E+00 0. -1.
         11    1    3    3    0    0 -0.12802805211E+02  0.93614295789E+02  0.61551012186E+02  0.11276557674E+03  0.00000000000E+00 0.  1.
<mgrwt>
<rscale>  0 0.14510606E+03</rscale>
<asrwt>0</asrwt>
<pdfrwt beam="1">  1        3 0.42313945E-01 0.15330813E+03</pdfrwt>
<pdfrwt beam="2">  1       -3 0.10735773E-01 0.15330813E+03</pdfrwt>
<totfact> 0.85801457E+02</totfact>
</mgrwt>
</event>
<event>
 8    1  0.1646661E-005  0.1300633E+03  0.7546771E-02  0.1241277E+00
          2   -1    0    0  501    0  0.00000000000E+00  0.00000000000E+00  0.10848012483E+04  0.10848012483E+04  0.00000000000E+00 0. -1.
         -2   -1    0    0    0  501 -0.00000000000E+00 -0.00000000000E+00 -0.12721955254E+02  0.12721955254E+02  0.00000000000E+00 0.  1.
         23    2    1    2    0    0  0.33953349253E+02 -0.11865714835E+02  0.74015416088E+03  0.75149494430E+03  0.12499137701E+03 0.  0.
         23    2    1    2    0    0 -0.33953349253E+02  0.11865714835E+02  0.33192513221E+03  0.34602825929E+03  0.90926551265E+02 0.  0.
          5    1    3    3  502    0  0.35057224770E+02 -0.63036470332E+02  0.54134276454E+03  0.54614712699E+03  0.47000000000E+01 0.  1.
         -5    1    3    3    0  502 -0.11038755167E+01  0.51170755497E+02  0.19881139634E+03  0.20534781731E+03  0.47000000000E+01 0.  1.
        -11    1    4    4    0    0  0.27260618889E+02 -0.18238102025E+01  0.47761184969E+02  0.55023616889E+02  0.00000000000E+00 0.  1.
         11    1    4    4    0    0 -0.61213968142E+02  0.13689525038E+02  0.28416394724E+03  0.29100464240E+03  0.00000000000E+00 0. -1.
<mgrwt>
<rscale>  0 0.12111015E+03</rscale>
<asrwt>0</asrwt>
<pdfrwt beam="1">  1        2 0.16689243E+00 0.13006333E+03</pdfrwt>
<pdfrwt beam="2">  1       -2 0.19572247E-02 0.13006333E+03</pdfrwt>
<totfact> 0.17771334E+04</totfact>
</mgrwt>
</event>
<event>
 8    1  0.1646661E-005  0.1304066E+03  0.7546771E-02  0.1240514E+00
         -1   -1    0    0    0  501 -0.00000000000E+00  0.00000000000E+00  0.29312203232E+03  0.29312203232E+03  0.00000000000E+00 0. -1.
          1   -1    0    0  501    0  0.00000000000E+00 -0.00000000000E+00 -0.46602145191E+02  0.46602145191E+02  0.00000000000E+00 0.  1.
         23    2    1    2    0    0 -0.21483495467E+01  0.37161230374E+02  0.17373031291E+03  0.21722825236E+03  0.12498127681E+03 0.  0.
         23    2    1    2    0    0  0.21483495467E+01 -0.37161230374E+02  0.72789574227E+02  0.12249592515E+03  0.91221472879E+02 0.  0.
          5    1    3    3  502    0 -0.47565921628E+02  0.46656647151E+02  0.45602445263E+02  0.80876650757E+02  0.47000000000E+01 0.  1.
         -5    1    3    3    0  502  0.45417572081E+02 -0.94954167767E+01  0.12812786764E+03  0.13635160161E+03  0.47000000000E+01 0.  1.
        -11    1    4    4    0    0 -0.18951190460E+02 -0.33191414867E+02  0.88161908559E+02  0.96090268818E+02  0.00000000000E+00 0.  1.
         11    1    4    4    0    0  0.21099540007E+02 -0.39698155068E+01 -0.15372334332E+02  0.26405656335E+02  0.00000000000E+00 0. -1.
<mgrwt>
<rscale>  0 0.12157941E+03</rscale>
<asrwt>0</asrwt>
<pdfrwt beam="2">  1        1 0.71695610E-02 0.13040664E+03</pdfrwt>
<pdfrwt beam="1">  1       -1 0.45095696E-01 0.13040664E+03</pdfrwt>
<totfact> 0.47829477E+03</totfact>
</mgrwt>
</event>
<event>
 8    1  0.1646661E-005  0.4002620E+03  0.7546771E-02  0.1044214E+00
         -1   -1    0    0    0  501 -0.00000000000E+00  0.00000000000E+00  0.14552571428E+03  0.14552571428E+03  0.00000000000E+00 0. -1.
          1   -1    0    0  501    0  0.00000000000E+00 -0.00000000000E+00 -0.17460870472E+04  0.17460870472E+04  0.00000000000E+00 0.  1.
         23    2    1    2    0    0  0.35916829483E+03  0.12483210660E+03 -0.22182934854E+03  0.45762206707E+03  0.12499911020E+03 0.  0.
         23    2    1    2    0    0 -0.35916829483E+03 -0.12483210660E+03 -0.13787319844E+04  0.14339906944E+04  0.10412736466E+03 0.  0.
          5    1    3    3  502    0  0.26970849437E+03  0.12829939786E+03 -0.21435740121E+03  0.36766097546E+03  0.47000000000E+01 0.  1.
         -5    1    3    3    0  502  0.89459800462E+02 -0.34672912548E+01 -0.74719473322E+01  0.89961091613E+02  0.47000000000E+01 0.  1.
        -11    1    4    4    0    0 -0.17984665415E+03 -0.20730800170E+02 -0.76689943638E+03  0.78797800134E+03  0.00000000000E+00 0.  1.
         11    1    4    4    0    0 -0.17932164068E+03 -0.10410130643E+03 -0.61183254802E+03  0.64601269309E+03  0.00000000000E+00 0. -1.
<mgrwt>
<rscale>  0 0.39874868E+03</rscale>
<asrwt>0</asrwt>
<pdfrwt beam="2">  1        1 0.26862877E+00 0.40026203E+03</pdfrwt>
<pdfrwt beam="1">  1       -1 0.22388572E-01 0.40026203E+03</pdfrwt>
<totfact> 0.80814998E+01</totfact>
</mgrwt>
</event>
<event>
 8    1  0.1646661E-005  0.1385055E+03  0.7546771E-02  0.1226118E+00
         -2   -1    0    0    0  501 -0.00000000000E+00  0.00000000000E+00  0.13031145110E+03  0.13031145110E+03  0.00000000000E+00 0.  1.
          2   -1    0    0  501    0  0.00000000000E+00 -0.00000000000E+00 -0.15253140917E+03  0.15253140917E+03  0.00000000000E+00 0. -1.
         23    2    1    2    0    0 -0.55588582149E+02  0.21693625329E+02  0.53926258155E+02  0.14863310968E+03  0.12499222428E+03 0.  0.
         23    2    1    2    0    0  0.55588582149E+02 -0.21693625329E+02 -0.76146216222E+02  0.13420975059E+03  0.93023153375E+02 0.  0.
          5    1    3    3  502    0 -0.48388061891E+02 -0.18788878953E+02  0.83033877466E+02  0.98036428500E+02  0.47000000000E+01 0.  1.
         -5    1    3    3    0  502 -0.72005202574E+01  0.40482504282E+02 -0.29107619311E+02  0.50596681184E+02  0.47000000000E+01 0.  1.
        -11    1    4    4    0    0  0.92885893427E+01  0.31600013493E+02 -0.47989625202E+02  0.58205179080E+02  0.00000000000E+00 0. -1.
         11    1    4    4    0    0  0.46299992806E+02 -0.53293638822E+02 -0.28156591020E+02  0.76004571512E+02  0.00000000000E+00 0.  1.
<mgrwt>
<rscale>  0 0.13090536E+03</rscale>
<asrwt>0</asrwt>
<pdfrwt beam="2">  1        2 0.23466371E-01 0.13850545E+03</pdfrwt>
<pdfrwt beam="1">  1       -2 0.20047916E-01 0.13850545E+03</pdfrwt>
<totfact> 0.46318972E+03</totfact>
</mgrwt>
</event>
<event>
 8    1  0.1646661E-005  0.2519870E+03  0.7546771E-02  0.1114391E+00
         -2   -1    0    0    0  501 -0.00000000000E+00  0.00000000000E+00  0.14420492299E+03  0.14420492299E+03  0.00000000000E+00 0.  1.
          2   -1    0    0  501    0  0.00000000000E+00 -0.00000000000E+00 -0.41732165785E+03  0.41732165785E+03  0.00000000000E+00 0. -1.
         23    2    1    2    0    0 -0.21097918615E+03 -0.57947740353E+02 -0.12158526431E+03  0.27978639173E+03  0.12500916326E+03 0.  0.
         23    2    1    2    0    0  0.21097918615E+03  0.57947740353E+02 -0.15153147055E+03  0.28174018912E+03  0.92442360397E+02 0.  0.
          5    1    3    3  502    0 -0.66396545393E+02  0.38983893065E+02 -0.47189113300E+02  0.90427581924E+02  0.47000000000E+01 0.  1.
         -5    1    3    3    0  502 -0.14458264076E+03 -0.96931633418E+02 -0.74396151013E+02  0.18935880981E+03  0.47000000000E+01 0.  1.
        -11    1    4    4    0    0  0.42220990745E+02  0.10871497469E+02  0.85383167405E+01  0.44426392712E+02  0.00000000000E+00 0.  1.
         11    1    4    4    0    0  0.16875819541E+03  0.47076242884E+02 -0.16006978729E+03  0.23731379641E+03  0.00000000000E+00 0. -1.
<mgrwt>
<rscale>  0 0.24828967E+03</rscale>
<asrwt>0</asrwt>
<pdfrwt beam="2">  1        2 0.64203332E-01 0.25198700E+03</pdfrwt>
<pdfrwt beam="1">  1       -2 0.22185373E-01 0.25198700E+03</pdfrwt>
<totfact> 0.13359350E+03</totfact>
</mgrwt>
</event>
<event>
 8    1  0.1646661E-005  0.1438472E+03  0.7546771E-02  0.1219338E+00
         -1   -1    0    0    0  501 -0.00000000000E+00  0.00000000000E+00  0.16138976900E+03  0.16138976900E+03  0.00000000000E+00 0.  1.
          1   -1    0    0  501    0  0.00000000000E+00 -0.00000000000E+00 -0.13038834443E+03  0.13038834443E+03  0.00000000000E+00 0. -1.
         23    2    1    2    0    0  0.49336994906E+02 -0.51322573617E+02  0.83758810920E+02  0.16645583624E+03  0.12499544545E+03 0.  0.
         23    2    1    2    0    0 -0.49336994906E+02  0.51322573617E+02 -0.52757386352E+02  0.12532227719E+03  0.88623843948E+02 0.  0.
          5    1    3    3  502    0 -0.38728670992E+02 -0.14854266604E+02  0.37363317933E+01  0.41911923940E+02  0.47000000000E+01 0. -1.
         -5    1    3    3    0  502  0.88065665897E+02 -0.36468307013E+02  0.80022479126E+02  0.12454391230E+03  0.47000000000E+01 0. -1.
        -11    1    4    4    0    0 -0.30142062180E+02  0.58943412291E+02 -0.71492999460E+02  0.97437768533E+02  0.00000000000E+00 0. -1.
         11    1    4    4    0    0 -0.19194932726E+02 -0.76208386744E+01  0.18735613108E+02  0.27884508656E+02  0.00000000000E+00 0.  1.
<mgrwt>
<rscale>  0 0.13562620E+03</rscale>
<asrwt>0</asrwt>
<pdfrwt beam="2">  1        1 0.20059745E-01 0.14384717E+03</pdfrwt>
<pdfrwt beam="1">  1       -1 0.24829195E-01 0.14384717E+03</pdfrwt>
<totfact> 0.34600258E+03</totfact>
</mgrwt>
</event>
<event>
 8    1  0.1646661E-005  0.1254573E+03  0.7546771E-02  0.1248433E+00
          2   -1    0    0  501    0  0.00000000000E+00  0.00000000000E+00  0.70763468099E+03  0.70763468099E+03  0.00000000000E+00 0.  1.
         -2   -1    0    0    0  501 -0.00000000000E+00 -0.00000000000E+00 -0.18091962319E+02  0.18091962319E+02  0.00000000000E+00 0. -1.
         23    2    1    2    0    0  0.39539143942E+01  0.99525739848E+01  0.30521402578E+03  0.32999262278E+03  0.12499936956E+03 0.  0.
         23    2    1    2    0    0 -0.39539143942E+01 -0.99525739848E+01  0.38432869290E+03  0.39573402053E+03  0.93713305641E+02 0.  0.
          5    1    3    3  502    0 -0.60250656897E+01  0.17163199200E+02  0.31373669031E+03  0.31429870771E+03  0.47000000000E+01 0. -1.
         -5    1    3    3    0  502  0.99789800839E+01 -0.72106252148E+01 -0.85226645309E+01  0.15693915070E+02  0.47000000000E+01 0. -1.
        -11    1    4    4    0    0  0.11339010592E+02  0.39262964787E+02  0.21032385868E+03  0.21425750651E+03  0.00000000000E+00 0.  1.
         11    1    4    4    0    0 -0.15292924986E+02 -0.49215538772E+02  0.17400483422E+03  0.18147651403E+03  0.00000000000E+00 0. -1.
<mgrwt>
<rscale>  0 0.11682252E+03</rscale>
<asrwt>0</asrwt>
<pdfrwt beam="1">  1        2 0.10886685E+00 0.12545728E+03</pdfrwt>
<pdfrwt beam="2">  1       -2 0.27833794E-02 0.12545728E+03</pdfrwt>
<totfact> 0.18460195E+04</totfact>
</mgrwt>
</event>
<event>
 8    1  0.1646661E-005  0.1482972E+03  0.7546771E-02  0.1212009E+00
          2   -1    0    0  501    0  0.00000000000E+00  0.00000000000E+00  0.57837877295E+03  0.57837877295E+03  0.00000000000E+00 0. -1.
         -2   -1    0    0    0  501 -0.00000000000E+00 -0.00000000000E+00 -0.32123306998E+02  0.32123306998E+02  0.00000000000E+00 0.  1.
         23    2    1    2    0    0  0.28749968826E+02  0.74386321122E+02  0.25381320362E+03  0.29396122892E+03  0.12502870191E+03 0.  0.
         23    2    1    2    0    0 -0.28749968826E+02 -0.74386321122E+02  0.29244226234E+03  0.31654085103E+03  0.91190723707E+02 0.  0.
          5    1    3    3  502    0  0.29178751160E+01 -0.22089310605E+02  0.18048694199E+01  0.22842924327E+02  0.47000000000E+01 0.  1.
         -5    1    3    3    0  502  0.25832093710E+02  0.96475631726E+02  0.25200833420E+03  0.27111830460E+03  0.47000000000E+01 0.  1.
        -11    1    4    4    0    0 -0.50878909570E+02 -0.36994997105E+02  0.24163303781E+03  0.24968744104E+03  0.00000000000E+00 0. -1.
         11    1    4    4    0    0  0.22128940744E+02 -0.37391324017E+02  0.50809224523E+02  0.66853409986E+02  0.00000000000E+00 0.  1.
<mgrwt>
<rscale>  0 0.14098546E+03</rscale>
<asrwt>0</asrwt>
<pdfrwt beam="1">  1        2 0.88981342E-01 0.14829721E+03</pdfrwt>
<pdfrwt beam="2">  1       -2 0.49420477E-02 0.14829721E+03</pdfrwt>
<totfact> 0.10077858E+04</totfact>
</mgrwt>
</event>
<event>
 8    1  0.1646661E-005  0.1349788E+03  0.7546771E-02  0.1232444E+00
         -1   -1    0    0    0  501 -0.00000000000E+00  0.00000000000E+00  0.18608835187E+02  0.18608835187E+02  0.00000000000E+00 0.  1.
          1   -1    0    0  501    0  0.00000000000E+00 -0.00000000000E+00 -0.79601502750E+03  0.79601502750E+03  0.00000000000E+00 0. -1.
         23    2    1    2    0    0  0.45303411367E+02 -0.23271355519E+02 -0.36631927299E+03  0.39039605040E+03  0.12500124535E+03 0.  0.
         23    2    1    2    0    0 -0.45303411367E+02  0.23271355519E+02 -0.41108691932E+03  0.42422781228E+03  0.91557776330E+02 0.  0.
          5    1    3    3  502    0 -0.90413459450E+01 -0.60231787397E+02 -0.24319275259E+03  0.25074771995E+03  0.47000000000E+01 0. -1.
         -5    1    3    3    0  502  0.54344757312E+02  0.36960431878E+02 -0.12312652040E+03  0.13964833045E+03  0.47000000000E+01 0. -1.
        -11    1    4    4    0    0 -0.49364058181E+02 -0.22940431566E+02 -0.16323431016E+03  0.17207124587E+03  0.00000000000E+00 0.  1.
         11    1    4    4    0    0  0.40606468142E+01  0.46211787085E+02 -0.24785260915E+03  0.25215656641E+03  0.00000000000E+00 0. -1.
<mgrwt>
<rscale>  0 0.12669470E+03</rscale>
<asrwt>0</asrwt>
<pdfrwt beam="2">  1        1 0.12246382E+00 0.13497876E+03</pdfrwt>
<pdfrwt beam="1">  1       -1 0.28628984E-02 0.13497876E+03</pdfrwt>
<totfact> 0.90271479E+03</totfact>
</mgrwt>
</event>
<event>
 8    1  0.1646661E-005  0.1411876E+03  0.7546771E-02  0.1222524E+00
         -2   -1    0    0    0  501 -0.00000000000E+00  0.00000000000E+00  0.38115561127E+02  0.38115561127E+02  0.00000000000E+00 0.  1.
          2   -1    0    0  501    0  0.00000000000E+00 -0.00000000000E+00 -0.42930426871E+03  0.42930426871E+03  0.00000000000E+00 0. -1.
         23    2    1    2    0    0 -0.64549533385E+02  0.11814945578E+02 -0.18701752567E+03  0.23432776676E+03  0.12501084820E+03 0.  0.
         23    2    1    2    0    0  0.64549533385E+02 -0.11814945578E+02 -0.20417118191E+03  0.23309206307E+03  0.91322522664E+02 0.  0.
          5    1    3    3  502    0 -0.16508717756E+02  0.39659136646E+02 -0.44473686774E+01  0.43442536409E+02  0.47000000000E+01 0. -1.
         -5    1    3    3    0  502 -0.48040815629E+02 -0.27844191068E+02 -0.18257015699E+03  0.19088523035E+03  0.47000000000E+01 0. -1.
        -11    1    4    4    0    0  0.81535813753E+02 -0.30629172399E+02 -0.15698811058E+03  0.17953133985E+03  0.00000000000E+00 0. -1.
         11    1    4    4    0    0 -0.16986280368E+02  0.18814226821E+02 -0.47183071330E+02  0.53560723219E+02  0.00000000000E+00 0.  1.
<mgrwt>
<rscale>  0 0.13338033E+03</rscale>
<asrwt>0</asrwt>
<pdfrwt beam="2">  1        2 0.66046810E-01 0.14118763E+03</pdfrwt>
<pdfrwt beam="1">  1       -2 0.58639325E-02 0.14118763E+03</pdfrwt>
<totfact> 0.10773910E+04</totfact>
</mgrwt>
</event>
<event>
 8    1  0.1646661E-005  0.1399631E+03  0.7546771E-02  0.1226012E+00
         -2   -1    0    0    0  501 -0.00000000000E+00  0.00000000000E+00  0.86501195220E+02  0.86501195220E+02  0.00000000000E+00 0.  1.
          2   -1    0    0  501    0  0.00000000000E+00 -0.00000000000E+00 -0.17726535869E+03  0.17726535869E+03  0.00000000000E+00 0. -1.
         23    2    1    2    0    0  0.60630709639E+02  0.16919903012E+02 -0.44316714355E+02  0.14681161868E+03  0.12500925621E+03 0.  0.
         23    2    1    2    0    0 -0.60630709639E+02 -0.16919903012E+02 -0.46447449120E+02  0.11695493524E+03  0.86940929814E+02 0.  0.
          5    1    3    3  502    0  0.13624597612E+02  0.67654701655E+02 -0.32735990296E+02  0.76527925471E+02  0.47000000000E+01 0.  1.
         -5    1    3    3    0  502  0.47006112027E+02 -0.50734798644E+02 -0.11580724058E+02  0.70283693208E+02  0.47000000000E+01 0.  1.
        -11    1    4    4    0    0 -0.32119138068E+02 -0.50527162052E+01  0.23749992547E+02  0.40264514368E+02  0.00000000000E+00 0.  1.
         11    1    4    4    0    0 -0.28511571571E+02 -0.11867186806E+02 -0.70197441668E+02  0.76690420867E+02  0.00000000000E+00 0. -1.
<mgrwt>
<rscale>  0 0.13097758E+03</rscale>
<asrwt>0</asrwt>
<pdfrwt beam="2">  1        2 0.27271594E-01 0.13996314E+03</pdfrwt>
<pdfrwt beam="1">  1       -2 0.13307876E-01 0.13996314E+03</pdfrwt>
<totfact> 0.77273936E+03</totfact>
</mgrwt>
</event>
<event>
 8    1  0.1646661E-005  0.1629727E+03  0.7546771E-02  0.1193713E+00
         -1   -1    0    0    0  501 -0.00000000000E+00  0.00000000000E+00  0.53019579497E+02  0.53019579497E+02  0.00000000000E+00 0.  1.
          1   -1    0    0  501    0  0.00000000000E+00 -0.00000000000E+00 -0.62419592101E+03  0.62419592101E+03  0.00000000000E+00 0. -1.
         23    2    1    2    0    0 -0.45476316779E+02 -0.94178632724E+02 -0.11022612923E+03  0.19674835511E+03  0.12498962127E+03 0.  0.
         23    2    1    2    0    0  0.45476316779E+02  0.94178632724E+02 -0.46095021229E+03  0.48046714540E+03  0.86231487004E+02 0.  0.
          5    1    3    3  502    0 -0.18792236643E+02 -0.70172151041E+02  0.78771760247E+01  0.73221710182E+02  0.47000000000E+01 0.  1.
         -5    1    3    3    0  502 -0.26684080136E+02 -0.24006481682E+02 -0.11810330525E+03  0.12352664493E+03  0.47000000000E+01 0.  1.
        -11    1    4    4    0    0  0.59683485024E+02  0.68230189503E+02 -0.42160868697E+03  0.43124397048E+03  0.00000000000E+00 0. -1.
         11    1    4    4    0    0 -0.14207168245E+02  0.25948443221E+02 -0.39341525316E+02  0.49223174921E+02  0.00000000000E+00 0.  1.
<mgrwt>
<rscale>  0 0.15563614E+03</rscale>
<asrwt>0</asrwt>
<pdfrwt beam="2">  1        1 0.96030136E-01 0.16297275E+03</pdfrwt>
<pdfrwt beam="1">  1       -1 0.81568588E-02 0.16297275E+03</pdfrwt>
<totfact> 0.27365074E+03</totfact>
</mgrwt>
</event>
<event>
 8    1  0.1646661E-005  0.1337501E+03  0.7546771E-02  0.1233758E+00
         -2   -1    0    0    0  501 -0.00000000000E+00  0.00000000000E+00  0.72894140836E+02  0.72894140836E+02  0.00000000000E+00 0. -1.
          2   -1    0    0  501    0  0.00000000000E+00 -0.00000000000E+00 -0.21222456017E+03  0.21222456017E+03  0.00000000000E+00 0.  1.
         23    2    1    2    0    0  0.33000628760E+02 -0.34276795992E+02 -0.37325091366E+02  0.13886052220E+03  0.12500056775E+03 0.  0.
         23    2    1    2    0    0 -0.33000628760E+02  0.34276795992E+02 -0.10200532797E+03  0.14625817881E+03  0.93393938194E+02 0.  0.
          5    1    3    3  502    0  0.31376357229E+02  0.27055125294E+02 -0.60185769808E+02  0.73217979247E+02  0.47000000000E+01 0. -1.
         -5    1    3    3    0  502  0.16242715317E+01 -0.61331921286E+02  0.22860678443E+02  0.65642542954E+02  0.47000000000E+01 0. -1.
        -11    1    4    4    0    0  0.19676671471E+02 -0.12647359310E+02 -0.14649296718E+01  0.23436576470E+02  0.00000000000E+00 0. -1.
         11    1    4    4    0    0 -0.52677300232E+02  0.46924155301E+02 -0.10054039830E+03  0.12282160234E+03  0.00000000000E+00 0.  1.
<mgrwt>
<rscale>  0 0.12584249E+03</rscale>
<asrwt>0</asrwt>
<pdfrwt beam="2">  1        2 0.32649932E-01 0.13375007E+03</pdfrwt>
<pdfrwt beam="1">  1       -2 0.11214483E-01 0.13375007E+03</pdfrwt>
<totfact> 0.83332450E+03</totfact>
</mgrwt>
</event>
<event>
 8    1  0.2602900E-005  0.4055449E+03  0.7546771E-02  0.1042697E+00
          2   -1    0    0  501    0  0.00000000000E+00  0.00000000000E+00  0.12625634402E+04  0.12625634402E+04  0.00000000000E+00 0. -1.
         -2   -1    0    0    0  501 -0.00000000000E+00 -0.00000000000E+00 -0.12727012382E+03  0.12727012382E+03  0.00000000000E+00 0.  1.
         23    2    1    2    0    0  0.31871806855E+03 -0.21739404693E+03  0.58780180813E+03  0.71412719655E+03  0.12500123344E+03 0.  0.
         23    2    1    2    0    0 -0.31871806855E+03  0.21739404693E+03  0.54749150829E+03  0.67570636749E+03  0.89391076551E+02 0.  0.
          5    1    3    3  502    0  0.10954482028E+03 -0.83319594048E+02  0.11264627312E+03  0.17791429187E+03  0.47000000000E+01 0. -1.
         -5    1    3    3    0  502  0.20917324826E+03 -0.13407445288E+03  0.47515553501E+03  0.53621290468E+03  0.47000000000E+01 0. -1.
        -11    1    4    4    0    0 -0.26754777978E+03  0.20376284543E+03  0.50969197948E+03  0.61064476219E+03  0.00000000000E+00 0. -1.
         11    1    4    4    0    0 -0.51170288762E+02  0.13631201494E+02  0.37799528804E+02  0.65061605298E+02  0.00000000000E+00 0.  1.
<mgrwt>
<rscale>  0 0.40314253E+03</rscale>
<asrwt>0</asrwt>
<pdfrwt beam="1">  1        2 0.19424052E+00 0.40554493E+03</pdfrwt>
<pdfrwt beam="2">  1       -2 0.19580020E-01 0.40554493E+03</pdfrwt>
<totfact> 0.39802861E+02</totfact>
</mgrwt>
</event>
<event>
 8    1  0.1646661E-005  0.1343055E+03  0.7546771E-02  0.1233000E+00
         -1   -1    0    0    0  501 -0.00000000000E+00  0.00000000000E+00  0.79960080979E+02  0.79960080979E+02  0.00000000000E+00 0.  1.
          1   -1    0    0  501    0  0.00000000000E+00 -0.00000000000E+00 -0.18640521577E+03  0.18640521577E+03  0.00000000000E+00 0. -1.
         23    2    1    2    0    0  0.38531338859E+02  0.30475997324E+02 -0.33580366865E+02  0.13843994511E+03  0.12499810749E+03 0.  0.
         23    2    1    2    0    0 -0.38531338859E+02 -0.30475997324E+02 -0.72864767927E+02  0.12792535164E+03  0.92963276080E+02 0.  0.
          5    1    3    3  502    0  0.45311814863E+02  0.26810481047E+02 -0.77384869928E+02  0.93714836359E+02  0.47000000000E+01 0. -1.
         -5    1    3    3    0  502 -0.67804760047E+01  0.36655162772E+01  0.43804503062E+02  0.44725108753E+02  0.47000000000E+01 0. -1.
        -11    1    4    4    0    0 -0.18938815828E+02 -0.25032959235E+02  0.17062613479E+02  0.35727588385E+02  0.00000000000E+00 0.  1.
         11    1    4    4    0    0 -0.19592523031E+02 -0.54430380884E+01 -0.89927381407E+02  0.92197763254E+02  0.00000000000E+00 0. -1.
<mgrwt>
<rscale>  0 0.12633344E+03</rscale>
<asrwt>0</asrwt>
<pdfrwt beam="2">  1        1 0.28677726E-01 0.13430554E+03</pdfrwt>
<pdfrwt beam="1">  1       -1 0.12301551E-01 0.13430554E+03</pdfrwt>
<totfact> 0.67102485E+03</totfact>
</mgrwt>
</event>
<event>
 8    1  0.1646661E-005  0.2390221E+03  0.7546771E-02  0.1123123E+00
         -1   -1    0    0    0  501 -0.00000000000E+00  0.00000000000E+00  0.53479554844E+02  0.53479554844E+02  0.00000000000E+00 0.  1.
          1   -1    0    0  501    0  0.00000000000E+00 -0.00000000000E+00 -0.10008880730E+04  0.10008880730E+04  0.00000000000E+00 0. -1.
         23    2    1    2    0    0  0.56595067338E+02 -0.19571435874E+03 -0.47822845421E+03  0.53463445433E+03  0.12499773390E+03 0.  0.
         23    2    1    2    0    0 -0.56595067338E+02  0.19571435874E+03 -0.46918006399E+03  0.51973317356E+03  0.92116922348E+02 0.  0.
          5    1    3    3  502    0 -0.14167603469E+02 -0.45599837144E+02 -0.29856013906E+02  0.56511394444E+02  0.47000000000E+01 0.  1.
         -5    1    3    3    0  502  0.70762670807E+02 -0.15011452160E+03 -0.44837244030E+03  0.47812305989E+03  0.47000000000E+01 0.  1.
        -11    1    4    4    0    0  0.16221582677E+02  0.88482868902E+02 -0.24197180256E+03  0.25815249577E+03  0.00000000000E+00 0. -1.
         11    1    4    4    0    0 -0.72816650015E+02  0.10723148984E+03 -0.22720826143E+03  0.26158067779E+03  0.00000000000E+00 0.  1.
<mgrwt>
<rscale>  0 0.23506704E+03</rscale>
<asrwt>0</asrwt>
<pdfrwt beam="2">  1        1 0.15398276E+00 0.23902206E+03</pdfrwt>
<pdfrwt beam="1">  1       -1 0.82276249E-02 0.23902206E+03</pdfrwt>
<totfact> 0.13177628E+03</totfact>
</mgrwt>
</event>
<event>
 8    1  0.1646661E-005  0.1482308E+03  0.7546771E-02  0.1212519E+00
          1   -1    0    0  501    0  0.00000000000E+00  0.00000000000E+00  0.13804113616E+03  0.13804113616E+03  0.00000000000E+00 0. -1.
         -1   -1    0    0    0  501 -0.00000000000E+00 -0.00000000000E+00 -0.13312784836E+03  0.13312784836E+03  0.00000000000E+00 0.  1.
         23    2    1    2    0    0  0.63270020622E+01 -0.79422524218E+02 -0.16948652813E+02  0.14919656213E+03  0.12499755603E+03 0.  0.
         23    2    1    2    0    0 -0.63270020622E+01  0.79422524218E+02  0.21861940611E+02  0.12197242238E+03  0.89729365685E+02 0.  0.
          5    1    3    3  502    0  0.48152430045E+02 -0.23672037657E+02 -0.48562456945E+02  0.72521887115E+02  0.47000000000E+01 0.  1.
         -5    1    3    3    0  502 -0.41825427983E+02 -0.55750486560E+02  0.31613804132E+02  0.76674675020E+02  0.47000000000E+01 0.  1.
        -11    1    4    4    0    0 -0.20422542150E+02 -0.10549599675E+02 -0.10570165256E+02  0.25300250487E+02  0.00000000000E+00 0.  1.
         11    1    4    4    0    0  0.14095540088E+02  0.89972123892E+02  0.32432105866E+02  0.96672171896E+02  0.00000000000E+00 0. -1.
<mgrwt>
<rscale>  0 0.14060363E+03</rscale>
<asrwt>0</asrwt>
<pdfrwt beam="1">  1        1 0.21237098E-01 0.14823076E+03</pdfrwt>
<pdfrwt beam="2">  1       -1 0.20481207E-01 0.14823076E+03</pdfrwt>
<totfact> 0.44096031E+03</totfact>
</mgrwt>
</event>
<event>
 8    1  0.1646661E-005  0.1359041E+03  0.7546771E-02  0.1225883E+00
          3   -1    0    0  501    0  0.00000000000E+00  0.00000000000E+00  0.57428338555E+02  0.57428338555E+02  0.00000000000E+00 0. -1.
         -3   -1    0    0    0  501 -0.00000000000E+00 -0.00000000000E+00 -0.43419629227E+03  0.43419629227E+03  0.00000000000E+00 0.  1.
         23    2    1    2    0    0 -0.67304003408E+02  0.35031639213E+02 -0.34356074310E+03  0.36946434689E+03  0.11275138492E+03 0.  0.
         23    2    1    2    0    0  0.67304003408E+02 -0.35031639213E+02 -0.33207210605E+02  0.12216028393E+03  0.89796277833E+02 0.  0.
          5    1    3    3  502    0  0.24373926544E+02  0.34812203640E+02 -0.13462632290E+03  0.14125266240E+03  0.47000000000E+01 0. -1.
         -5    1    3    3    0  502 -0.91677929952E+02  0.21943557357E+00 -0.20893442020E+03  0.22821168449E+03  0.47000000000E+01 0. -1.
        -11    1    4    4    0    0  0.18122958120E+02  0.28138680222E+02 -0.24811483039E+02  0.41663372718E+02  0.00000000000E+00 0.  1.
         11    1    4    4    0    0  0.49181045288E+02 -0.63170319435E+02 -0.83957275662E+01  0.80496911211E+02  0.00000000000E+00 0. -1.
<mgrwt>
<rscale>  0 0.13106584E+03</rscale>
<asrwt>0</asrwt>
<pdfrwt beam="1">  1        3 0.88351293E-02 0.13590408E+03</pdfrwt>
<pdfrwt beam="2">  1       -3 0.66799428E-01 0.13590408E+03</pdfrwt>
<totfact> 0.46227373E+02</totfact>
</mgrwt>
</event>
<event>
 8    1  0.1646661E-005  0.2092244E+03  0.7546771E-02  0.1146808E+00
          1   -1    0    0  501    0  0.00000000000E+00  0.00000000000E+00  0.93089937723E+03  0.93089937723E+03  0.00000000000E+00 0. -1.
         -1   -1    0    0    0  501 -0.00000000000E+00 -0.00000000000E+00 -0.45892552891E+02  0.45892552891E+02  0.00000000000E+00 0.  1.
         23    2    1    2    0    0 -0.12868096599E+03 -0.10766222307E+03  0.32715855025E+03  0.38833951687E+03  0.12499967230E+03 0.  0.
         23    2    1    2    0    0  0.12868096599E+03  0.10766222307E+03  0.55784827409E+03  0.58845241326E+03  0.83256233843E+02 0.  0.
          5    1    3    3  502    0 -0.60254794126E+02 -0.12429522128E+03  0.22824335584E+03  0.26682777541E+03  0.47000000000E+01 0. -1.
         -5    1    3    3    0  502 -0.68426171866E+02  0.16632998212E+02  0.98915194410E+02  0.12151174145E+03  0.47000000000E+01 0. -1.
        -11    1    4    4    0    0  0.20754374399E+02  0.33432576962E+02  0.48113497458E+02  0.62156173439E+02  0.00000000000E+00 0.  1.
         11    1    4    4    0    0  0.10792659159E+03  0.74229646106E+02  0.50973477663E+03  0.52629623982E+03  0.00000000000E+00 0. -1.
<mgrwt>
<rscale>  0 0.20351393E+03</rscale>
<asrwt>0</asrwt>
<pdfrwt beam="1">  1        1 0.14321528E+00 0.20922443E+03</pdfrwt>
<pdfrwt beam="2">  1       -1 0.70603934E-02 0.20922443E+03</pdfrwt>
<totfact> 0.18786773E+03</totfact>
</mgrwt>
</event>
<event>
 8    1  0.1646661E-005  0.1306281E+03  0.7546771E-02  0.1239772E+00
         -2   -1    0    0    0  501 -0.00000000000E+00  0.00000000000E+00  0.45634428066E+02  0.45634428066E+02  0.00000000000E+00 0.  1.
          2   -1    0    0  501    0  0.00000000000E+00 -0.00000000000E+00 -0.29262075204E+03  0.29262075204E+03  0.00000000000E+00 0. -1.
         23    2    1    2    0    0 -0.17159490850E+02  0.33827205182E+02 -0.12465983431E+03  0.18056516091E+03  0.12499990043E+03 0.  0.
         23    2    1    2    0    0  0.17159490850E+02 -0.33827205182E+02 -0.12232648966E+03  0.15769001919E+03  0.91998065982E+02 0.  0.
          5    1    3    3  502    0 -0.34043647084E+02  0.45212874355E+02 -0.14230125523E+03  0.15321524452E+03  0.47000000000E+01 0.  1.
         -5    1    3    3    0  502  0.16884156234E+02 -0.11385669173E+02  0.17641420919E+02  0.27349916385E+02  0.47000000000E+01 0.  1.
        -11    1    4    4    0    0  0.16592035193E+02  0.58221944933E+01  0.95297744637E+01  0.20000254546E+02  0.00000000000E+00 0.  1.
         11    1    4    4    0    0  0.56745565679E+00 -0.39649399675E+02 -0.13185626412E+03  0.13768976465E+03  0.00000000000E+00 0. -1.
<mgrwt>
<rscale>  0 0.12203795E+03</rscale>
<asrwt>0</asrwt>
<pdfrwt beam="2">  1        2 0.45018578E-01 0.13062811E+03</pdfrwt>
<pdfrwt beam="1">  1       -2 0.70206811E-02 0.13062811E+03</pdfrwt>
<totfact> 0.12243795E+04</totfact>
</mgrwt>
</event>
<event>
 8    1  0.1646661E-005  0.1726083E+03  0.7546771E-02  0.1181320E+00
          1   -1    0    0  501    0  0.00000000000E+00  0.00000000000E+00  0.63342041979E+02  0.63342041979E+02  0.00000000000E+00 0. -1.
         -1   -1    0    0    0  501 -0.00000000000E+00 -0.00000000000E+00 -0.63743236697E+03  0.63743236697E+03  0.00000000000E+00 0.  1.
         23    2    1    2    0    0 -0.49542965457E+01 -0.11892789781E+03 -0.50827030778E+03  0.53677958948E+03  0.12500092789E+03 0.  0.
         23    2    1    2    0    0  0.49542965457E+01  0.11892789781E+03 -0.65820017206E+02  0.16399481947E+03  0.91616790029E+02 0.  0.
          5    1    3    3  502    0 -0.37948670240E+02 -0.16873457330E+02 -0.29567552733E+03  0.29861500732E+03  0.47000000000E+01 0.  1.
         -5    1    3    3    0  502  0.32994373695E+02 -0.10205444048E+03 -0.21259478045E+03  0.23816458216E+03  0.47000000000E+01 0.  1.
        -11    1    4    4    0    0  0.20317481738E+02  0.24039852904E+02  0.18172436963E+02  0.36344904141E+02  0.00000000000E+00 0.  1.
         11    1    4    4    0    0 -0.15363185192E+02  0.94888044909E+02 -0.83992454169E+02  0.12764991533E+03  0.00000000000E+00 0. -1.
<mgrwt>
<rscale>  0 0.16671263E+03</rscale>
<asrwt>0</asrwt>
<pdfrwt beam="1">  1        1 0.97449292E-02 0.17260829E+03</pdfrwt>
<pdfrwt beam="2">  1       -1 0.98066521E-01 0.17260829E+03</pdfrwt>
<totfact> 0.69640374E+02</totfact>
</mgrwt>
</event>
<event>
 8    1  0.1646661E-005  0.1428605E+03  0.7546771E-02  0.1220525E+00
          2   -1    0    0  501    0  0.00000000000E+00  0.00000000000E+00  0.12915601031E+03  0.12915601031E+03  0.00000000000E+00 0. -1.
         -2   -1    0    0    0  501 -0.00000000000E+00 -0.00000000000E+00 -0.17683744456E+03  0.17683744456E+03  0.00000000000E+00 0.  1.
         23    2    1    2    0    0 -0.48268406369E+02  0.49540752306E+02 -0.10672897831E+03  0.17832610892E+03  0.12500000448E+03 0.  0.
         23    2    1    2    0    0  0.48268406369E+02 -0.49540752306E+02  0.59047544053E+02  0.12766734596E+03  0.89600298954E+02 0.  0.
          5    1    3    3  502    0  0.35651350609E+02  0.44968175451E+02 -0.32622589758E+02  0.66177631917E+02  0.47000000000E+01 0. -1.
         -5    1    3    3    0  502 -0.83919756978E+02  0.45725768553E+01 -0.74106388548E+02  0.11214847700E+03  0.47000000000E+01 0. -1.
        -11    1    4    4    0    0 -0.10735834206E+02 -0.48915527146E+02  0.10299245293E+02  0.51127892443E+02  0.00000000000E+00 0.  1.
         11    1    4    4    0    0  0.59004240575E+02 -0.62522516078E+00  0.48748298760E+02  0.76539453515E+02  0.00000000000E+00 0. -1.
<mgrwt>
<rscale>  0 0.13478380E+03</rscale>
<asrwt>0</asrwt>
<pdfrwt beam="1">  1        2 0.19870155E-01 0.14286051E+03</pdfrwt>
<pdfrwt beam="2">  1       -2 0.27205761E-01 0.14286051E+03</pdfrwt>
<totfact> 0.32966435E+03</totfact>
</mgrwt>
</event>
<event>
 8    1  0.1646661E-005  0.1309431E+03  0.7546771E-02  0.1240916E+00
          3   -1    0    0  501    0  0.00000000000E+00  0.00000000000E+00  0.11807554997E+03  0.11807554997E+03  0.00000000000E+00 0. -1.
         -3   -1    0    0    0  501 -0.00000000000E+00 -0.00000000000E+00 -0.14642630662E+03  0.14642630662E+03  0.00000000000E+00 0.  1.
         23    2    1    2    0    0 -0.39289096409E+02 -0.16742798897E+01 -0.81573614297E+02  0.15427365982E+03  0.12489864393E+03 0.  0.
         23    2    1    2    0    0  0.39289096409E+02  0.16742798897E+01  0.53222857647E+02  0.11022819676E+03  0.88154106406E+02 0.  0.
          5    1    3    3  502    0 -0.62080348950E+02  0.25096221140E+02 -0.95020777669E+02  0.11633928068E+03  0.47000000000E+01 0. -1.
         -5    1    3    3    0  502  0.22791252541E+02 -0.26770501030E+02  0.13447163372E+02  0.37934379137E+02  0.47000000000E+01 0. -1.
        -11    1    4    4    0    0  0.55199621209E+02 -0.27590122042E+02  0.25047545716E+02  0.66600244461E+02  0.00000000000E+00 0.  1.
         11    1    4    4    0    0 -0.15910524800E+02  0.29264401932E+02  0.28175311930E+02  0.43627952304E+02  0.00000000000E+00 0. -1.
<mgrwt>
<rscale>  0 0.12133190E+03</rscale>
<asrwt>0</asrwt>
<pdfrwt beam="1">  1        3 0.18165469E-01 0.13094315E+03</pdfrwt>
<pdfrwt beam="2">  1       -3 0.22527124E-01 0.13094315E+03</pdfrwt>
<totfact> 0.11053321E+03</totfact>
</mgrwt>
</event>
<event>
 8    1  0.1646661E-005  0.1932844E+03  0.7546771E-02  0.1160631E+00
          2   -1    0    0  501    0  0.00000000000E+00  0.00000000000E+00  0.11531732416E+04  0.11531732416E+04  0.00000000000E+00 0. -1.
         -2   -1    0    0    0  501 -0.00000000000E+00 -0.00000000000E+00 -0.41776350424E+02  0.41776350424E+02  0.00000000000E+00 0.  1.
         23    2    1    2    0    0  0.14675595322E+03  0.14007730928E+02  0.24673608967E+03  0.31342869802E+03  0.12500129788E+03 0.  0.
         23    2    1    2    0    0 -0.14675595322E+03 -0.14007730928E+02  0.86466080150E+03  0.88152089399E+03  0.87790993622E+02 0.  0.
          5    1    3    3  502    0  0.14895233584E+03  0.49203630657E+02  0.18965262276E+03  0.24616661622E+03  0.47000000000E+01 0.  1.
         -5    1    3    3    0  502 -0.21963826251E+01 -0.35195899729E+02  0.57083466902E+02  0.67262081799E+02  0.47000000000E+01 0.  1.
        -11    1    4    4    0    0 -0.11466126714E+03 -0.48205162415E+02  0.60390539396E+03  0.61658143722E+03  0.00000000000E+00 0. -1.
         11    1    4    4    0    0 -0.32094686078E+02  0.34197431487E+02  0.26075540754E+03  0.26493945677E+03  0.00000000000E+00 0.  1.
<mgrwt>
<rscale>  0 0.18761443E+03</rscale>
<asrwt>0</asrwt>
<pdfrwt beam="1">  1        2 0.17741124E+00 0.19328438E+03</pdfrwt>
<pdfrwt beam="2">  1       -2 0.64271317E-02 0.19328438E+03</pdfrwt>
<totfact> 0.28160555E+03</totfact>
</mgrwt>
</event>
<event>
 8    1  0.1646661E-005  0.1746399E+03  0.7546771E-02  0.1179143E+00
         -1   -1    0    0    0  501 -0.00000000000E+00  0.00000000000E+00  0.55328786643E+03  0.55328786643E+03  0.00000000000E+00 0.  1.
          1   -1    0    0  501    0  0.00000000000E+00 -0.00000000000E+00 -0.57438093274E+02  0.57438093274E+02  0.00000000000E+00 0. -1.
         23    2    1    2    0    0 -0.15174970982E+02 -0.12099210629E+03  0.38375693709E+03  0.42162599504E+03  0.12501889215E+03 0.  0.
         23    2    1    2    0    0  0.15174970982E+02  0.12099210629E+03  0.11209283606E+03  0.18909996467E+03  0.91239373137E+02 0.  0.
          5    1    3    3  502    0  0.42787236121E+02 -0.63412083276E+01  0.68311906786E+02  0.80991142149E+02  0.47000000000E+01 0. -1.
         -5    1    3    3    0  502 -0.57962207102E+02 -0.11465089797E+03  0.31544503031E+03  0.34063485289E+03  0.47000000000E+01 0. -1.
        -11    1    4    4    0    0 -0.12310864116E+02  0.12403192624E+03  0.91993685204E+02  0.15491389292E+03  0.00000000000E+00 0.  1.
         11    1    4    4    0    0  0.27485835097E+02 -0.30398199445E+01  0.20099150861E+02  0.34186071749E+02  0.00000000000E+00 0. -1.
<mgrwt>
<rscale>  0 0.16876389E+03</rscale>
<asrwt>0</asrwt>
<pdfrwt beam="2">  1        1 0.88366301E-02 0.17463989E+03</pdfrwt>
<pdfrwt beam="1">  1       -1 0.85121207E-01 0.17463989E+03</pdfrwt>
<totfact> 0.10759122E+03</totfact>
</mgrwt>
</event>
<event>
 8    1  0.1646661E-005  0.2845747E+03  0.7546771E-02  0.1095296E+00
         -2   -1    0    0    0  501 -0.00000000000E+00  0.00000000000E+00  0.44766754649E+03  0.44766754649E+03  0.00000000000E+00 0.  1.
          2   -1    0    0  501    0  0.00000000000E+00 -0.00000000000E+00 -0.23262782255E+03  0.23262782255E+03  0.00000000000E+00 0. -1.
         23    2    1    2    0    0 -0.25270765209E+03  0.38683453303E+02  0.28410512652E+03  0.40211749576E+03  0.12500076199E+03 0.  0.
         23    2    1    2    0    0  0.25270765209E+03 -0.38683453303E+02 -0.69065402581E+02  0.27817787328E+03  0.85178238792E+02 0.  0.
          5    1    3    3  502    0 -0.47382724309E+02  0.36350622497E+02  0.11831298923E+02  0.61061935386E+02  0.47000000000E+01 0.  1.
         -5    1    3    3    0  502 -0.20532492778E+03  0.23328308061E+01  0.27227382760E+03  0.34105556037E+03  0.47000000000E+01 0.  1.
        -11    1    4    4    0    0  0.19404031192E+03 -0.60911039990E+02 -0.33668288966E+02  0.20614400579E+03  0.00000000000E+00 0.  1.
         11    1    4    4    0    0  0.58667340167E+02  0.22227586687E+02 -0.35397113614E+02  0.72033867482E+02  0.00000000000E+00 0. -1.
<mgrwt>
<rscale>  0 0.28072037E+03</rscale>
<asrwt>0</asrwt>
<pdfrwt beam="2">  1        2 0.35788896E-01 0.28457470E+03</pdfrwt>
<pdfrwt beam="1">  1       -2 0.68871930E-01 0.28457470E+03</pdfrwt>
<totfact> 0.28655896E+02</totfact>
</mgrwt>
</event>
<event>
 8    1  0.1646661E-005  0.1330300E+03  0.7546771E-02  0.1232413E+00
         -1   -1    0    0    0  501 -0.00000000000E+00  0.00000000000E+00  0.33488855428E+02  0.33488855428E+02  0.00000000000E+00 0.  1.
          1   -1    0    0  501    0  0.00000000000E+00 -0.00000000000E+00 -0.43919011678E+03  0.43919011678E+03  0.00000000000E+00 0. -1.
         23    2    1    2    0    0  0.23031152237E+02  0.39266141726E+02 -0.22478520822E+03  0.26119988067E+03  0.12499889586E+03 0.  0.
         23    2    1    2    0    0 -0.23031152237E+02 -0.39266141726E+02 -0.18091605313E+03  0.21147909154E+03  0.99601827385E+02 0.  0.
          5    1    3    3  502    0 -0.46989174003E+02 -0.81978761001E+01 -0.71937490025E+02  0.86442351409E+02  0.47000000000E+01 0. -1.
         -5    1    3    3    0  502  0.70020326240E+02  0.47464017827E+02 -0.15284771819E+03  0.17475752926E+03  0.47000000000E+01 0. -1.
        -11    1    4    4    0    0 -0.31429897977E+02  0.27765401082E+02 -0.71185512641E+02  0.82620416327E+02  0.00000000000E+00 0.  1.
         11    1    4    4    0    0  0.83987457405E+01 -0.67031542808E+02 -0.10973054049E+03  0.12885867521E+03  0.00000000000E+00 0. -1.
<mgrwt>
<rscale>  0 0.12671478E+03</rscale>
<asrwt>0</asrwt>
<pdfrwt beam="2">  1        1 0.67567713E-01 0.13303003E+03</pdfrwt>
<pdfrwt beam="1">  1       -1 0.51521314E-02 0.13303003E+03</pdfrwt>
<totfact> 0.85869396E+03</totfact>
</mgrwt>
</event>
<event>
 8    1  0.1646661E-005  0.1872030E+03  0.7546771E-02  0.1165381E+00
          2   -1    0    0  501    0  0.00000000000E+00  0.00000000000E+00  0.86044521853E+03  0.86044521853E+03  0.00000000000E+00 0. -1.
         -2   -1    0    0    0  501 -0.00000000000E+00 -0.00000000000E+00 -0.41210369181E+02  0.41210369181E+02  0.00000000000E+00 0.  1.
         23    2    1    2    0    0  0.11995564646E+03 -0.77699253858E+02  0.28256942800E+03  0.33895491824E+03  0.12090667389E+03 0.  0.
         23    2    1    2    0    0 -0.11995564646E+03  0.77699253858E+02  0.53666542134E+03  0.56270066947E+03  0.90530314162E+02 0.  0.
          5    1    3    3  502    0  0.13551469366E+03 -0.42409515174E+02  0.18027041744E+03  0.22952627862E+03  0.47000000000E+01 0. -1.
         -5    1    3    3    0  502 -0.15559047204E+02 -0.35289738683E+02  0.10229901057E+03  0.10942863962E+03  0.47000000000E+01 0.  1.
        -11    1    4    4    0    0 -0.13480304886E+03  0.66147894361E+02  0.48526163840E+03  0.50796285653E+03  0.00000000000E+00 0.  1.
         11    1    4    4    0    0  0.14847402397E+02  0.11551359496E+02  0.51403782942E+02  0.54737812935E+02  0.00000000000E+00 0. -1.
<mgrwt>
<rscale>  0 0.18252509E+03</rscale>
<asrwt>0</asrwt>
<pdfrwt beam="1">  1        2 0.13237617E+00 0.18720298E+03</pdfrwt>
<pdfrwt beam="2">  1       -2 0.63400575E-02 0.18720298E+03</pdfrwt>
<totfact> 0.43263017E+03</totfact>
</mgrwt>
</event>
<event>
 8    1  0.1646661E-005  0.1412677E+03  0.7546771E-02  0.1224910E+00
         -2   -1    0    0    0  501 -0.00000000000E+00  0.00000000000E+00  0.73141511982E+03  0.73141511982E+03  0.00000000000E+00 0.  1.
          2   -1    0    0  501    0  0.00000000000E+00 -0.00000000000E+00 -0.21547201397E+02  0.21547201397E+02  0.00000000000E+00 0. -1.
         23    2    1    2    0    0 -0.51387774344E+02  0.41116660190E+02  0.46052253561E+03  0.48170278314E+03  0.12500112954E+03 0.  0.
         23    2    1    2    0    0  0.51387774344E+02 -0.41116660190E+02  0.24934538281E+03  0.27125953807E+03  0.84126892067E+02 0.  0.
          5    1    3    3  502    0  0.26289204135E+02  0.75473296865E+00  0.22307214601E+02  0.34805081513E+02  0.47000000000E+01 0. -1.
         -5    1    3    3    0  502 -0.77676978479E+02  0.40361927222E+02  0.43821532101E+03  0.44689770163E+03  0.47000000000E+01 0. -1.
        -11    1    4    4    0    0  0.15309099411E+02  0.25490754227E+02  0.90850428312E+02  0.95592611641E+02  0.00000000000E+00 0.  1.
         11    1    4    4    0    0  0.36078674933E+02 -0.66607414418E+02  0.15849495450E+03  0.17566692643E+03  0.00000000000E+00 0. -1.
<mgrwt>
<rscale>  0 0.13173049E+03</rscale>
<asrwt>0</asrwt>
<pdfrwt beam="2">  1        2 0.33149546E-02 0.14126771E+03</pdfrwt>
<pdfrwt beam="1">  1       -2 0.11252538E+00 0.14126771E+03</pdfrwt>
<totfact> 0.17085392E+03</totfact>
</mgrwt>
</event>
<event>
 8    1  0.1646661E-005  0.2143436E+03  0.7546771E-02  0.1141661E+00
         -1   -1    0    0    0  501 -0.00000000000E+00  0.00000000000E+00  0.70330537772E+03  0.70330537772E+03  0.00000000000E+00 0.  1.
          1   -1    0    0  501    0  0.00000000000E+00 -0.00000000000E+00 -0.62150895952E+02  0.62150895952E+02  0.00000000000E+00 0. -1.
         23    2    1    2    0    0 -0.16066307494E+03 -0.67121512384E+02  0.40210755895E+03  0.45566838544E+03  0.12500106978E+03 0.  0.
         23    2    1    2    0    0  0.16066307494E+03  0.67121512384E+02  0.23904692282E+03  0.30978788824E+03  0.92234393336E+02 0.  0.
          5    1    3    3  502    0 -0.66783710430E+01  0.74585582010E+01 -0.63823696553E+01  0.12769313711E+02  0.47000000000E+01 0. -1.
         -5    1    3    3    0  502 -0.15398470390E+03 -0.74580070585E+02  0.40848992860E+03  0.44289907172E+03  0.47000000000E+01 0. -1.
        -11    1    4    4    0    0  0.15755844523E+03  0.35805054792E+02  0.22015074303E+03  0.27308060214E+03  0.00000000000E+00 0.  1.
         11    1    4    4    0    0  0.31046297160E+01  0.31316457593E+02  0.18896179798E+02  0.36707286099E+02  0.00000000000E+00 0. -1.
<mgrwt>
<rscale>  0 0.20988046E+03</rscale>
<asrwt>0</asrwt>
<pdfrwt beam="2">  1        1 0.95616768E-02 0.21434362E+03</pdfrwt>
<pdfrwt beam="1">  1       -1 0.10820082E+00 0.21434362E+03</pdfrwt>
<totfact> 0.57422580E+02</totfact>
</mgrwt>
</event>
<event>
 7    1  0.1646661E-005  0.1484296E+03  0.7546771E-02  0.1210668E+00
          2   -1    0    0  501    0  0.00000000000E+00  0.00000000000E+00  0.47555760219E+03  0.47555760219E+03  0.00000000000E+00 0. -1.
         -2   -1    0    0    0  501 -0.00000000000E+00 -0.00000000000E+00 -0.46026401319E+02  0.46026401319E+02  0.00000000000E+00 0.  1.
         23    2    1    2    0    0 -0.53214192837E+02  0.67243952085E+01  0.97863351878E+02  0.15821794289E+03  0.11215486615E+03 0.  0.
          5    1    1    2  502    0 -0.28985491912E+02 -0.25737104688E+02  0.21941984998E+03  0.22286704077E+03  0.47000000000E+01 0. -1.
         -5    1    1    2    0  502  0.82199684749E+02  0.19012709479E+02  0.11224799901E+03  0.14049901984E+03  0.47000000000E+01 0.  1.
        -11    1    3    3    0    0 -0.32438989090E+02 -0.38448542949E+02  0.96094364981E+02  0.10846522691E+03  0.00000000000E+00 0.  1.
         11    1    3    3    0    0 -0.20775203747E+02  0.45172938157E+02  0.17689868973E+01  0.49752715977E+02  0.00000000000E+00 0. -1.
<mgrwt>
<rscale>  0 0.14199606E+03</rscale>
<asrwt>0</asrwt>
<pdfrwt beam="1">  1        2 0.73162705E-01 0.14842955E+03</pdfrwt>
<pdfrwt beam="2">  1       -2 0.70809851E-02 0.14842955E+03</pdfrwt>
<totfact> 0.72552996E+03</totfact>
</mgrwt>
</event>
<event>
 8    1  0.1646661E-005  0.1254355E+03  0.7546771E-02  0.1251375E+00
         -2   -1    0    0    0  501 -0.00000000000E+00  0.00000000000E+00  0.34084628443E+03  0.34084628443E+03  0.00000000000E+00 0.  1.
          2   -1    0    0  501    0  0.00000000000E+00 -0.00000000000E+00 -0.34276899675E+02  0.34276899675E+02  0.00000000000E+00 0. -1.
         23    2    1    2    0    0 -0.10299591434E+02 -0.18912589868E+01  0.20244893117E+03  0.23815882131E+03  0.12499758395E+03 0.  0.
         23    2    1    2    0    0  0.10299591434E+02  0.18912589868E+01  0.10412045358E+03  0.13696436279E+03  0.88365770383E+02 0.  0.
          5    1    3    3  502    0 -0.66955929154E+01 -0.40744254145E+02  0.11376743364E+02  0.43086488600E+02  0.47000000000E+01 0. -1.
         -5    1    3    3    0  502 -0.36039985188E+01  0.38852995158E+02  0.19107218780E+03  0.19507233271E+03  0.47000000000E+01 0. -1.
        -11    1    4    4    0    0  0.40266881667E+02 -0.22015468112E+02  0.78256296561E+02  0.90720177176E+02  0.00000000000E+00 0. -1.
         11    1    4    4    0    0 -0.29967290233E+02  0.23906727099E+02  0.25864157022E+02  0.46244185612E+02  0.00000000000E+00 0.  1.
<mgrwt>
<rscale>  0 0.11511803E+03</rscale>
<asrwt>0</asrwt>
<pdfrwt beam="2">  1        2 0.52733694E-02 0.12543546E+03</pdfrwt>
<pdfrwt beam="1">  1       -2 0.52437888E-01 0.12543546E+03</pdfrwt>
<totfact> 0.48194793E+03</totfact>
</mgrwt>
</event>
<event>
 8    1  0.1646661E-005  0.1339584E+03  0.7546771E-02  0.1228551E+00
         -1   -1    0    0    0  501 -0.00000000000E+00  0.00000000000E+00  0.20758861402E+03  0.20758861402E+03  0.00000000000E+00 0.  1.
          1   -1    0    0  501    0  0.00000000000E+00 -0.00000000000E+00 -0.10352912526E+03  0.10352912526E+03  0.00000000000E+00 0. -1.
         23    2    1    2    0    0 -0.67308794700E+02 -0.31268077145E+02  0.13575782023E+03  0.19072242788E+03  0.11151991862E+03 0.  0.
         23    2    1    2    0    0  0.67308794700E+02  0.31268077145E+02 -0.31698331475E+02  0.12039531140E+03  0.89342488747E+02 0.  0.
          5    1    3    3  502    0  0.13321390731E+02  0.29122397699E+02  0.41989972285E+02  0.53017179020E+02  0.47000000000E+01 0. -1.
         -5    1    3    3    0  502 -0.80630185431E+02 -0.60390474845E+02  0.93767847948E+02  0.13770524886E+03  0.47000000000E+01 0.  1.
        -11    1    4    4    0    0  0.29277200223E+01 -0.28067974362E+02 -0.36327096268E+01  0.28453107187E+02  0.00000000000E+00 0.  1.
         11    1    4    4    0    0  0.64381074678E+02  0.59336051508E+02 -0.28065621848E+02  0.91942204210E+02  0.00000000000E+00 0. -1.
<mgrwt>
<rscale>  0 0.12926472E+03</rscale>
<asrwt>0</asrwt>
<pdfrwt beam="2">  1        1 0.15927558E-01 0.13395842E+03</pdfrwt>
<pdfrwt beam="1">  1       -1 0.31936710E-01 0.13395842E+03</pdfrwt>
<totfact> 0.30445658E+03</totfact>
</mgrwt>
</event>
<event>
 8    1  0.1646661E-005  0.1590251E+03  0.7546771E-02  0.1198474E+00
         -2   -1    0    0    0  501 -0.00000000000E+00  0.00000000000E+00  0.23061582802E+03  0.23061582802E+03  0.00000000000E+00 0.  1.
          2   -1    0    0  501    0  0.00000000000E+00 -0.00000000000E+00 -0.10508839582E+03  0.10508839582E+03  0.00000000000E+00 0. -1.
         23    2    1    2    0    0  0.26910649567E+02  0.94534064772E+02  0.12810367621E+03  0.20420462387E+03  0.12501241573E+03 0.  0.
         23    2    1    2    0    0 -0.26910649567E+02 -0.94534064772E+02 -0.25762440203E+01  0.13149959997E+03  0.87319157672E+02 0.  0.
          5    1    3    3  502    0 -0.48512608893E+02  0.24009028758E+02  0.56987124047E+02  0.78737087771E+02  0.47000000000E+01 0.  1.
         -5    1    3    3    0  502  0.75423258460E+02  0.70525036014E+02  0.71116552168E+02  0.12546753609E+03  0.47000000000E+01 0.  1.
        -11    1    4    4    0    0  0.16026407257E+02 -0.55839076547E+02 -0.32337278487E+02  0.66487200115E+02  0.00000000000E+00 0.  1.
         11    1    4    4    0    0 -0.42937056823E+02 -0.38694988226E+02  0.29761034467E+02  0.65012399855E+02  0.00000000000E+00 0. -1.
<mgrwt>
<rscale>  0 0.15163850E+03</rscale>
<asrwt>0</asrwt>
<pdfrwt beam="2">  1        2 0.16167446E-01 0.15902508E+03</pdfrwt>
<pdfrwt beam="1">  1       -2 0.35479358E-01 0.15902508E+03</pdfrwt>
<totfact> 0.25960923E+03</totfact>
</mgrwt>
</event>
<event>
 8    1  0.1646661E-005  0.1668340E+03  0.7546771E-02  0.1186875E+00
         -2   -1    0    0    0  501 -0.00000000000E+00  0.00000000000E+00  0.11024432027E+03  0.11024432027E+03  0.00000000000E+00 0.  1.
          2   -1    0    0  501    0  0.00000000000E+00 -0.00000000000E+00 -0.32180280698E+03  0.32180280698E+03  0.00000000000E+00 0. -1.
         23    2    1    2    0    0  0.50665454794E+02  0.98188587610E+02  0.89336870546E+01  0.16707297300E+03  0.12500232197E+03 0.  0.
         23    2    1    2    0    0 -0.50665454794E+02 -0.98188587610E+02 -0.22049217376E+03  0.26497415426E+03  0.96884037318E+02 0.  0.
          5    1    3    3  502    0  0.48068576999E+02  0.12700218810E+03 -0.17211723954E+01  0.13588670395E+03  0.47000000000E+01 0. -1.
         -5    1    3    3    0  502  0.25968777945E+01 -0.28813600488E+02  0.10654859450E+02  0.31186269050E+02  0.47000000000E+01 0. -1.
        -11    1    4    4    0    0  0.63463696060E+01 -0.42922068143E+02 -0.15823170532E+03  0.16407270617E+03  0.00000000000E+00 0. -1.
         11    1    4    4    0    0 -0.57011824400E+02 -0.55266519467E+02 -0.62260468439E+02  0.10090144809E+03  0.00000000000E+00 0.  1.
<mgrwt>
<rscale>  0 0.16162414E+03</rscale>
<asrwt>0</asrwt>
<pdfrwt beam="2">  1        2 0.49508123E-01 0.16683395E+03</pdfrwt>
<pdfrwt beam="1">  1       -2 0.16960665E-01 0.16683395E+03</pdfrwt>
<totfact> 0.27628986E+03</totfact>
</mgrwt>
</event>
<event>
 8    1  0.1646661E-005  0.2353824E+03  0.7546771E-02  0.1124888E+00
          2   -1    0    0  501    0  0.00000000000E+00  0.00000000000E+00  0.24570865741E+03  0.24570865741E+03  0.00000000000E+00 0. -1.
         -2   -1    0    0    0  501 -0.00000000000E+00 -0.00000000000E+00 -0.22939325029E+03  0.22939325029E+03  0.00000000000E+00 0.  1.
         23    2    1    2    0    0  0.12807983766E+03 -0.15294480441E+03 -0.51551749987E+02  0.24096151979E+03  0.12493323450E+03 0.  0.
         23    2    1    2    0    0 -0.12807983766E+03  0.15294480441E+03  0.67867157108E+02  0.23414038792E+03  0.10207454251E+03 0.  0.
          5    1    3    3  502    0  0.44718159155E+02  0.15318763340E+02 -0.12194548883E+02  0.49042586504E+02  0.47000000000E+01 0.  1.
         -5    1    3    3    0  502  0.83361678500E+02 -0.16826356775E+03 -0.39357201104E+02  0.19191893329E+03  0.47000000000E+01 0.  1.
        -11    1    4    4    0    0 -0.93304167496E+02  0.34076928627E+02  0.40689720096E+02  0.10734317891E+03  0.00000000000E+00 0.  1.
         11    1    4    4    0    0 -0.34775670160E+02  0.11886787579E+03  0.27177437012E+02  0.12679720901E+03  0.00000000000E+00 0. -1.
<mgrwt>
<rscale>  0 0.23250671E+03</rscale>
<asrwt>0</asrwt>
<pdfrwt beam="1">  1        2 0.37801332E-01 0.23538239E+03</pdfrwt>
<pdfrwt beam="2">  1       -2 0.35291269E-01 0.23538239E+03</pdfrwt>
<totfact> 0.10267259E+03</totfact>
</mgrwt>
</event>
<event>
 8    1  0.1646661E-005  0.1418758E+03  0.7546771E-02  0.1221381E+00
          1   -1    0    0  501    0  0.00000000000E+00  0.00000000000E+00  0.22581372379E+03  0.22581372379E+03  0.00000000000E+00 0. -1.
         -1   -1    0    0    0  501 -0.00000000000E+00 -0.00000000000E+00 -0.87011547134E+02  0.87011547134E+02  0.00000000000E+00 0.  1.
         23    2    1    2    0    0  0.64151078222E+02  0.19772110816E+02  0.11612884366E+02  0.14235029219E+03  0.12498979718E+03 0.  0.
         23    2    1    2    0    0 -0.64151078222E+02 -0.19772110816E+02  0.12718929229E+03  0.17047497874E+03  0.91533081988E+02 0.  0.
          5    1    3    3  502    0  0.61192266255E+02  0.64191387476E+02 -0.15300266916E+02  0.90117788716E+02  0.47000000000E+01 0.  1.
         -5    1    3    3    0  502  0.29588119670E+01 -0.44419276660E+02  0.26913151281E+02  0.52232503474E+02  0.47000000000E+01 0.  1.
        -11    1    4    4    0    0 -0.58684717195E+02  0.10327858926E+02  0.26450493827E+02  0.65193476099E+02  0.00000000000E+00 0.  1.
         11    1    4    4    0    0 -0.54663610268E+01 -0.30099969741E+02  0.10073879846E+03  0.10528150264E+03  0.00000000000E+00 0. -1.
<mgrwt>
<rscale>  0 0.13418073E+03</rscale>
<asrwt>0</asrwt>
<pdfrwt beam="1">  1        1 0.34740573E-01 0.14187581E+03</pdfrwt>
<pdfrwt beam="2">  1       -1 0.13386392E-01 0.14187581E+03</pdfrwt>
<totfact> 0.46538387E+03</totfact>
</mgrwt>
</event>
<event>
 8    1  0.1646661E-005  0.1720806E+03  0.7546771E-02  0.1186648E+00
         -1   -1    0    0    0  501 -0.00000000000E+00  0.00000000000E+00  0.70392224806E+02  0.70392224806E+02  0.00000000000E+00 0.  1.
          1   -1    0    0  501    0  0.00000000000E+00 -0.00000000000E+00 -0.33417069783E+03  0.33417069783E+03  0.00000000000E+00 0. -1.
         23    2    1    2    0    0 -0.29651123716E+01 -0.11817966308E+03 -0.15233873271E+03  0.22982343493E+03  0.12504597995E+03 0.  0.
         23    2    1    2    0    0  0.29651123716E+01  0.11817966308E+03 -0.11143974031E+03  0.17473948771E+03  0.64341652029E+02 0.  0.
          5    1    3    3  502    0  0.48813271088E+02 -0.10095416070E+03 -0.12696785714E+03  0.16946210415E+03  0.47000000000E+01 0. -1.
         -5    1    3    3    0  502 -0.51778383460E+02 -0.17225502382E+02 -0.25370875570E+02  0.60361330777E+02  0.47000000000E+01 0. -1.
        -11    1    4    4    0    0  0.23575106546E+02  0.15741450125E+02 -0.13015488894E+02  0.31192657018E+02  0.00000000000E+00 0.  1.
         11    1    4    4    0    0 -0.20609994174E+02  0.10243821296E+03 -0.98424251418E+02  0.14354683069E+03  0.00000000000E+00 0. -1.
<mgrwt>
<rscale>  0 0.16182808E+03</rscale>
<asrwt>0</asrwt>
<pdfrwt beam="2">  1        1 0.51410877E-01 0.17208057E+03</pdfrwt>
<pdfrwt beam="1">  1       -1 0.10829573E-01 0.17208057E+03</pdfrwt>
<totfact> 0.40093321E+03</totfact>
</mgrwt>
</event>
<event>
 8    1  0.1646661E-005  0.1428424E+03  0.7546771E-02  0.1220140E+00
          2   -1    0    0  501    0  0.00000000000E+00  0.00000000000E+00  0.27644751693E+03  0.27644751693E+03  0.00000000000E+00 0. -1.
         -2   -1    0    0    0  501 -0.00000000000E+00 -0.00000000000E+00 -0.60330319665E+02  0.60330319665E+02  0.00000000000E+00 0.  1.
         23    2    1    2    0    0  0.11897089304E+02  0.68093856157E+02  0.10328838384E+03  0.17627375109E+03  0.12500252440E+03 0.  0.
         23    2    1    2    0    0 -0.11897089304E+02 -0.68093856157E+02  0.11282881343E+03  0.16050408551E+03  0.90845508121E+02 0.  0.
          5    1    3    3  502    0  0.33257656999E+02  0.87471668429E+02  0.11176767888E+03  0.14584741537E+03  0.47000000000E+01 0.  1.
         -5    1    3    3    0  502 -0.21360567696E+02 -0.19377812272E+02 -0.84792950458E+01  0.30426335718E+02  0.47000000000E+01 0.  1.
        -11    1    4    4    0    0 -0.47758768475E+02 -0.53236212896E+02  0.91752781677E+02  0.11633386126E+03  0.00000000000E+00 0.  1.
         11    1    4    4    0    0  0.35861679171E+02 -0.14857643261E+02  0.21076031754E+02  0.44170224255E+02  0.00000000000E+00 0. -1.
<mgrwt>
<rscale>  0 0.13505664E+03</rscale>
<asrwt>0</asrwt>
<pdfrwt beam="1">  1        2 0.42530386E-01 0.14284238E+03</pdfrwt>
<pdfrwt beam="2">  1       -2 0.92815878E-02 0.14284238E+03</pdfrwt>
<totfact> 0.85029676E+03</totfact>
</mgrwt>
</event>
<event>
 8    1  0.1646661E-005  0.1817817E+03  0.7546771E-02  0.1171664E+00
         -1   -1    0    0    0  501 -0.00000000000E+00  0.00000000000E+00  0.54240363127E+02  0.54240363127E+02  0.00000000000E+00 0.  1.
          1   -1    0    0  501    0  0.00000000000E+00 -0.00000000000E+00 -0.59985427834E+03  0.59985427834E+03  0.00000000000E+00 0. -1.
         23    2    1    2    0    0  0.10128864649E+03  0.84624645614E+02 -0.18389248469E+03  0.25857502201E+03  0.12499550204E+03 0.  0.
         23    2    1    2    0    0 -0.10128864649E+03 -0.84624645614E+02 -0.36172143052E+03  0.39551961945E+03  0.90402740653E+02 0.  0.
          5    1    3    3  502    0  0.66366944087E+02  0.73476070279E+02 -0.34932038685E+02  0.10509824688E+03  0.47000000000E+01 0. -1.
         -5    1    3    3    0  502  0.34921702408E+02  0.11148575335E+02 -0.14896044600E+03  0.15347677513E+03  0.47000000000E+01 0. -1.
        -11    1    4    4    0    0 -0.11156032556E+03 -0.47196154304E+02 -0.27040947862E+03  0.29630131513E+03  0.00000000000E+00 0. -1.
         11    1    4    4    0    0  0.10271679061E+02 -0.37428491310E+02 -0.91311951900E+02  0.99218304321E+02  0.00000000000E+00 0.  1.
<mgrwt>
<rscale>  0 0.17606726E+03</rscale>
<asrwt>0</asrwt>
<pdfrwt beam="2">  1        1 0.92285279E-01 0.18178173E+03</pdfrwt>
<pdfrwt beam="1">  1       -1 0.83446708E-02 0.18178173E+03</pdfrwt>
<totfact> 0.28016690E+03</totfact>
</mgrwt>
</event>
<event>
 8    1  0.1646661E-005  0.1341319E+03  0.7546771E-02  0.1233841E+00
         -2   -1    0    0    0  501 -0.00000000000E+00  0.00000000000E+00  0.14681386855E+03  0.14681386855E+03  0.00000000000E+00 0. -1.
          2   -1    0    0  501    0  0.00000000000E+00 -0.00000000000E+00 -0.10006963428E+03  0.10006963428E+03  0.00000000000E+00 0.  1.
         23    2    1    2    0    0 -0.34435826924E+02  0.34403060866E+02  0.49832531445E+02  0.14308968128E+03  0.12498791512E+03 0.  0.
         23    2    1    2    0    0  0.34435826924E+02 -0.34403060866E+02 -0.30882971779E+01  0.10379382154E+03  0.91619992568E+02 0.  0.
          5    1    3    3  502    0 -0.20071013377E+02  0.82985361176E+01 -0.41407108762E+02  0.46993083914E+02  0.47000000000E+01 0. -1.
         -5    1    3    3    0  502 -0.14364813546E+02  0.26104524749E+02  0.91239640207E+02  0.96096597368E+02  0.47000000000E+01 0. -1.
        -11    1    4    4    0    0  0.39044077727E+02  0.19756005481E+02 -0.18178062625E+02  0.47383348541E+02  0.00000000000E+00 0.  1.
         11    1    4    4    0    0 -0.46082508037E+01 -0.54159066347E+02  0.15089765447E+02  0.56410473002E+02  0.00000000000E+00 0. -1.
<mgrwt>
<rscale>  0 0.12578937E+03</rscale>
<asrwt>0</asrwt>
<pdfrwt beam="2">  1        2 0.15395328E-01 0.13413193E+03</pdfrwt>
<pdfrwt beam="1">  1       -2 0.22586749E-01 0.13413193E+03</pdfrwt>
<totfact> 0.60928999E+03</totfact>
</mgrwt>
</event>
<event>
 8    1  0.1646661E-005  0.1441365E+03  0.7546771E-02  0.1222008E+00
          2   -1    0    0  501    0  0.00000000000E+00  0.00000000000E+00  0.57765211712E+03  0.57765211712E+03  0.00000000000E+00 0. -1.
         -2   -1    0    0    0  501 -0.00000000000E+00 -0.00000000000E+00 -0.37529226379E+02  0.37529226379E+02  0.00000000000E+00 0.  1.
         23    2    1    2    0    0  0.69894110065E+02 -0.16259339158E+02  0.13961685537E+03  0.20066938815E+03  0.12500313718E+03 0.  0.
         23    2    1    2    0    0 -0.69894110065E+02  0.16259339158E+02  0.40050603537E+03  0.41451195534E+03  0.79155063180E+02 0.  0.
          5    1    3    3  502    0  0.60944583785E+02 -0.47557023508E+02  0.24931017099E+02  0.81360668576E+02  0.47000000000E+01 0.  1.
         -5    1    3    3    0  502  0.89495262809E+01  0.31297684350E+02  0.11468583827E+03  0.11930871957E+03  0.47000000000E+01 0.  1.
        -11    1    4    4    0    0 -0.69472937400E+01  0.21220619979E+02  0.24129444737E+02  0.32875670425E+02  0.00000000000E+00 0.  1.
         11    1    4    4    0    0 -0.62946816325E+02 -0.49612808212E+01  0.37637659063E+03  0.38163628492E+03  0.00000000000E+00 0. -1.
<mgrwt>
<rscale>  0 0.13374125E+03</rscale>
<asrwt>0</asrwt>
<pdfrwt beam="1">  1        2 0.88869550E-01 0.14413652E+03</pdfrwt>
<pdfrwt beam="2">  1       -2 0.57737276E-02 0.14413652E+03</pdfrwt>
<totfact> 0.79663588E+03</totfact>
</mgrwt>
</event>
<event>
 8    1  0.1646661E-005  0.2296596E+03  0.7546771E-02  0.1129985E+00
         -2   -1    0    0    0  501 -0.00000000000E+00  0.00000000000E+00  0.14868578778E+04  0.14868578778E+04  0.00000000000E+00 0.  1.
          2   -1    0    0  501    0  0.00000000000E+00 -0.00000000000E+00 -0.34252149533E+02  0.34252149533E+02  0.00000000000E+00 0. -1.
         23    2    1    2    0    0 -0.13695894523E+03 -0.13550900091E+03  0.90347211781E+03  0.93220458563E+03  0.12499231902E+03 0.  0.
         23    2    1    2    0    0  0.13695894523E+03  0.13550900091E+03  0.54913361048E+03  0.58890544172E+03  0.90230012329E+02 0.  0.
          5    1    3    3  502    0  0.21468141983E+02 -0.37012689921E+02  0.16682281701E+03  0.17228686140E+03  0.47000000000E+01 0. -1.
         -5    1    3    3    0  502 -0.15842708721E+03 -0.98496310988E+02  0.73664930080E+03  0.75991772424E+03  0.47000000000E+01 0. -1.
        -11    1    4    4    0    0  0.34235081385E+02  0.80493293068E+02  0.15582040053E+03  0.17869305596E+03  0.00000000000E+00 0. -1.
         11    1    4    4    0    0  0.10272386384E+03  0.55015707841E+02  0.39331320995E+03  0.41021238577E+03  0.00000000000E+00 0.  1.
<mgrwt>
<rscale>  0 0.22530977E+03</rscale>
<asrwt>0</asrwt>
<pdfrwt beam="2">  1        2 0.52695626E-02 0.22965958E+03</pdfrwt>
<pdfrwt beam="1">  1       -2 0.22874732E+00 0.22965958E+03</pdfrwt>
<totfact> 0.14060903E+02</totfact>
</mgrwt>
</event>
<event>
 8    1  0.1803870E-005  0.3883971E+03  0.7546771E-02  0.1048744E+00
         -2   -1    0    0    0  501 -0.00000000000E+00  0.00000000000E+00  0.13145364173E+03  0.13145364173E+03  0.00000000000E+00 0.  1.
          2   -1    0    0  501    0  0.00000000000E+00 -0.00000000000E+00 -0.11581401406E+04  0.11581401406E+04  0.00000000000E+00 0. -1.
         23    2    1    2    0    0 -0.88678079327E+02  0.35688001409E+03 -0.63733916197E+03  0.74636016614E+03  0.12500057603E+03 0.  0.
         23    2    1    2    0    0  0.88678079327E+02 -0.35688001409E+03 -0.38934733689E+03  0.54323361618E+03  0.91017947631E+02 0.  0.
          5    1    3    3  502    0 -0.10433732013E+03  0.21696650532E+03 -0.33237140751E+03  0.41043097268E+03  0.47000000000E+01 0. -1.
         -5    1    3    3    0  502  0.15659240805E+02  0.13991350877E+03 -0.30496775446E+03  0.33592919346E+03  0.47000000000E+01 0. -1.
        -11    1    4    4    0    0  0.39442238203E+02 -0.26917623779E+03 -0.32498544777E+03  0.42382434853E+03  0.00000000000E+00 0. -1.
         11    1    4    4    0    0  0.49235841124E+02 -0.87703776303E+02 -0.64361889118E+02  0.11940926765E+03  0.00000000000E+00 0.  1.
<mgrwt>
<rscale>  0 0.38598264E+03</rscale>
<asrwt>0</asrwt>
<pdfrwt beam="2">  1        2 0.17817541E+00 0.38839708E+03</pdfrwt>
<pdfrwt beam="1">  1       -2 0.20223637E-01 0.38839708E+03</pdfrwt>
<totfact> 0.43304500E+02</totfact>
</mgrwt>
</event>
<event>
 8    1  0.1646661E-005  0.1704069E+03  0.7546771E-02  0.1184005E+00
         -2   -1    0    0    0  501 -0.00000000000E+00  0.00000000000E+00  0.14064244494E+03  0.14064244494E+03  0.00000000000E+00 0.  1.
          2   -1    0    0  501    0  0.00000000000E+00 -0.00000000000E+00 -0.28242032182E+03  0.28242032182E+03  0.00000000000E+00 0. -1.
         23    2    1    2    0    0  0.31721173112E+02  0.11142913678E+03  0.53528280456E+02  0.17861629308E+03  0.12496326660E+03 0.  0.
         23    2    1    2    0    0 -0.31721173112E+02 -0.11142913678E+03 -0.19530615733E+03  0.24444647368E+03  0.90481479072E+02 0.  0.
          5    1    3    3  502    0  0.20768518053E+02  0.13598917467E+03  0.60631207948E+02  0.15040817912E+03  0.47000000000E+01 0.  1.
         -5    1    3    3    0  502  0.10952655059E+02 -0.24560037893E+02 -0.71029274919E+01  0.28208113958E+02  0.47000000000E+01 0.  1.
        -11    1    4    4    0    0  0.19528545283E+02 -0.85250103638E+02 -0.97604867275E+02  0.13105592076E+03  0.00000000000E+00 0.  1.
         11    1    4    4    0    0 -0.51249718395E+02 -0.26179033141E+02 -0.97701290057E+02  0.11339055292E+03  0.00000000000E+00 0. -1.
<mgrwt>
<rscale>  0 0.16422760E+03</rscale>
<asrwt>0</asrwt>
<pdfrwt beam="2">  1        2 0.43449280E-01 0.17040688E+03</pdfrwt>
<pdfrwt beam="1">  1       -2 0.21637299E-01 0.17040688E+03</pdfrwt>
<totfact> 0.21054072E+03</totfact>
</mgrwt>
</event>
<event>
 8    1  0.1646661E-005  0.2124314E+03  0.7546771E-02  0.1142543E+00
          1   -1    0    0  501    0  0.00000000000E+00  0.00000000000E+00  0.12432151368E+03  0.12432151368E+03  0.00000000000E+00 0. -1.
         -1   -1    0    0    0  501 -0.00000000000E+00 -0.00000000000E+00 -0.37176588281E+03  0.37176588281E+03  0.00000000000E+00 0.  1.
         23    2    1    2    0    0  0.56342208163E+02  0.16225998164E+03 -0.20121858820E+03  0.29260218190E+03  0.12499748218E+03 0.  0.
         23    2    1    2    0    0 -0.56342208163E+02 -0.16225998164E+03 -0.46225780931E+02  0.20348521459E+03  0.98826432034E+02 0.  0.
          5    1    3    3  502    0  0.74037134403E+02  0.10854480009E+03 -0.19545670833E+03  0.23556078988E+03  0.47000000000E+01 0.  1.
         -5    1    3    3    0  502 -0.17694926240E+02  0.53715181555E+02 -0.57618798697E+01  0.57041392022E+02  0.47000000000E+01 0.  1.
        -11    1    4    4    0    0  0.10111648091E+02 -0.82178830922E+02 -0.54449640078E+02  0.99097774866E+02  0.00000000000E+00 0.  1.
         11    1    4    4    0    0 -0.66453856253E+02 -0.80081150723E+02  0.82238591471E+01  0.10438743972E+03  0.00000000000E+00 0. -1.
<mgrwt>
<rscale>  0 0.20877135E+03</rscale>
<asrwt>0</asrwt>
<pdfrwt beam="1">  1        1 0.19126387E-01 0.21243144E+03</pdfrwt>
<pdfrwt beam="2">  1       -1 0.57194750E-01 0.21243144E+03</pdfrwt>
<totfact> 0.86115803E+02</totfact>
</mgrwt>
</event>
<event>
 8    1  0.1646661E-005  0.1285768E+03  0.7546771E-02  0.1244545E+00
          4   -1    0    0  501    0  0.00000000000E+00  0.00000000000E+00  0.13682344233E+03  0.13682344233E+03  0.00000000000E+00 0. -1.
         -4   -1    0    0    0  501 -0.00000000000E+00 -0.00000000000E+00 -0.98182088355E+02  0.98182088355E+02  0.00000000000E+00 0.  1.
         23    2    1    2    0    0  0.30130086735E+02  0.34496368621E+00 -0.91288349790E+01  0.12890043095E+03  0.12499617732E+03 0.  0.
         23    2    1    2    0    0 -0.30130086735E+02 -0.34496368621E+00  0.47770188957E+02  0.10610509974E+03  0.89824050849E+02 0.  0.
          5    1    3    3  502    0  0.17498475021E+01  0.23286556537E+02  0.52201430192E+02  0.57379482359E+02  0.47000000000E+01 0. -1.
         -5    1    3    3    0  502  0.28380239232E+02 -0.22941592851E+02 -0.61330265171E+02  0.71520948592E+02  0.47000000000E+01 0. -1.
        -11    1    4    4    0    0 -0.10838928399E+02  0.36254087034E+02  0.52226544261E+02  0.64493822347E+02  0.00000000000E+00 0. -1.
         11    1    4    4    0    0 -0.19291158336E+02 -0.36599050720E+02 -0.44563553038E+01  0.41611277391E+02  0.00000000000E+00 0.  1.
<mgrwt>
<rscale>  0 0.11912669E+03</rscale>
<asrwt>0</asrwt>
<pdfrwt beam="1">  1        4 0.21049760E-01 0.12857677E+03</pdfrwt>
<pdfrwt beam="2">  1       -4 0.15104937E-01 0.12857677E+03</pdfrwt>
<totfact> 0.12469108E+03</totfact>
</mgrwt>
</event>
<event>
 8    1  0.1646661E-005  0.1312766E+03  0.7546771E-02  0.1242945E+00
         -2   -1    0    0    0  501 -0.00000000000E+00  0.00000000000E+00  0.12666054535E+03  0.12666054535E+03  0.00000000000E+00 0.  1.
          2   -1    0    0  501    0  0.00000000000E+00 -0.00000000000E+00 -0.12374027553E+03  0.12374027553E+03  0.00000000000E+00 0. -1.
         23    2    1    2    0    0 -0.34199968197E+02  0.21071075426E+02  0.57680163411E+02  0.14338945007E+03  0.12497961873E+03 0.  0.
         23    2    1    2    0    0  0.34199968197E+02 -0.21071075426E+02 -0.54759893585E+02  0.10701137080E+03  0.82699210949E+02 0.  0.
          5    1    3    3  502    0  0.16193434015E+02  0.62188119872E+02  0.39948831375E+02  0.75812853044E+02  0.47000000000E+01 0.  1.
         -5    1    3    3    0  502 -0.50393402212E+02 -0.41117044446E+02  0.17731332036E+02  0.67576597030E+02  0.47000000000E+01 0.  1.
        -11    1    4    4    0    0  0.44036207948E+02 -0.32890569023E+02 -0.53024391245E+01  0.55218592899E+02  0.00000000000E+00 0.  1.
         11    1    4    4    0    0 -0.98362397513E+01  0.11819493597E+02 -0.49457454461E+02  0.51792777905E+02  0.00000000000E+00 0. -1.
<mgrwt>
<rscale>  0 0.12009236E+03</rscale>
<asrwt>0</asrwt>
<pdfrwt beam="2">  1        2 0.19036965E-01 0.13127655E+03</pdfrwt>
<pdfrwt beam="1">  1       -2 0.19486238E-01 0.13127655E+03</pdfrwt>
<totfact> 0.61256578E+03</totfact>
</mgrwt>
</event>
<event>
 8    1  0.1646661E-005  0.1594547E+03  0.7546771E-02  0.1196983E+00
         -4   -1    0    0    0  501 -0.00000000000E+00  0.00000000000E+00  0.64466167174E+02  0.64466167174E+02  0.00000000000E+00 0.  1.
          4   -1    0    0  501    0  0.00000000000E+00 -0.00000000000E+00 -0.34572501774E+03  0.34572501774E+03  0.00000000000E+00 0. -1.
         23    2    1    2    0    0  0.94205706834E+02  0.30479687809E+02 -0.11713369916E+03  0.19785375786E+03  0.12498831727E+03 0.  0.
         23    2    1    2    0    0 -0.94205706834E+02 -0.30479687809E+02 -0.16412515141E+03  0.21233742705E+03  0.91358584883E+02 0.  0.
          5    1    3    3  502    0  0.12511180063E+03  0.23469130172E+02 -0.95265379875E+02  0.15906396616E+03  0.47000000000E+01 0.  1.
         -5    1    3    3    0  502 -0.30906093797E+02  0.70105576368E+01 -0.21868319282E+02  0.38789791703E+02  0.47000000000E+01 0.  1.
        -11    1    4    4    0    0 -0.88503588247E+02 -0.43997201199E+02 -0.80601982355E+02  0.12753555742E+03  0.00000000000E+00 0.  1.
         11    1    4    4    0    0 -0.57021185870E+01  0.13517513389E+02 -0.83523169050E+02  0.84801869631E+02  0.00000000000E+00 0. -1.
<mgrwt>
<rscale>  0 0.15287552E+03</rscale>
<asrwt>0</asrwt>
<pdfrwt beam="2">  1        4 0.53188464E-01 0.15945471E+03</pdfrwt>
<pdfrwt beam="1">  1       -4 0.99178720E-02 0.15945471E+03</pdfrwt>
<totfact> 0.44976721E+02</totfact>
</mgrwt>
</event>
<event>
 8    1  0.1646661E-005  0.1742141E+03  0.7546771E-02  0.1177885E+00
          2   -1    0    0  501    0  0.00000000000E+00  0.00000000000E+00  0.18614167283E+04  0.18614167283E+04  0.00000000000E+00 0. -1.
         -2   -1    0    0    0  501 -0.00000000000E+00 -0.00000000000E+00 -0.15521311984E+02  0.15521311984E+02  0.00000000000E+00 0.  1.
         23    2    1    2    0    0 -0.72838861244E+02  0.97059643455E+02  0.11674359103E+04  0.11803631507E+04  0.12499795501E+03 0.  0.
         23    2    1    2    0    0  0.72838861244E+02 -0.97059643455E+02  0.67845950601E+03  0.69657488958E+03  0.10091184971E+03 0.  0.
          5    1    3    3  502    0 -0.69164961690E+02  0.66380719910E+02  0.36781713055E+03  0.38013382306E+03  0.47000000000E+01 0.  1.
         -5    1    3    3    0  502 -0.36738995548E+01  0.30678923546E+02  0.79961877975E+03  0.80022932764E+03  0.47000000000E+01 0.  1.
        -11    1    4    4    0    0  0.84108048705E+02 -0.10372139970E+03  0.66301292355E+03  0.67632716151E+03  0.00000000000E+00 0. -1.
         11    1    4    4    0    0 -0.11269187461E+02  0.66617562433E+01  0.15446582462E+02  0.20247728070E+02  0.00000000000E+00 0.  1.
<mgrwt>
<rscale>  0 0.16996428E+03</rscale>
<asrwt>0</asrwt>
<pdfrwt beam="1">  1        2 0.28637163E+00 0.17421413E+03</pdfrwt>
<pdfrwt beam="2">  1       -2 0.23878956E-02 0.17421413E+03</pdfrwt>
<totfact> 0.51994554E+03</totfact>
</mgrwt>
</event>
<event>
 8    1  0.1646661E-005  0.1310424E+03  0.7546771E-02  0.1239951E+00
         -1   -1    0    0    0  501 -0.00000000000E+00  0.00000000000E+00  0.35940988774E+03  0.35940988774E+03  0.00000000000E+00 0.  1.
          1   -1    0    0  501    0  0.00000000000E+00 -0.00000000000E+00 -0.38004276282E+02  0.38004276282E+02  0.00000000000E+00 0. -1.
         23    2    1    2    0    0  0.37007814847E+02  0.11857249694E+02  0.22121230151E+03  0.25711282525E+03  0.12514771207E+03 0.  0.
         23    2    1    2    0    0 -0.37007814847E+02 -0.11857249694E+02  0.10019330995E+03  0.14030133878E+03  0.90197525321E+02 0.  0.
          5    1    3    3  502    0  0.25048674971E+01  0.42681747817E+02  0.14740313715E+02  0.45468371494E+02  0.47000000000E+01 0.  1.
         -5    1    3    3    0  502  0.34502947350E+02 -0.30824498122E+02  0.20647198780E+03  0.21164445375E+03  0.47000000000E+01 0.  1.
        -11    1    4    4    0    0 -0.25242595359E+02  0.17193744192E+02 -0.46313518608E+01  0.30891145655E+02  0.00000000000E+00 0. -1.
         11    1    4    4    0    0 -0.11765219488E+02 -0.29050993886E+02  0.10482466181E+03  0.10941019312E+03  0.00000000000E+00 0.  1.
<mgrwt>
<rscale>  0 0.12192734E+03</rscale>
<asrwt>0</asrwt>
<pdfrwt beam="2">  1        1 0.58468120E-02 0.13104245E+03</pdfrwt>
<pdfrwt beam="1">  1       -1 0.55293827E-01 0.13104245E+03</pdfrwt>
<totfact> 0.43463502E+03</totfact>
</mgrwt>
</event>
<event>
 8    1  0.1646661E-005  0.1329636E+03  0.7546771E-02  0.1236093E+00
         -2   -1    0    0    0  501 -0.00000000000E+00  0.00000000000E+00  0.38158163713E+02  0.38158163713E+02  0.00000000000E+00 0.  1.
          2   -1    0    0  501    0  0.00000000000E+00 -0.00000000000E+00 -0.38322506202E+03  0.38322506202E+03  0.00000000000E+00 0. -1.
         23    2    1    2    0    0  0.58695447309E+01  0.44988052836E+02 -0.14363045099E+03  0.19572688406E+03  0.12498371990E+03 0.  0.
         23    2    1    2    0    0 -0.58695447309E+01 -0.44988052836E+02 -0.20143644731E+03  0.22565634167E+03  0.91026181803E+02 0.  0.
          5    1    3    3  502    0  0.55534825451E+02  0.31299261562E+02 -0.12562449460E+03  0.14095163800E+03  0.47000000000E+01 0. -1.
         -5    1    3    3    0  502 -0.49665280720E+02  0.13688791274E+02 -0.18005956387E+02  0.54775246060E+02  0.47000000000E+01 0. -1.
        -11    1    4    4    0    0 -0.39129936032E+02 -0.16510070657E+02 -0.15938874890E+03  0.16495001547E+03  0.00000000000E+00 0.  1.
         11    1    4    4    0    0  0.33260391301E+02 -0.28477982178E+02 -0.42047698417E+02  0.60706326199E+02  0.00000000000E+00 0. -1.
<mgrwt>
<rscale>  0 0.12434727E+03</rscale>
<asrwt>0</asrwt>
<pdfrwt beam="2">  1        2 0.58957701E-01 0.13296355E+03</pdfrwt>
<pdfrwt beam="1">  1       -2 0.58704868E-02 0.13296355E+03</pdfrwt>
<totfact> 0.12092489E+04</totfact>
</mgrwt>
</event>
<event>
 8    1  0.1646661E-005  0.1261364E+03  0.7546771E-02  0.1245637E+00
         -1   -1    0    0    0  501 -0.00000000000E+00  0.00000000000E+00  0.24277580344E+03  0.24277580344E+03  0.00000000000E+00 0.  1.
          1   -1    0    0  501    0  0.00000000000E+00 -0.00000000000E+00 -0.62969943090E+02  0.62969943090E+02  0.00000000000E+00 0. -1.
         23    2    1    2    0    0  0.14886849239E+02  0.81212668027E+01  0.16307304950E+03  0.20616306271E+03  0.12499126248E+03 0.  0.
         23    2    1    2    0    0 -0.14886849239E+02 -0.81212668027E+01  0.16732810844E+02  0.99582683816E+02  0.96691006316E+02 0.  0.
          5    1    3    3  502    0  0.33222822457E+02 -0.27186615557E+01 -0.72612176546E+01  0.34437803857E+02  0.47000000000E+01 0. -1.
         -5    1    3    3    0  502 -0.18335973217E+02  0.10839928358E+02  0.17033426716E+03  0.17172525885E+03  0.47000000000E+01 0. -1.
        -11    1    4    4    0    0 -0.30366535035E+02  0.19915635803E+02  0.44330630268E+02  0.57305879100E+02  0.00000000000E+00 0.  1.
         11    1    4    4    0    0  0.15479685795E+02 -0.28036902605E+02 -0.27597819424E+02  0.42276804716E+02  0.00000000000E+00 0. -1.
<mgrwt>
<rscale>  0 0.11847357E+03</rscale>
<asrwt>0</asrwt>
<pdfrwt beam="2">  1        1 0.96876836E-02 0.12613639E+03</pdfrwt>
<pdfrwt beam="1">  1       -1 0.37350123E-01 0.12613639E+03</pdfrwt>
<totfact> 0.44460453E+03</totfact>
</mgrwt>
</event>
<event>
 8    1  0.1646661E-005  0.2159521E+03  0.7546771E-02  0.1141376E+00
         -1   -1    0    0    0  501 -0.00000000000E+00  0.00000000000E+00  0.99234670465E+02  0.99234670465E+02  0.00000000000E+00 0.  1.
          1   -1    0    0  501    0  0.00000000000E+00 -0.00000000000E+00 -0.44471648002E+03  0.44471648002E+03  0.00000000000E+00 0. -1.
         23    2    1    2    0    0  0.13124589879E+03  0.11741512917E+03 -0.12205923969E+03  0.24805996879E+03  0.12499396632E+03 0.  0.
         23    2    1    2    0    0 -0.13124589879E+03 -0.11741512917E+03 -0.22342256987E+03  0.29589118169E+03  0.81376582443E+02 0.  0.
          5    1    3    3  502    0  0.81772986998E+02  0.23984044189E+02  0.15207252659E+01  0.85360754352E+02  0.47000000000E+01 0. -1.
         -5    1    3    3    0  502  0.49472911794E+02  0.93431084979E+02 -0.12357996495E+03  0.16269921444E+03  0.47000000000E+01 0. -1.
        -11    1    4    4    0    0 -0.40168423645E+02 -0.90502584123E+02 -0.11270023649E+03  0.15001854317E+03  0.00000000000E+00 0. -1.
         11    1    4    4    0    0 -0.91077475147E+02 -0.26912545045E+02 -0.11072233338E+03  0.14587263852E+03  0.00000000000E+00 0.  1.
<mgrwt>
<rscale>  0 0.21024006E+03</rscale>
<asrwt>0</asrwt>
<pdfrwt beam="2">  1        1 0.68417921E-01 0.21595206E+03</pdfrwt>
<pdfrwt beam="1">  1       -1 0.15266872E-01 0.21595206E+03</pdfrwt>
<totfact> 0.16407005E+03</totfact>
</mgrwt>
</event>
<event>
 8    1  0.1646661E-005  0.1759021E+03  0.7546771E-02  0.1178858E+00
          1   -1    0    0  501    0  0.00000000000E+00  0.00000000000E+00  0.58762312235E+03  0.58762312235E+03  0.00000000000E+00 0. -1.
         -1   -1    0    0    0  501 -0.00000000000E+00 -0.00000000000E+00 -0.47415888587E+02  0.47415888587E+02  0.00000000000E+00 0.  1.
         23    2    1    2    0    0  0.32848132786E+02 -0.11932731876E+03  0.22192839686E+03  0.28318505496E+03  0.12499421262E+03 0.  0.
         23    2    1    2    0    0 -0.32848132786E+02  0.11932731876E+03  0.31827883690E+03  0.35185395598E+03  0.84745380331E+02 0.  0.
          5    1    3    3  502    0  0.69007535150E+02 -0.41410000248E+02  0.62419208749E+02  0.10195624380E+03  0.47000000000E+01 0.  1.
         -5    1    3    3    0  502 -0.36159402365E+02 -0.77917318514E+02  0.15950918811E+03  0.18122881117E+03  0.47000000000E+01 0.  1.
        -11    1    4    4    0    0 -0.51411917744E+02  0.88247600839E+02  0.28474623913E+03  0.30250825615E+03  0.00000000000E+00 0.  1.
         11    1    4    4    0    0  0.18563784958E+02  0.31079717923E+02  0.33532597768E+02  0.49345699825E+02  0.00000000000E+00 0. -1.
<mgrwt>
<rscale>  0 0.16903461E+03</rscale>
<asrwt>0</asrwt>
<pdfrwt beam="1">  1        1 0.90403552E-01 0.17590214E+03</pdfrwt>
<pdfrwt beam="2">  1       -1 0.72947525E-02 0.17590214E+03</pdfrwt>
<totfact> 0.35303519E+03</totfact>
</mgrwt>
</event>
<event>
 8    1  0.1646661E-005  0.1437701E+03  0.7546771E-02  0.1217953E+00
         -2   -1    0    0    0  501 -0.00000000000E+00  0.00000000000E+00  0.36897150052E+02  0.36897150052E+02  0.00000000000E+00 0.  1.
          2   -1    0    0  501    0  0.00000000000E+00 -0.00000000000E+00 -0.46296898459E+03  0.46296898459E+03  0.00000000000E+00 0. -1.
         23    2    1    2    0    0  0.13783264250E+02 -0.69682426811E+02 -0.22087285316E+03  0.26354249179E+03  0.12499683491E+03 0.  0.
         23    2    1    2    0    0 -0.13783264250E+02  0.69682426811E+02 -0.20519898138E+03  0.23632364285E+03  0.93255687397E+02 0.  0.
          5    1    3    3  502    0  0.47534334540E+02  0.16529704926E+02 -0.67443900033E+02  0.84282345464E+02  0.47000000000E+01 0.  1.
         -5    1    3    3    0  502 -0.33751070291E+02 -0.86212131737E+02 -0.15342895313E+03  0.17926014633E+03  0.47000000000E+01 0.  1.
        -11    1    4    4    0    0 -0.13832053412E+02  0.35071731706E+02 -0.11297097254E+02  0.39357038415E+02  0.00000000000E+00 0.  1.
         11    1    4    4    0    0  0.48789162291E-01  0.34610695105E+02 -0.19390188412E+03  0.19696660443E+03  0.00000000000E+00 0. -1.
<mgrwt>
<rscale>  0 0.13661819E+03</rscale>
<asrwt>0</asrwt>
<pdfrwt beam="2">  1        2 0.71225993E-01 0.14377005E+03</pdfrwt>
<pdfrwt beam="1">  1       -2 0.56764850E-02 0.14377005E+03</pdfrwt>
<totfact> 0.10442489E+04</totfact>
</mgrwt>
</event>
<event>
 8    1  0.1646661E-005  0.1307140E+03  0.7546771E-02  0.1239601E+00
         -2   -1    0    0    0  501 -0.00000000000E+00  0.00000000000E+00  0.65450435148E+02  0.65450435148E+02  0.00000000000E+00 0.  1.
          2   -1    0    0  501    0  0.00000000000E+00 -0.00000000000E+00 -0.22178817931E+03  0.22178817931E+03  0.00000000000E+00 0. -1.
         23    2    1    2    0    0 -0.31937859196E+02  0.21006054093E+02 -0.46040291350E+02  0.13858518552E+03  0.12499945624E+03 0.  0.
         23    2    1    2    0    0  0.31937859196E+02 -0.21006054093E+02 -0.11029745281E+03  0.14865342894E+03  0.92038213150E+02 0.  0.
          5    1    3    3  502    0  0.36020988659E+02  0.29514198724E+02 -0.51654396398E+02  0.69705568053E+02  0.47000000000E+01 0.  1.
         -5    1    3    3    0  502 -0.67958847855E+02 -0.85081446314E+01  0.56141050476E+01  0.68879617466E+02  0.47000000000E+01 0.  1.
        -11    1    4    4    0    0  0.34845878261E+02  0.29353080879E+02 -0.72471290543E+02  0.85603309176E+02  0.00000000000E+00 0. -1.
         11    1    4    4    0    0 -0.29080190654E+01 -0.50359134972E+02 -0.37826162265E+02  0.63050119760E+02  0.00000000000E+00 0.  1.
<mgrwt>
<rscale>  0 0.12214420E+03</rscale>
<asrwt>0</asrwt>
<pdfrwt beam="2">  1        2 0.34121259E-01 0.13071398E+03</pdfrwt>
<pdfrwt beam="1">  1       -2 0.10069298E-01 0.13071398E+03</pdfrwt>
<totfact> 0.94047941E+03</totfact>
</mgrwt>
</event>
<event>
 8    1  0.1646661E-005  0.1458321E+03  0.7546771E-02  0.1215755E+00
          2   -1    0    0  501    0  0.00000000000E+00  0.00000000000E+00  0.30546796399E+03  0.30546796399E+03  0.00000000000E+00 0. -1.
         -2   -1    0    0    0  501 -0.00000000000E+00 -0.00000000000E+00 -0.77136006049E+02  0.77136006049E+02  0.00000000000E+00 0.  1.
         23    2    1    2    0    0  0.38120112771E+02 -0.64716146059E+02  0.25397030402E+02  0.14802708287E+03  0.12500274217E+03 0.  0.
         23    2    1    2    0    0 -0.38120112771E+02  0.64716146059E+02  0.20293492754E+03  0.23457688717E+03  0.90567149794E+02 0.  0.
          5    1    3    3  502    0  0.48790003732E+02  0.22322621589E+02  0.26888160740E+02  0.60198231592E+02  0.47000000000E+01 0. -1.
         -5    1    3    3    0  502 -0.10669890961E+02 -0.87038767648E+02 -0.14911303380E+01  0.87828851276E+02  0.47000000000E+01 0. -1.
        -11    1    4    4    0    0  0.29178161317E+02  0.29132265142E+02  0.63444585100E+02  0.75665509637E+02  0.00000000000E+00 0.  1.
         11    1    4    4    0    0 -0.67298274088E+02  0.35583880917E+02  0.13949034244E+03  0.15891137753E+03  0.00000000000E+00 0. -1.
<mgrwt>
<rscale>  0 0.13821225E+03</rscale>
<asrwt>0</asrwt>
<pdfrwt beam="1">  1        2 0.46995071E-01 0.14583212E+03</pdfrwt>
<pdfrwt beam="2">  1       -2 0.11867078E-01 0.14583212E+03</pdfrwt>
<totfact> 0.51935353E+03</totfact>
</mgrwt>
</event>
<event>
 8    1  0.1646661E-005  0.2345359E+03  0.7546771E-02  0.1126284E+00
          2   -1    0    0  501    0  0.00000000000E+00  0.00000000000E+00  0.36532455617E+03  0.36532455617E+03  0.00000000000E+00 0. -1.
         -2   -1    0    0    0  501 -0.00000000000E+00 -0.00000000000E+00 -0.14716031673E+03  0.14716031673E+03  0.00000000000E+00 0.  1.
         23    2    1    2    0    0  0.60849428968E+02 -0.18888857875E+03  0.58852586918E+02  0.24180716146E+03  0.12500211262E+03 0.  0.
         23    2    1    2    0    0 -0.60849428968E+02  0.18888857875E+03  0.15931165252E+03  0.27067771144E+03  0.92220782116E+02 0.  0.
          5    1    3    3  502    0  0.22151364374E+01 -0.42305030395E+02 -0.37517614547E+02  0.56782777560E+02  0.47000000000E+01 0.  1.
         -5    1    3    3    0  502  0.58634292530E+02 -0.14658354835E+03  0.96370201464E+02  0.18502438390E+03  0.47000000000E+01 0.  1.
        -11    1    4    4    0    0 -0.49733064028E+02  0.32822866814E+02  0.64124046332E+02  0.87536344232E+02  0.00000000000E+00 0.  1.
         11    1    4    4    0    0 -0.11116364940E+02  0.15606571193E+03  0.95187606191E+02  0.18314136721E+03  0.00000000000E+00 0. -1.
<mgrwt>
<rscale>  0 0.23050656E+03</rscale>
<asrwt>0</asrwt>
<pdfrwt beam="1">  1        2 0.56203778E-01 0.23453587E+03</pdfrwt>
<pdfrwt beam="2">  1       -2 0.22640049E-01 0.23453587E+03</pdfrwt>
<totfact> 0.14889297E+03</totfact>
</mgrwt>
</event>
<event>
 8    1  0.1646661E-005  0.1279080E+03  0.7546771E-02  0.1248435E+00
         -2   -1    0    0    0  501 -0.00000000000E+00  0.00000000000E+00  0.17875898748E+02  0.17875898748E+02  0.00000000000E+00 0.  1.
          2   -1    0    0  501    0  0.00000000000E+00 -0.00000000000E+00 -0.66870990924E+03  0.66870990924E+03  0.00000000000E+00 0. -1.
         23    2    1    2    0    0 -0.12614422205E+02  0.23998914518E+02 -0.34010492691E+03  0.36336183624E+03  0.12500156471E+03 0.  0.
         23    2    1    2    0    0  0.12614422205E+02 -0.23998914518E+02 -0.31072908358E+03  0.32322397175E+03  0.84770873445E+02 0.  0.
          5    1    3    3  502    0 -0.16827001037E+02 -0.30082325021E+02 -0.23201599139E+02  0.41815050463E+02  0.47000000000E+01 0.  1.
         -5    1    3    3    0  502  0.42125788324E+01  0.54081239539E+02 -0.31690332777E+03  0.32154678577E+03  0.47000000000E+01 0.  1.
        -11    1    4    4    0    0  0.41280444678E+02 -0.25927258713E+02 -0.26327642547E+03  0.26775132878E+03  0.00000000000E+00 0. -1.
         11    1    4    4    0    0 -0.28666022473E+02  0.19283441957E+01 -0.47452658112E+02  0.55472642967E+02  0.00000000000E+00 0.  1.
<mgrwt>
<rscale>  0 0.11682130E+03</rscale>
<asrwt>0</asrwt>
<pdfrwt beam="2">  1        2 0.10287845E+00 0.12790802E+03</pdfrwt>
<pdfrwt beam="1">  1       -2 0.27501382E-02 0.12790802E+03</pdfrwt>
<totfact> 0.20114062E+04</totfact>
</mgrwt>
</event>
<event>
 8    1  0.1646661E-005  0.1382823E+03  0.7546771E-02  0.1223169E+00
          2   -1    0    0  501    0  0.00000000000E+00  0.00000000000E+00  0.11210188318E+03  0.11210188318E+03  0.00000000000E+00 0. -1.
         -2   -1    0    0    0  501 -0.00000000000E+00 -0.00000000000E+00 -0.21827604151E+03  0.21827604151E+03  0.00000000000E+00 0.  1.
         23    2    1    2    0    0  0.57945513974E+02  0.11757370527E+02 -0.15037006615E+03  0.20428695935E+03  0.12500434639E+03 0.  0.
         23    2    1    2    0    0 -0.57945513974E+02 -0.11757370527E+02  0.44195907823E+02  0.12609096534E+03  0.10222394495E+03 0.  0.
          5    1    3    3  502    0  0.82241456080E+02  0.29358806053E+02 -0.52923701251E+02  0.10221841686E+03  0.47000000000E+01 0. -1.
         -5    1    3    3    0  502 -0.24295942106E+02 -0.17601435525E+02 -0.97446364895E+02  0.10206854249E+03  0.47000000000E+01 0. -1.
        -11    1    4    4    0    0 -0.75518525574E+01  0.27631332753E+02 -0.20415509684E+02  0.35175475298E+02  0.00000000000E+00 0.  1.
         11    1    4    4    0    0 -0.50393661416E+02 -0.39388703280E+02  0.64611417507E+02  0.90915490041E+02  0.00000000000E+00 0. -1.
<mgrwt>
<rscale>  0 0.13293211E+03</rscale>
<asrwt>0</asrwt>
<pdfrwt beam="1">  1        2 0.17246444E-01 0.13828234E+03</pdfrwt>
<pdfrwt beam="2">  1       -2 0.33580929E-01 0.13828234E+03</pdfrwt>
<totfact> 0.26474884E+03</totfact>
</mgrwt>
</event>
<event>
 8    1  0.1646661E-005  0.1680882E+03  0.7546771E-02  0.1185054E+00
          2   -1    0    0  501    0  0.00000000000E+00  0.00000000000E+00  0.33746824740E+03  0.33746824740E+03  0.00000000000E+00 0. -1.
         -2   -1    0    0    0  501 -0.00000000000E+00 -0.00000000000E+00 -0.77033217199E+02  0.77033217199E+02  0.00000000000E+00 0.  1.
         23    2    1    2    0    0 -0.75975704005E+02  0.93834040660E+02  0.10217320763E+03  0.19670537168E+03  0.11694658655E+03 0.  0.
         23    2    1    2    0    0  0.75975704005E+02 -0.93834040660E+02  0.15826182258E+03  0.21779609292E+03  0.88380986757E+02 0.  0.
          5    1    3    3  502    0 -0.32685632943E+02  0.14583446832E+02 -0.22615800691E+02  0.42598027693E+02  0.47000000000E+01 0. -1.
         -5    1    3    3    0  502 -0.43290071062E+02  0.79250593827E+02  0.12478900832E+03  0.15410734399E+03  0.47000000000E+01 0.  1.
        -11    1    4    4    0    0  0.35848804030E+02 -0.49114701264E+01  0.94654044473E+02  0.10133433487E+03  0.00000000000E+00 0.  1.
         11    1    4    4    0    0  0.40126899975E+02 -0.88922570533E+02  0.63607778104E+02  0.11646175805E+03  0.00000000000E+00 0. -1.
<mgrwt>
<rscale>  0 0.16326971E+03</rscale>
<asrwt>0</asrwt>
<pdfrwt beam="1">  1        2 0.51918191E-01 0.16808819E+03</pdfrwt>
<pdfrwt beam="2">  1       -2 0.11851264E-01 0.16808819E+03</pdfrwt>
<totfact> 0.47164549E+03</totfact>
</mgrwt>
</event>
<event>
 8    1  0.1646661E-005  0.1255253E+03  0.7546771E-02  0.1252356E+00
         -2   -1    0    0    0  501 -0.00000000000E+00  0.00000000000E+00  0.18207611374E+02  0.18207611374E+02  0.00000000000E+00 0.  1.
          2   -1    0    0  501    0  0.00000000000E+00 -0.00000000000E+00 -0.66098150589E+03  0.66098150589E+03  0.00000000000E+00 0. -1.
         23    2    1    2    0    0 -0.97461898910E+00 -0.11415252208E+02 -0.29333154997E+03  0.31906110490E+03  0.12500133034E+03 0.  0.
         23    2    1    2    0    0  0.97461898910E+00  0.11415252208E+02 -0.34944234454E+03  0.36012801236E+03  0.86319031874E+02 0.  0.
          5    1    3    3  502    0  0.42359529006E+02 -0.29660970143E+02 -0.24869909957E+03  0.25406187233E+03  0.47000000000E+01 0. -1.
         -5    1    3    3    0  502 -0.43334147995E+02  0.18245717935E+02 -0.44632450408E+02  0.64999232571E+02  0.47000000000E+01 0. -1.
        -11    1    4    4    0    0  0.38598782796E+02 -0.76753832222E+01 -0.10627337657E+03  0.11332611397E+03  0.00000000000E+00 0.  1.
         11    1    4    4    0    0 -0.37624163807E+02  0.19090635430E+02 -0.24316896797E+03  0.24680189839E+03  0.00000000000E+00 0. -1.
<mgrwt>
<rscale>  0 0.11455736E+03</rscale>
<asrwt>0</asrwt>
<pdfrwt beam="2">  1        2 0.10168946E+00 0.12552526E+03</pdfrwt>
<pdfrwt beam="1">  1       -2 0.28011710E-02 0.12552526E+03</pdfrwt>
<totfact> 0.19815769E+04</totfact>
</mgrwt>
</event>
<event>
 7    1  0.1646661E-005  0.3023644E+03  0.7546771E-02  0.1116110E+00
         -1   -1    0    0    0  501 -0.00000000000E+00  0.00000000000E+00  0.11689271380E+03  0.11689271380E+03  0.00000000000E+00 0.  1.
          1   -1    0    0  501    0  0.00000000000E+00 -0.00000000000E+00 -0.55495413566E+03  0.55495413566E+03  0.00000000000E+00 0. -1.
         23    2    1    2    0    0 -0.25627397990E+02 -0.91465994146E+02 -0.32217974188E+03  0.34803704122E+03  0.91143866332E+02 0.  0.
          5    1    1    2  502    0  0.26720121835E+02  0.62954281184E+02 -0.21232896056E+03  0.22312078326E+03  0.47000000000E+01 0. -1.
         -5    1    1    2    0  502 -0.10927238448E+01  0.28511712962E+02  0.96447280576E+02  0.10068902498E+03  0.47000000000E+01 0.  1.
        -11    1    3    3    0    0 -0.58265553038E+02 -0.57963818566E+02 -0.16986880847E+03  0.18870636191E+03  0.00000000000E+00 0. -1.
         11    1    3    3    0    0  0.32638155048E+02 -0.33502175580E+02 -0.15231093341E+03  0.15933067931E+03  0.00000000000E+00 0.  1.
<mgrwt>
<rscale>  0 0.24561099E+03</rscale>
<asrwt>0</asrwt>
<pdfrwt beam="2">  1        1 0.85377558E-01 0.30236440E+03</pdfrwt>
<pdfrwt beam="1">  1       -1 0.17983495E-01 0.30236440E+03</pdfrwt>
<totfact> 0.94199827E+02</totfact>
</mgrwt>
</event>
<event>
 8    1  0.1646661E-005  0.1641584E+03  0.7546771E-02  0.1191130E+00
          3   -1    0    0  501    0  0.00000000000E+00  0.00000000000E+00  0.50814196465E+02  0.50814196465E+02  0.00000000000E+00 0. -1.
         -3   -1    0    0    0  501 -0.00000000000E+00 -0.00000000000E+00 -0.50978301856E+03  0.50978301856E+03  0.00000000000E+00 0.  1.
         23    2    1    2    0    0  0.85630890921E+02  0.63185900488E+02 -0.33603654186E+03  0.37399003800E+03  0.12499153393E+03 0.  0.
         23    2    1    2    0    0 -0.85630890921E+02 -0.63185900488E+02 -0.12293228023E+03  0.18660717702E+03  0.91568474344E+02 0.  0.
          5    1    3    3  502    0  0.22000363893E+02  0.91089803948E+02 -0.17569502652E+03  0.19917881599E+03  0.47000000000E+01 0.  1.
         -5    1    3    3    0  502  0.63630527028E+02 -0.27903903460E+02 -0.16034151534E+03  0.17481122201E+03  0.47000000000E+01 0.  1.
        -11    1    4    4    0    0 -0.71766353823E+02 -0.37813389866E+02 -0.25586769312E+02  0.85058478460E+02  0.00000000000E+00 0. -1.
         11    1    4    4    0    0 -0.13864537099E+02 -0.25372510622E+02 -0.97345510915E+02  0.10154869856E+03  0.00000000000E+00 0.  1.
<mgrwt>
<rscale>  0 0.15786394E+03</rscale>
<asrwt>0</asrwt>
<pdfrwt beam="1">  1        3 0.78175690E-02 0.16415843E+03</pdfrwt>
<pdfrwt beam="2">  1       -3 0.78428153E-01 0.16415843E+03</pdfrwt>
<totfact> 0.41112901E+02</totfact>
</mgrwt>
</event>
<event>
 8    1  0.1646661E-005  0.1295173E+03  0.7546771E-02  0.1242562E+00
          1   -1    0    0  501    0  0.00000000000E+00  0.00000000000E+00  0.40520862069E+03  0.40520862069E+03  0.00000000000E+00 0. -1.
         -1   -1    0    0    0  501 -0.00000000000E+00 -0.00000000000E+00 -0.38281995526E+02  0.38281995526E+02  0.00000000000E+00 0.  1.
         23    2    1    2    0    0 -0.32394680479E+00 -0.33906949377E+02  0.11310838552E+03  0.17195419351E+03  0.12499980653E+03 0.  0.
         23    2    1    2    0    0  0.32394680479E+00  0.33906949377E+02  0.25381823964E+03  0.27153642271E+03  0.90324658451E+02 0.  0.
          5    1    3    3  502    0 -0.79692633750E+01  0.32007633706E+02 -0.75591831349E+01  0.34164733628E+02  0.47000000000E+01 0.  1.
         -5    1    3    3    0  502  0.76453165702E+01 -0.65914583082E+02  0.12066756866E+03  0.13778945988E+03  0.47000000000E+01 0.  1.
        -11    1    4    4    0    0  0.38402546139E+02  0.42568989558E+02  0.14495290998E+03  0.15587886494E+03  0.00000000000E+00 0.  1.
         11    1    4    4    0    0 -0.38078599334E+02 -0.86620401814E+01  0.10886532966E+03  0.11565755777E+03  0.00000000000E+00 0. -1.
<mgrwt>
<rscale>  0 0.12032472E+03</rscale>
<asrwt>0</asrwt>
<pdfrwt beam="1">  1        1 0.62339785E-01 0.12951733E+03</pdfrwt>
<pdfrwt beam="2">  1       -1 0.58895380E-02 0.12951733E+03</pdfrwt>
<totfact> 0.77838759E+03</totfact>
</mgrwt>
</event>
<event>
 8    1  0.1646661E-005  0.1361564E+03  0.7546771E-02  0.1230198E+00
         -1   -1    0    0    0  501 -0.00000000000E+00  0.00000000000E+00  0.35437695356E+02  0.35437695356E+02  0.00000000000E+00 0.  1.
          1   -1    0    0  501    0  0.00000000000E+00 -0.00000000000E+00 -0.47803493122E+03  0.47803493122E+03  0.00000000000E+00 0. -1.
         23    2    1    2    0    0 -0.21125762004E+02 -0.49661518245E+02 -0.15320801100E+03  0.20496646094E+03  0.12500396497E+03 0.  0.
         23    2    1    2    0    0  0.21125762004E+02  0.49661518245E+02 -0.28938922486E+03  0.30850616564E+03  0.92289579895E+02 0.  0.
          5    1    3    3  502    0  0.10016224383E+02 -0.51698660125E+02 -0.16344830166E+03  0.17178624370E+03  0.47000000000E+01 0. -1.
         -5    1    3    3    0  502 -0.31141986387E+02  0.20371418805E+01  0.10240290656E+02  0.33180217237E+02  0.47000000000E+01 0. -1.
        -11    1    4    4    0    0 -0.33477054193E+02  0.18177863073E+01 -0.10958579020E+03  0.11459957643E+03  0.00000000000E+00 0.  1.
         11    1    4    4    0    0  0.54602816197E+02  0.47843731937E+02 -0.17980343466E+03  0.19390658920E+03  0.00000000000E+00 0. -1.
<mgrwt>
<rscale>  0 0.12816927E+03</rscale>
<asrwt>0</asrwt>
<pdfrwt beam="2">  1        1 0.73543834E-01 0.13615636E+03</pdfrwt>
<pdfrwt beam="1">  1       -1 0.54519532E-02 0.13615636E+03</pdfrwt>
<totfact> 0.70928374E+03</totfact>
</mgrwt>
</event>
<event>
 8    1  0.1646661E-005  0.1261780E+03  0.7546771E-02  0.1251746E+00
          2   -1    0    0  501    0  0.00000000000E+00  0.00000000000E+00  0.95965081835E+03  0.95965081835E+03  0.00000000000E+00 0. -1.
         -2   -1    0    0    0  501 -0.00000000000E+00 -0.00000000000E+00 -0.11814283707E+02  0.11814283707E+02  0.00000000000E+00 0.  1.
         23    2    1    2    0    0  0.15662129096E+02 -0.71620775130E+01  0.56153404602E+03  0.57553573123E+03  0.12499718170E+03 0.  0.
         23    2    1    2    0    0 -0.15662129096E+02  0.71620775130E+01  0.38630248862E+03  0.39592937083E+03  0.85052080098E+02 0.  0.
          5    1    3    3  502    0  0.19076564892E+02  0.56638743905E+02  0.32480190559E+03  0.33028810229E+03  0.47000000000E+01 0. -1.
         -5    1    3    3    0  502 -0.34144357959E+01 -0.63800821418E+02  0.23673214043E+03  0.24524762894E+03  0.47000000000E+01 0. -1.
        -11    1    4    4    0    0 -0.57685149928E+01 -0.38882381287E+02  0.15758667241E+03  0.16241513064E+03  0.00000000000E+00 0.  1.
         11    1    4    4    0    0 -0.98936141032E+01  0.46044458800E+02  0.22871581621E+03  0.23351424019E+03  0.00000000000E+00 0. -1.
<mgrwt>
<rscale>  0 0.11490540E+03</rscale>
<asrwt>0</asrwt>
<pdfrwt beam="1">  1        2 0.14763853E+00 0.12617802E+03</pdfrwt>
<pdfrwt beam="2">  1       -2 0.18175829E-02 0.12617802E+03</pdfrwt>
<totfact> 0.23394616E+04</totfact>
</mgrwt>
</event>
<event>
 8    1  0.1646661E-005  0.1967983E+03  0.7546771E-02  0.1157576E+00
         -2   -1    0    0    0  501 -0.00000000000E+00  0.00000000000E+00  0.64236238411E+02  0.64236238411E+02  0.00000000000E+00 0.  1.
          2   -1    0    0  501    0  0.00000000000E+00 -0.00000000000E+00 -0.55194542825E+03  0.55194542825E+03  0.00000000000E+00 0. -1.
         23    2    1    2    0    0 -0.13348904888E+03  0.72706202668E+02 -0.20694712451E+03  0.28558132104E+03  0.12499624198E+03 0.  0.
         23    2    1    2    0    0  0.13348904888E+03 -0.72706202668E+02 -0.28076206533E+03  0.33060034562E+03  0.85812196805E+02 0.  0.
          5    1    3    3  502    0  0.12260026208E+02 -0.19830516908E+02 -0.30508473563E+02  0.38683518488E+02  0.47000000000E+01 0. -1.
         -5    1    3    3    0  502 -0.14574907508E+03  0.92536719576E+02 -0.17643865094E+03  0.24689780255E+03  0.47000000000E+01 0. -1.
        -11    1    4    4    0    0  0.31221642037E+01 -0.37505609762E+02 -0.42797586701E+02  0.56991684484E+02  0.00000000000E+00 0.  1.
         11    1    4    4    0    0  0.13036688467E+03 -0.35200592906E+02 -0.23796447863E+03  0.27360866114E+03  0.00000000000E+00 0. -1.
<mgrwt>
<rscale>  0 0.19098478E+03</rscale>
<asrwt>0</asrwt>
<pdfrwt beam="2">  1        2 0.84914679E-01 0.19679832E+03</pdfrwt>
<pdfrwt beam="1">  1       -2 0.98824985E-02 0.19679832E+03</pdfrwt>
<totfact> 0.37058683E+03</totfact>
</mgrwt>
</event>
<event>
 8    1  0.1646661E-005  0.1366159E+03  0.7546771E-02  0.1228835E+00
         -1   -1    0    0    0  501 -0.00000000000E+00  0.00000000000E+00  0.58880841153E+02  0.58880841153E+02  0.00000000000E+00 0.  1.
          1   -1    0    0  501    0  0.00000000000E+00 -0.00000000000E+00 -0.26183199611E+03  0.26183199611E+03  0.00000000000E+00 0. -1.
         23    2    1    2    0    0 -0.91052586929E+00 -0.55090823393E+02 -0.88597639968E+02  0.16282949138E+03  0.12501229369E+03 0.  0.
         23    2    1    2    0    0  0.91052586929E+00  0.55090823393E+02 -0.11435351499E+03  0.15788334589E+03  0.93886083307E+02 0.  0.
          5    1    3    3  502    0  0.40946400820E+02 -0.74782672207E+02 -0.76835975491E+02  0.11486911218E+03  0.47000000000E+01 0.  1.
         -5    1    3    3    0  502 -0.41856926690E+02  0.19691848814E+02 -0.11761664477E+02  0.47960379199E+02  0.47000000000E+01 0.  1.
        -11    1    4    4    0    0  0.44942576628E+02  0.32778783763E+02 -0.81179354753E+02  0.98409204331E+02  0.00000000000E+00 0.  1.
         11    1    4    4    0    0 -0.44032050759E+02  0.22312039629E+02 -0.33174160235E+02  0.59474141555E+02  0.00000000000E+00 0. -1.
<mgrwt>
<rscale>  0 0.12907515E+03</rscale>
<asrwt>0</asrwt>
<pdfrwt beam="2">  1        1 0.40281845E-01 0.13661589E+03</pdfrwt>
<pdfrwt beam="1">  1       -1 0.90585910E-02 0.13661589E+03</pdfrwt>
<totfact> 0.70433189E+03</totfact>
</mgrwt>
</event>
<event>
 8    1  0.1646661E-005  0.1435080E+03  0.7546771E-02  0.1218159E+00
          2   -1    0    0  501    0  0.00000000000E+00  0.00000000000E+00  0.58322895151E+03  0.58322895151E+03  0.00000000000E+00 0. -1.
         -2   -1    0    0    0  501 -0.00000000000E+00 -0.00000000000E+00 -0.29449846962E+02  0.29449846962E+02  0.00000000000E+00 0.  1.
         23    2    1    2    0    0  0.18126189317E+02  0.68123618221E+02  0.27469107759E+03  0.30991892763E+03  0.12500066999E+03 0.  0.
         23    2    1    2    0    0 -0.18126189317E+02 -0.68123618221E+02  0.27908802696E+03  0.30275987084E+03  0.93829774064E+02 0.  0.
          5    1    3    3  502    0  0.56839714331E+02  0.19858579420E+02  0.55175706560E+02  0.81801985894E+02  0.47000000000E+01 0. -1.
         -5    1    3    3    0  502 -0.38713525014E+02  0.48265038801E+02  0.21951537103E+03  0.22811694174E+03  0.47000000000E+01 0. -1.
        -11    1    4    4    0    0 -0.23655172660E+02 -0.78314124288E+01  0.98431370223E+01  0.26791520312E+02  0.00000000000E+00 0.  1.
         11    1    4    4    0    0  0.55289833428E+01 -0.60292205792E+02  0.26924488994E+03  0.27596835053E+03  0.00000000000E+00 0. -1.
<mgrwt>
<rscale>  0 0.13647005E+03</rscale>
<asrwt>0</asrwt>
<pdfrwt beam="1">  1        2 0.89727523E-01 0.14350803E+03</pdfrwt>
<pdfrwt beam="2">  1       -2 0.45307461E-02 0.14350803E+03</pdfrwt>
<totfact> 0.11348203E+04</totfact>
</mgrwt>
</event>
<event>
 8    1  0.1646661E-005  0.2406672E+03  0.7546771E-02  0.1122097E+00
          1   -1    0    0  501    0  0.00000000000E+00  0.00000000000E+00  0.10065272150E+03  0.10065272150E+03  0.00000000000E+00 0. -1.
         -1   -1    0    0    0  501 -0.00000000000E+00 -0.00000000000E+00 -0.54181268704E+03  0.54181268704E+03  0.00000000000E+00 0.  1.
         23    2    1    2    0    0  0.19352999397E+03 -0.69630781722E+02 -0.25530419973E+03  0.35085745573E+03  0.12497365928E+03 0.  0.
         23    2    1    2    0    0 -0.19352999397E+03  0.69630781722E+02 -0.18585576581E+03  0.29160795281E+03  0.90501536618E+02 0.  0.
          5    1    3    3  502    0  0.71801574700E+02 -0.91870511700E+02 -0.11789742920E+03  0.16588414891E+03  0.47000000000E+01 0.  1.
         -5    1    3    3    0  502  0.12172841927E+03  0.22239729978E+02 -0.13740677054E+03  0.18497330682E+03  0.47000000000E+01 0.  1.
        -11    1    4    4    0    0 -0.11796682518E+03  0.69595949607E+02 -0.71402054915E+02  0.15446042047E+03  0.00000000000E+00 0.  1.
         11    1    4    4    0    0 -0.75563168784E+02  0.34832114032E-01 -0.11445371090E+03  0.13714753234E+03  0.00000000000E+00 0. -1.
<mgrwt>
<rscale>  0 0.23657369E+03</rscale>
<asrwt>0</asrwt>
<pdfrwt beam="1">  1        1 0.15485034E-01 0.24066724E+03</pdfrwt>
<pdfrwt beam="2">  1       -1 0.83355798E-01 0.24066724E+03</pdfrwt>
<totfact> 0.53556389E+02</totfact>
</mgrwt>
</event>
<event>
 8    1  0.1646661E-005  0.1386428E+03  0.7546771E-02  0.1226460E+00
         -1   -1    0    0    0  501 -0.00000000000E+00  0.00000000000E+00  0.26691589027E+03  0.26691589027E+03  0.00000000000E+00 0.  1.
          1   -1    0    0  501    0  0.00000000000E+00 -0.00000000000E+00 -0.61992231721E+02  0.61992231721E+02  0.00000000000E+00 0. -1.
         23    2    1    2    0    0  0.50627218822E+02 -0.32149965418E+02  0.15702833958E+03  0.20947485815E+03  0.12500032482E+03 0.  0.
         23    2    1    2    0    0 -0.50627218822E+02  0.32149965418E+02  0.47895318973E+02  0.11943326384E+03  0.91507417022E+02 0.  0.
          5    1    3    3  502    0  0.25419307632E+02 -0.77239088706E+02  0.12270149931E+03  0.14727445793E+03  0.47000000000E+01 0. -1.
         -5    1    3    3    0  502  0.25207911190E+02  0.45089123289E+02  0.34326840268E+02  0.62200400226E+02  0.47000000000E+01 0. -1.
        -11    1    4    4    0    0  0.18821257568E+02  0.13154277721E+02  0.41143944860E+02  0.47117926073E+02  0.00000000000E+00 0.  1.
         11    1    4    4    0    0 -0.69448476390E+02  0.18995687696E+02  0.67513741128E+01  0.72315337767E+02  0.00000000000E+00 0. -1.
<mgrwt>
<rscale>  0 0.13067311E+03</rscale>
<asrwt>0</asrwt>
<pdfrwt beam="2">  1        1 0.95372665E-02 0.13864277E+03</pdfrwt>
<pdfrwt beam="1">  1       -1 0.41063983E-01 0.13864277E+03</pdfrwt>
<totfact> 0.38697481E+03</totfact>
</mgrwt>
</event>
<event>
 8    1  0.1646661E-005  0.1306567E+03  0.7546771E-02  0.1238276E+00
          1   -1    0    0  501    0  0.00000000000E+00  0.00000000000E+00  0.73652743646E+02  0.73652743646E+02  0.00000000000E+00 0. -1.
         -1   -1    0    0    0  501 -0.00000000000E+00 -0.00000000000E+00 -0.21694077002E+03  0.21694077002E+03  0.00000000000E+00 0.  1.
         23    2    1    2    0    0  0.19717180835E+02 -0.32512347898E+02 -0.13479051915E+03  0.18772226075E+03  0.12500137255E+03 0.  0.
         23    2    1    2    0    0 -0.19717180835E+02  0.32512347898E+02 -0.84975072227E+01  0.10287125292E+03  0.95207494783E+02 0.  0.
          5    1    3    3  502    0  0.48523435405E+02 -0.55282388322E+02 -0.35610217426E+02  0.81858682051E+02  0.47000000000E+01 0. -1.
         -5    1    3    3    0  502 -0.28806254571E+02  0.22770040424E+02 -0.99180301729E+02  0.10586357870E+03  0.47000000000E+01 0. -1.
        -11    1    4    4    0    0  0.36932379834E+02 -0.48106908863E+00 -0.19285760329E+01  0.36985828545E+02  0.00000000000E+00 0.  1.
         11    1    4    4    0    0 -0.56649560668E+02  0.32993416987E+02 -0.65689311898E+01  0.65885424377E+02  0.00000000000E+00 0. -1.
<mgrwt>
<rscale>  0 0.12297037E+03</rscale>
<asrwt>0</asrwt>
<pdfrwt beam="1">  1        1 0.11331191E-01 0.13065666E+03</pdfrwt>
<pdfrwt beam="2">  1       -1 0.33375503E-01 0.13065666E+03</pdfrwt>
<totfact> 0.43950730E+03</totfact>
</mgrwt>
</event>
<event>
 8    1  0.1646661E-005  0.1733027E+03  0.7546771E-02  0.1181003E+00
          1   -1    0    0  501    0  0.00000000000E+00  0.00000000000E+00  0.30921921848E+03  0.30921921848E+03  0.00000000000E+00 0. -1.
         -1   -1    0    0    0  501 -0.00000000000E+00 -0.00000000000E+00 -0.85313944169E+02  0.85313944169E+02  0.00000000000E+00 0.  1.
         23    2    1    2    0    0 -0.11569816650E+03 -0.32012294279E+02  0.97931134608E+02  0.19905859601E+03  0.12499185896E+03 0.  0.
         23    2    1    2    0    0  0.11569816650E+03  0.32012294279E+02  0.12597413970E+03  0.19547456663E+03  0.89050376817E+02 0.  0.
          5    1    3    3  502    0 -0.25945326017E+02 -0.55191448581E+02 -0.38794873586E+01  0.61289447385E+02  0.47000000000E+01 0.  1.
         -5    1    3    3    0  502 -0.89752840481E+02  0.23179154303E+02  0.10181062197E+03  0.13776914863E+03  0.47000000000E+01 0.  1.
        -11    1    4    4    0    0  0.24067085894E+01 -0.15050465095E+02 -0.49795950009E+01  0.16034497565E+02  0.00000000000E+00 0.  1.
         11    1    4    4    0    0  0.11329145791E+03  0.47062759373E+02  0.13095373470E+03  0.17944006907E+03  0.00000000000E+00 0. -1.
<mgrwt>
<rscale>  0 0.16700957E+03</rscale>
<asrwt>0</asrwt>
<pdfrwt beam="1">  1        1 0.47572187E-01 0.17330268E+03</pdfrwt>
<pdfrwt beam="2">  1       -1 0.13125222E-01 0.17330268E+03</pdfrwt>
<totfact> 0.32794824E+03</totfact>
</mgrwt>
</event>
<event>
 8    1  0.1646661E-005  0.1314307E+03  0.7546771E-02  0.1238821E+00
          3   -1    0    0  501    0  0.00000000000E+00  0.00000000000E+00  0.30989946139E+03  0.30989946139E+03  0.00000000000E+00 0. -1.
         -3   -1    0    0    0  501 -0.00000000000E+00 -0.00000000000E+00 -0.50911081613E+02  0.50911081613E+02  0.00000000000E+00 0.  1.
         23    2    1    2    0    0 -0.10000049654E+02  0.39364136153E+02  0.74310722518E+02  0.15098384476E+03  0.12499800675E+03 0.  0.
         23    2    1    2    0    0  0.10000049654E+02 -0.39364136153E+02  0.18467765726E+03  0.20982669824E+03  0.90949821305E+02 0.  0.
          5    1    3    3  502    0  0.37101610302E+02 -0.28913155025E+02  0.17829695440E+02  0.50522154150E+02  0.47000000000E+01 0.  1.
         -5    1    3    3    0  502 -0.47101659956E+02  0.68277291179E+02  0.56481027078E+02  0.10046169061E+03  0.47000000000E+01 0.  1.
        -11    1    4    4    0    0 -0.18183027234E+02 -0.31116420354E+02  0.17535063808E+03  0.17901592212E+03  0.00000000000E+00 0. -1.
         11    1    4    4    0    0  0.28183076888E+02 -0.82477157992E+01  0.93270191806E+01  0.30810776128E+02  0.00000000000E+00 0.  1.
<mgrwt>
<rscale>  0 0.12262933E+03</rscale>
<asrwt>0</asrwt>
<pdfrwt beam="1">  1        3 0.47676839E-01 0.13143073E+03</pdfrwt>
<pdfrwt beam="2">  1       -3 0.78324743E-02 0.13143073E+03</pdfrwt>
<totfact> 0.11132338E+03</totfact>
</mgrwt>
</event>
<event>
 8    1  0.1646661E-005  0.1378595E+03  0.7546771E-02  0.1229154E+00
         -2   -1    0    0    0  501 -0.00000000000E+00  0.00000000000E+00  0.34604214854E+02  0.34604214854E+02  0.00000000000E+00 0.  1.
          2   -1    0    0  501    0  0.00000000000E+00 -0.00000000000E+00 -0.43259103050E+03  0.43259103050E+03  0.00000000000E+00 0. -1.
         23    2    1    2    0    0 -0.35995298350E+02 -0.45656150839E+02 -0.19892490622E+03  0.24202552521E+03  0.12500036369E+03 0.  0.
         23    2    1    2    0    0  0.35995298350E+02  0.45656150839E+02 -0.19906190942E+03  0.22516972014E+03  0.87724645768E+02 0.  0.
          5    1    3    3  502    0 -0.73088766750E+02 -0.43880284596E+02 -0.78733206354E+02  0.11613980792E+03  0.47000000000E+01 0. -1.
         -5    1    3    3    0  502  0.37093468400E+02 -0.17758662426E+01 -0.12019169987E+03  0.12588571729E+03  0.47000000000E+01 0. -1.
        -11    1    4    4    0    0  0.55806080769E+02  0.13292073690E+02 -0.69249618715E+02  0.89925010791E+02  0.00000000000E+00 0.  1.
         11    1    4    4    0    0 -0.19810782419E+02  0.32364077148E+02 -0.12981229070E+03  0.13524470935E+03  0.00000000000E+00 0. -1.
<mgrwt>
<rscale>  0 0.12886179E+03</rscale>
<asrwt>0</asrwt>
<pdfrwt beam="2">  1        2 0.66552468E-01 0.13785948E+03</pdfrwt>
<pdfrwt beam="1">  1       -2 0.53237252E-02 0.13785948E+03</pdfrwt>
<totfact> 0.12344640E+04</totfact>
</mgrwt>
</event>
<event>
 8    1  0.1646661E-005  0.1345098E+03  0.7546771E-02  0.1234092E+00
          1   -1    0    0  501    0  0.00000000000E+00  0.00000000000E+00  0.45652339727E+03  0.45652339727E+03  0.00000000000E+00 0. -1.
         -1   -1    0    0    0  501 -0.00000000000E+00 -0.00000000000E+00 -0.32115910231E+02  0.32115910231E+02  0.00000000000E+00 0.  1.
         23    2    1    2    0    0 -0.22646200395E+02 -0.44224647041E+02  0.18932123388E+03  0.23223997968E+03  0.12499683501E+03 0.  0.
         23    2    1    2    0    0  0.22646200395E+02  0.44224647041E+02  0.23508625316E+03  0.25639932783E+03  0.89478483940E+02 0.  0.
          5    1    3    3  502    0  0.16119038117E+02  0.19084505831E+01 -0.12848868503E+02  0.21228494889E+02  0.47000000000E+01 0. -1.
         -5    1    3    3    0  502 -0.38765238511E+02 -0.46133097624E+02  0.20217010239E+03  0.21101148479E+03  0.47000000000E+01 0. -1.
        -11    1    4    4    0    0 -0.18162869975E+02  0.56021176158E+02  0.11877854381E+03  0.13257678716E+03  0.00000000000E+00 0. -1.
         11    1    4    4    0    0  0.40809070370E+02 -0.11796529118E+02  0.11630770935E+03  0.12382254067E+03  0.00000000000E+00 0.  1.
<mgrwt>
<rscale>  0 0.12562758E+03</rscale>
<asrwt>0</asrwt>
<pdfrwt beam="1">  1        1 0.70234364E-01 0.13450977E+03</pdfrwt>
<pdfrwt beam="2">  1       -1 0.49409096E-02 0.13450977E+03</pdfrwt>
<totfact> 0.87006947E+03</totfact>
</mgrwt>
</event>
<event>
 8    1  0.1646661E-005  0.1382433E+03  0.7546771E-02  0.1226866E+00
         -2   -1    0    0    0  501 -0.00000000000E+00  0.00000000000E+00  0.58764899797E+02  0.58764899797E+02  0.00000000000E+00 0.  1.
          2   -1    0    0  501    0  0.00000000000E+00 -0.00000000000E+00 -0.28060199577E+03  0.28060199577E+03  0.00000000000E+00 0. -1.
         23    2    1    2    0    0  0.18981044788E+02  0.55911778443E+02 -0.78323982985E+02  0.15888944420E+03  0.12499920855E+03 0.  0.
         23    2    1    2    0    0 -0.18981044788E+02 -0.55911778443E+02 -0.14351311299E+03  0.18047745137E+03  0.92139512818E+02 0.  0.
          5    1    3    3  502    0  0.69152914798E+01  0.65651353589E+02  0.11882011762E+02  0.67239822187E+02  0.47000000000E+01 0. -1.
         -5    1    3    3    0  502  0.12065753308E+02 -0.97395751454E+01 -0.90205994747E+02  0.91649622013E+02  0.47000000000E+01 0. -1.
        -11    1    4    4    0    0 -0.98795777793E+01  0.20954456732E+02 -0.69977402662E+02  0.73712496888E+02  0.00000000000E+00 0. -1.
         11    1    4    4    0    0 -0.91014670086E+01 -0.76866235175E+02 -0.73535710326E+02  0.10676495448E+03  0.00000000000E+00 0.  1.
<mgrwt>
<rscale>  0 0.13039846E+03</rscale>
<asrwt>0</asrwt>
<pdfrwt beam="2">  1        2 0.43169537E-01 0.13824330E+03</pdfrwt>
<pdfrwt beam="1">  1       -2 0.90407539E-02 0.13824330E+03</pdfrwt>
<totfact> 0.87002425E+03</totfact>
</mgrwt>
</event>
<event>
 8    1  0.1646661E-005  0.1302069E+03  0.7546771E-02  0.1240729E+00
         -1   -1    0    0    0  501 -0.00000000000E+00  0.00000000000E+00  0.32581242586E+03  0.32581242586E+03  0.00000000000E+00 0.  1.
          1   -1    0    0  501    0  0.00000000000E+00 -0.00000000000E+00 -0.69008006952E+02  0.69008006952E+02  0.00000000000E+00 0. -1.
         23    2    1    2    0    0 -0.35966825371E+02 -0.56830430420E+01  0.26568376792E+03  0.29587446790E+03  0.12501170632E+03 0.  0.
         23    2    1    2    0    0  0.35966825371E+02  0.56830430420E+01 -0.88793490096E+01  0.98945964909E+02  0.91572657641E+02 0.  0.
          5    1    3    3  502    0 -0.65206249808E+02  0.52252345670E+01  0.25382366525E+03  0.26215968632E+03  0.47000000000E+01 0.  1.
         -5    1    3    3    0  502  0.29239424437E+02 -0.10908277609E+02  0.11860102664E+02  0.33714781580E+02  0.47000000000E+01 0.  1.
        -11    1    4    4    0    0 -0.19355857385E+02 -0.23098968195E+02 -0.19203975679E+02  0.35735195937E+02  0.00000000000E+00 0. -1.
         11    1    4    4    0    0  0.55322682756E+02  0.28782011237E+02  0.10324626670E+02  0.63210768972E+02  0.00000000000E+00 0.  1.
<mgrwt>
<rscale>  0 0.12144680E+03</rscale>
<asrwt>0</asrwt>
<pdfrwt beam="2">  1        1 0.10616617E-01 0.13020690E+03</pdfrwt>
<pdfrwt beam="1">  1       -1 0.50124988E-01 0.13020690E+03</pdfrwt>
<totfact> 0.23408789E+03</totfact>
</mgrwt>
</event>
<event>
 8    1  0.1646661E-005  0.1350208E+03  0.7546771E-02  0.1232369E+00
         -2   -1    0    0    0  501 -0.00000000000E+00  0.00000000000E+00  0.95221873226E+02  0.95221873226E+02  0.00000000000E+00 0.  1.
          2   -1    0    0  501    0  0.00000000000E+00 -0.00000000000E+00 -0.15549546385E+03  0.15549546385E+03  0.00000000000E+00 0. -1.
         23    2    1    2    0    0  0.50525797562E+02 -0.72988520798E+01 -0.54867299400E+02  0.14574308837E+03  0.12499799120E+03 0.  0.
         23    2    1    2    0    0 -0.50525797562E+02  0.72988520798E+01 -0.54062912280E+01  0.10497424871E+03  0.91565470820E+02 0.  0.
          5    1    3    3  502    0 -0.28586732343E+02 -0.18763571518E+02 -0.55855833021E+02  0.65660010391E+02  0.47000000000E+01 0.  1.
         -5    1    3    3    0  502  0.79112529905E+02  0.11464719438E+02  0.98853362086E+00  0.80083077978E+02  0.47000000000E+01 0.  1.
        -11    1    4    4    0    0 -0.64727687672E+02  0.13635610519E+02  0.25085841147E+02  0.70745338021E+02  0.00000000000E+00 0.  1.
         11    1    4    4    0    0  0.14201890110E+02 -0.63367584389E+01 -0.30492132375E+02  0.34228910689E+02  0.00000000000E+00 0. -1.
<mgrwt>
<rscale>  0 0.12674392E+03</rscale>
<asrwt>0</asrwt>
<pdfrwt beam="2">  1        2 0.23922379E-01 0.13502084E+03</pdfrwt>
<pdfrwt beam="1">  1       -2 0.14649519E-01 0.13502084E+03</pdfrwt>
<totfact> 0.76195426E+03</totfact>
</mgrwt>
</event>
<event>
 8    1  0.1646661E-005  0.1250351E+03  0.7546771E-02  0.1254676E+00
         -2   -1    0    0    0  501 -0.00000000000E+00  0.00000000000E+00  0.38044744127E+03  0.38044744127E+03  0.00000000000E+00 0.  1.
          2   -1    0    0  501    0  0.00000000000E+00 -0.00000000000E+00 -0.29585934139E+02  0.29585934139E+02  0.00000000000E+00 0. -1.
         23    2    1    2    0    0 -0.29970034975E+01 -0.63553341985E+00  0.24256744344E+03  0.27289692435E+03  0.12499752306E+03 0.  0.
         23    2    1    2    0    0  0.29970034975E+01  0.63553341985E+00  0.10829406369E+03  0.13713645106E+03  0.84079819489E+02 0.  0.
          5    1    3    3  502    0 -0.45842406969E+02  0.43326715273E+02  0.13093159111E+03  0.14540942915E+03  0.47000000000E+01 0.  1.
         -5    1    3    3    0  502  0.42845403472E+02 -0.43962248693E+02  0.11163585232E+03  0.12748749520E+03  0.47000000000E+01 0.  1.
        -11    1    4    4    0    0  0.95299658708E+01  0.35344400986E+02  0.90427772690E+02  0.97556286339E+02  0.00000000000E+00 0.  1.
         11    1    4    4    0    0 -0.65329623733E+01 -0.34708867566E+02  0.17866291001E+02  0.39580164720E+02  0.00000000000E+00 0. -1.
<mgrwt>
<rscale>  0 0.11324495E+03</rscale>
<asrwt>0</asrwt>
<pdfrwt beam="2">  1        2 0.45516824E-02 0.12503506E+03</pdfrwt>
<pdfrwt beam="1">  1       -2 0.58530372E-01 0.12503506E+03</pdfrwt>
<totfact> 0.46769423E+03</totfact>
</mgrwt>
</event>
<event>
 8    1  0.1646661E-005  0.1269943E+03  0.7546771E-02  0.1247810E+00
         -2   -1    0    0    0  501 -0.00000000000E+00  0.00000000000E+00  0.12852785437E+03  0.12852785437E+03  0.00000000000E+00 0.  1.
          2   -1    0    0  501    0  0.00000000000E+00 -0.00000000000E+00 -0.96981094747E+02  0.96981094747E+02  0.00000000000E+00 0. -1.
         23    2    1    2    0    0  0.86090622456E+01 -0.20706365720E+02  0.39730130420E+02  0.13306401557E+03  0.12499871777E+03 0.  0.
         23    2    1    2    0    0 -0.86090622456E+01  0.20706365720E+02 -0.81833707932E+01  0.92444933548E+02  0.89309734336E+02 0.  0.
          5    1    3    3  502    0  0.34174256186E+02  0.17271943204E+02 -0.30444610806E+02  0.49144319458E+02  0.47000000000E+01 0.  1.
         -5    1    3    3    0  502 -0.25565193941E+02 -0.37978308924E+02  0.70174741226E+02  0.83919696115E+02  0.47000000000E+01 0.  1.
        -11    1    4    4    0    0 -0.22212446008E+02  0.40325084883E+01  0.36461417813E+02  0.42884599465E+02  0.00000000000E+00 0.  1.
         11    1    4    4    0    0  0.13603383763E+02  0.16673857231E+02 -0.44644788606E+02  0.49560334083E+02  0.00000000000E+00 0. -1.
<mgrwt>
<rscale>  0 0.11718765E+03</rscale>
<asrwt>0</asrwt>
<pdfrwt beam="2">  1        2 0.14920168E-01 0.12699429E+03</pdfrwt>
<pdfrwt beam="1">  1       -2 0.19773516E-01 0.12699429E+03</pdfrwt>
<totfact> 0.78946299E+03</totfact>
</mgrwt>
</event>
<event>
 8    1  0.1646661E-005  0.1255876E+03  0.7546771E-02  0.1247736E+00
         -2   -1    0    0    0  501 -0.00000000000E+00  0.00000000000E+00  0.43057981781E+02  0.43057981781E+02  0.00000000000E+00 0.  1.
          2   -1    0    0  501    0  0.00000000000E+00 -0.00000000000E+00 -0.29482149917E+03  0.29482149917E+03  0.00000000000E+00 0. -1.
         23    2    1    2    0    0  0.22481081975E+01  0.11849577653E+02 -0.10952560721E+03  0.16663765998E+03  0.12500713823E+03 0.  0.
         23    2    1    2    0    0 -0.22481081975E+01 -0.11849577653E+02 -0.14223791018E+03  0.17124182097E+03  0.94586847266E+02 0.  0.
          5    1    3    3  502    0 -0.29760989174E+02  0.36130350705E+01  0.17682607600E+02  0.35121718502E+02  0.47000000000E+01 0.  1.
         -5    1    3    3    0  502  0.32009097371E+02  0.82365425825E+01 -0.12720821480E+03  0.13151594148E+03  0.47000000000E+01 0.  1.
        -11    1    4    4    0    0 -0.90607106538E+01 -0.52898449549E+02 -0.83440685668E+02  0.99210334477E+02  0.00000000000E+00 0.  1.
         11    1    4    4    0    0  0.68126024563E+01  0.41048871896E+02 -0.58797224515E+02  0.72031486496E+02  0.00000000000E+00 0. -1.
<mgrwt>
<rscale>  0 0.11723125E+03</rscale>
<asrwt>0</asrwt>
<pdfrwt beam="2">  1        2 0.45357155E-01 0.12558762E+03</pdfrwt>
<pdfrwt beam="1">  1       -2 0.66243047E-02 0.12558762E+03</pdfrwt>
<totfact> 0.13229907E+04</totfact>
</mgrwt>
</event>
<event>
 8    1  0.1646661E-005  0.1326231E+03  0.7546771E-02  0.1238433E+00
         -2   -1    0    0    0  501 -0.00000000000E+00  0.00000000000E+00  0.17617325456E+02  0.17617325456E+02  0.00000000000E+00 0. -1.
          2   -1    0    0  501    0  0.00000000000E+00 -0.00000000000E+00 -0.75710294566E+03  0.75710294566E+03  0.00000000000E+00 0.  1.
         23    2    1    2    0    0  0.30956762822E+02 -0.31704052711E+02 -0.39684952900E+03  0.41842376093E+03  0.12500170765E+03 0.  0.
         23    2    1    2    0    0 -0.30956762822E+02  0.31704052711E+02 -0.34263609120E+03  0.35629651019E+03  0.87087565462E+02 0.  0.
          5    1    3    3  502    0 -0.71905733906E+01  0.20337876541E+02 -0.30652656972E+03  0.30732061680E+03  0.47000000000E+01 0. -1.
         -5    1    3    3    0  502  0.38147336212E+02 -0.52041929252E+02 -0.90322959287E+02  0.11110314413E+03  0.47000000000E+01 0. -1.
        -11    1    4    4    0    0  0.24135422983E+02  0.15270948885E+02 -0.46035730375E+02  0.54175723286E+02  0.00000000000E+00 0. -1.
         11    1    4    4    0    0 -0.55092185805E+02  0.16433103826E+02 -0.29660036082E+03  0.30212078690E+03  0.00000000000E+00 0.  1.
<mgrwt>
<rscale>  0 0.12287170E+03</rscale>
<asrwt>0</asrwt>
<pdfrwt beam="2">  1        2 0.11647736E+00 0.13262313E+03</pdfrwt>
<pdfrwt beam="1">  1       -2 0.27103581E-02 0.13262313E+03</pdfrwt>
<totfact> 0.17773953E+04</totfact>
</mgrwt>
</event>
<event>
 7    1  0.1646661E-005  0.3173284E+03  0.7546771E-02  0.1124106E+00
         -3   -1    0    0    0  501 -0.00000000000E+00  0.00000000000E+00  0.15279301006E+03  0.15279301006E+03  0.00000000000E+00 0.  1.
          3   -1    0    0  501    0  0.00000000000E+00 -0.00000000000E+00 -0.28949280960E+03  0.28949280960E+03  0.00000000000E+00 0. -1.
         23    2    1    2    0    0 -0.26938657818E+01  0.14630573695E+02 -0.73483225831E+02  0.11872182347E+03  0.92053116675E+02 0.  0.
          5    1    1    2  502    0  0.78818917776E+02  0.11003400982E+03 -0.10521969802E+03  0.17150271126E+03  0.47000000000E+01 0. -1.
         -5    1    1    2    0  502 -0.76125051994E+02 -0.12466458352E+03  0.42003124312E+02  0.15206128494E+03  0.47000000000E+01 0.  1.
        -11    1    3    3    0    0 -0.19439875298E+01 -0.37228347262E+02 -0.14045094800E+02  0.39837088439E+02  0.00000000000E+00 0.  1.
         11    1    3    3    0    0 -0.74987825194E+00  0.51858920957E+02 -0.59438131030E+02  0.78884735029E+02  0.00000000000E+00 0. -1.
<mgrwt>
<rscale>  0 0.23363665E+03</rscale>
<asrwt>0</asrwt>
<pdfrwt beam="2">  1        3 0.44537355E-01 0.31732842E+03</pdfrwt>
<pdfrwt beam="1">  1       -3 0.23506617E-01 0.31732842E+03</pdfrwt>
<totfact> 0.21569958E+02</totfact>
</mgrwt>
</event>
<event>
 8    1  0.1646661E-005  0.1563516E+03  0.7546771E-02  0.1201143E+00
         -3   -1    0    0    0  501 -0.00000000000E+00  0.00000000000E+00  0.13822001863E+03  0.13822001863E+03  0.00000000000E+00 0.  1.
          3   -1    0    0  501    0  0.00000000000E+00 -0.00000000000E+00 -0.14971215217E+03  0.14971215217E+03  0.00000000000E+00 0. -1.
         23    2    1    2    0    0  0.93625962728E+02 -0.74983774020E+01 -0.17020874360E+02  0.15727538403E+03  0.12499515870E+03 0.  0.
         23    2    1    2    0    0 -0.93625962728E+02  0.74983774020E+01  0.55287408256E+01  0.13065678677E+03  0.90656397423E+02 0.  0.
          5    1    3    3  502    0  0.12389127175E+03 -0.56226033117E+01 -0.22425447811E+02  0.12611761016E+03  0.47000000000E+01 0.  1.
         -5    1    3    3    0  502 -0.30265309019E+02 -0.18757740903E+01  0.54045734516E+01  0.31157773872E+02  0.47000000000E+01 0.  1.
        -11    1    4    4    0    0 -0.90416130485E+02  0.39091120654E+02  0.50236071841E+00  0.98506064443E+02  0.00000000000E+00 0. -1.
         11    1    4    4    0    0 -0.32098322434E+01 -0.31592743252E+02  0.50263801072E+01  0.32150722328E+02  0.00000000000E+00 0.  1.
<mgrwt>
<rscale>  0 0.14945572E+03</rscale>
<asrwt>0</asrwt>
<pdfrwt beam="2">  1        3 0.23032639E-01 0.15635164E+03</pdfrwt>
<pdfrwt beam="1">  1       -3 0.21264618E-01 0.15635164E+03</pdfrwt>
<totfact> 0.82736586E+02</totfact>
</mgrwt>
</event>
<event>
 7    1  0.1646661E-005  0.3071573E+03  0.7546771E-02  0.1081717E+00
          2   -1    0    0  501    0  0.00000000000E+00  0.00000000000E+00  0.24803366077E+03  0.24803366077E+03  0.00000000000E+00 0. -1.
         -2   -1    0    0    0  501 -0.00000000000E+00 -0.00000000000E+00 -0.95093529232E+02  0.95093529232E+02  0.00000000000E+00 0.  1.
         23    2    1    2    0    0 -0.61390088503E+02 -0.31044346467E+02  0.14047493838E+03  0.18430243951E+03  0.97476594536E+02 0.  0.
          5    1    1    2  502    0  0.27497335771E+02  0.13294283761E+02  0.77383048771E+02  0.83325072411E+02  0.47000000000E+01 0. -1.
         -5    1    1    2    0  502  0.33892752732E+02  0.17750062706E+02 -0.64917855610E+02  0.75499678084E+02  0.47000000000E+01 0.  1.
        -11    1    3    3    0    0 -0.15282423150E+02  0.26340415550E+01 -0.13198783592E+02  0.20364147921E+02  0.00000000000E+00 0.  1.
         11    1    3    3    0    0 -0.46107665353E+02 -0.33678388022E+02  0.15367372197E+03  0.16393829159E+03  0.00000000000E+00 0. -1.
<mgrwt>
<rscale>  0 0.30715726E+03</rscale>
<asrwt>0</asrwt>
<pdfrwt beam="1">  1        2 0.38159025E-01 0.30715726E+03</pdfrwt>
<pdfrwt beam="2">  1       -2 0.14629774E-01 0.30715726E+03</pdfrwt>
<totfact> 0.47936605E+03</totfact>
</mgrwt>
</event>
<event>
 8    1  0.1646661E-005  0.1269206E+03  0.7546771E-02  0.1246196E+00
         -1   -1    0    0    0  501 -0.00000000000E+00  0.00000000000E+00  0.28093991235E+03  0.28093991235E+03  0.00000000000E+00 0.  1.
          1   -1    0    0  501    0  0.00000000000E+00 -0.00000000000E+00 -0.46103006732E+02  0.46103006732E+02  0.00000000000E+00 0. -1.
         23    2    1    2    0    0 -0.21627379873E+02 -0.41511502930E+01  0.16845808671E+03  0.21091931685E+03  0.12499542246E+03 0.  0.
         23    2    1    2    0    0  0.21627379873E+02  0.41511502930E+01  0.66378818911E+02  0.11612360223E+03  0.92701498294E+02 0.  0.
          5    1    3    3  502    0 -0.17576958098E+01  0.51898810960E+02  0.29994946260E+02  0.60152829317E+02  0.47000000000E+01 0.  1.
         -5    1    3    3    0  502 -0.19869684063E+02 -0.56049961253E+02  0.13846314045E+03  0.15076648754E+03  0.47000000000E+01 0.  1.
        -11    1    4    4    0    0  0.34136417358E+01  0.33526472140E+02  0.73478819213E+02  0.80838197389E+02  0.00000000000E+00 0.  1.
         11    1    4    4    0    0  0.18213738137E+02 -0.29375321847E+02 -0.71000003019E+01  0.35285404842E+02  0.00000000000E+00 0. -1.
<mgrwt>
<rscale>  0 0.11814111E+03</rscale>
<asrwt>0</asrwt>
<pdfrwt beam="2">  1        1 0.70927704E-02 0.12692057E+03</pdfrwt>
<pdfrwt beam="1">  1       -1 0.43221524E-01 0.12692057E+03</pdfrwt>
<totfact> 0.52239017E+03</totfact>
</mgrwt>
</event>
<event>
 8    1  0.1646661E-005  0.1580448E+03  0.7546771E-02  0.1198653E+00
         -1   -1    0    0    0  501 -0.00000000000E+00  0.00000000000E+00  0.49304334882E+02  0.49304334882E+02  0.00000000000E+00 0.  1.
          1   -1    0    0  501    0  0.00000000000E+00 -0.00000000000E+00 -0.43161669095E+03  0.43161669095E+03  0.00000000000E+00 0. -1.
         23    2    1    2    0    0  0.69493386672E+02 -0.67243178212E+02 -0.19646136128E+03  0.25214130119E+03  0.12500877362E+03 0.  0.
         23    2    1    2    0    0 -0.69493386672E+02  0.67243178212E+02 -0.18585099479E+03  0.22877972464E+03  0.91916235435E+02 0.  0.
          5    1    3    3  502    0  0.48832178012E+02 -0.77041924536E+02 -0.50582932136E+02  0.10440671803E+03  0.47000000000E+01 0.  1.
         -5    1    3    3    0  502  0.20661208660E+02  0.97987463240E+01 -0.14587842915E+03  0.14773458317E+03  0.47000000000E+01 0.  1.
        -11    1    4    4    0    0 -0.65912552855E+02  0.34824895260E+02 -0.51698051482E+02  0.90718942238E+02  0.00000000000E+00 0.  1.
         11    1    4    4    0    0 -0.35808338168E+01  0.32418282952E+02 -0.13415294331E+03  0.13806078241E+03  0.00000000000E+00 0. -1.
<mgrwt>
<rscale>  0 0.15149085E+03</rscale>
<asrwt>0</asrwt>
<pdfrwt beam="2">  1        1 0.66402570E-01 0.15804483E+03</pdfrwt>
<pdfrwt beam="1">  1       -1 0.75852820E-02 0.15804483E+03</pdfrwt>
<totfact> 0.49750523E+03</totfact>
</mgrwt>
</event>
<event>
 8    1  0.1646661E-005  0.1331820E+03  0.7546771E-02  0.1235632E+00
          2   -1    0    0  501    0  0.00000000000E+00  0.00000000000E+00  0.43964022561E+03  0.43964022561E+03  0.00000000000E+00 0. -1.
         -2   -1    0    0    0  501 -0.00000000000E+00 -0.00000000000E+00 -0.33524890612E+02  0.33524890612E+02  0.00000000000E+00 0.  1.
         23    2    1    2    0    0 -0.43225849870E+02 -0.15624415465E+02  0.28591804009E+03  0.31541489997E+03  0.12499934806E+03 0.  0.
         23    2    1    2    0    0  0.43225849870E+02  0.15624415465E+02  0.12019729490E+03  0.15775021625E+03  0.91242230192E+02 0.  0.
          5    1    3    3  502    0  0.41401698900E+01  0.41614063929E+01 -0.11402569670E+02  0.13658949629E+02  0.47000000000E+01 0.  1.
         -5    1    3    3    0  502 -0.47366019760E+02 -0.19785821858E+02  0.29732060976E+03  0.30175595034E+03  0.47000000000E+01 0.  1.
        -11    1    4    4    0    0  0.15201053427E+01  0.24416691362E+02 -0.54558279662E+01  0.25064947558E+02  0.00000000000E+00 0.  1.
         11    1    4    4    0    0  0.41705744527E+02 -0.87922758967E+01  0.12565312287E+03  0.13268526869E+03  0.00000000000E+00 0. -1.
<mgrwt>
<rscale>  0 0.12464069E+03</rscale>
<asrwt>0</asrwt>
<pdfrwt beam="1">  1        2 0.67636954E-01 0.13318196E+03</pdfrwt>
<pdfrwt beam="2">  1       -2 0.51576758E-02 0.13318196E+03</pdfrwt>
<totfact> 0.12691078E+04</totfact>
</mgrwt>
</event>
<event>
 7    1  0.1646661E-005  0.2408642E+03  0.7546771E-02  0.1135590E+00
         -2   -1    0    0    0  501 -0.00000000000E+00  0.00000000000E+00  0.26292305706E+02  0.26292305706E+02  0.00000000000E+00 0.  1.
          2   -1    0    0  501    0  0.00000000000E+00 -0.00000000000E+00 -0.15352765177E+04  0.15352765177E+04  0.00000000000E+00 0. -1.
         23    2    1    2    0    0  0.30923727763E+02  0.13343161130E+03 -0.62490038625E+03  0.64526114780E+03  0.84268524941E+02 0.  0.
          5    1    1    2  502    0 -0.27006742147E+02 -0.62165953492E+02 -0.81172277532E+03  0.81456118486E+03  0.47000000000E+01 0. -1.
         -5    1    1    2    0  502 -0.39169856166E+01 -0.71265657807E+02 -0.72361050380E+02  0.10174649071E+03  0.47000000000E+01 0.  1.
        -11    1    3    3    0    0  0.58958769834E+02  0.96103025763E+02 -0.40119461155E+03  0.41673618086E+03  0.00000000000E+00 0.  1.
         11    1    3    3    0    0 -0.28035042070E+02  0.37328585536E+02 -0.22370577470E+03  0.22852496694E+03  0.00000000000E+00 0. -1.
<mgrwt>
<rscale>  0 0.21772624E+03</rscale>
<asrwt>0</asrwt>
<pdfrwt beam="2">  1        2 0.23619641E+00 0.24086416E+03</pdfrwt>
<pdfrwt beam="1">  1       -2 0.40449697E-02 0.24086416E+03</pdfrwt>
<totfact> 0.35264413E+03</totfact>
</mgrwt>
</event>
<event>
 8    1  0.1646661E-005  0.2881373E+03  0.7546771E-02  0.1092968E+00
         -1   -1    0    0    0  501 -0.00000000000E+00  0.00000000000E+00  0.49808546399E+03  0.49808546399E+03  0.00000000000E+00 0.  1.
          1   -1    0    0  501    0  0.00000000000E+00 -0.00000000000E+00 -0.18443711248E+03  0.18443711248E+03  0.00000000000E+00 0. -1.
         23    2    1    2    0    0  0.19380665294E+03  0.17273105302E+03  0.28469845934E+03  0.40506336094E+03  0.12500431280E+03 0.  0.
         23    2    1    2    0    0 -0.19380665294E+03 -0.17273105302E+03  0.28949892174E+02  0.27745921554E+03  0.93533334306E+02 0.  0.
          5    1    3    3  502    0  0.45920725690E+02  0.49963547292E+02  0.85214364898E+01  0.68554897606E+02  0.47000000000E+01 0. -1.
         -5    1    3    3    0  502  0.14788592725E+03  0.12276750573E+03  0.27617702285E+03  0.33650846333E+03  0.47000000000E+01 0. -1.
        -11    1    4    4    0    0 -0.15838362346E+03 -0.15503431188E+03  0.57106575867E+02  0.22887151647E+03  0.00000000000E+00 0.  1.
         11    1    4    4    0    0 -0.35423029480E+02 -0.17696741141E+02 -0.28156683692E+02  0.48587699072E+02  0.00000000000E+00 0. -1.
<mgrwt>
<rscale>  0 0.28503958E+03</rscale>
<asrwt>0</asrwt>
<pdfrwt beam="2">  1        1 0.28374941E-01 0.28813732E+03</pdfrwt>
<pdfrwt beam="1">  1       -1 0.76628532E-01 0.28813732E+03</pdfrwt>
<totfact> 0.29130767E+02</totfact>
</mgrwt>
</event>
<event>
 8    1  0.1646661E-005  0.1285265E+03  0.7546771E-02  0.1245897E+00
          1   -1    0    0  501    0  0.00000000000E+00  0.00000000000E+00  0.30571003031E+03  0.30571003031E+03  0.00000000000E+00 0. -1.
         -1   -1    0    0    0  501 -0.00000000000E+00 -0.00000000000E+00 -0.41810228967E+02  0.41810228967E+02  0.00000000000E+00 0.  1.
         23    2    1    2    0    0 -0.29580856980E+02  0.42003870653E+01  0.11574220030E+03  0.17296043027E+03  0.12500553251E+03 0.  0.
         23    2    1    2    0    0  0.29580856980E+02 -0.42003870653E+01  0.14815760104E+03  0.17455982900E+03  0.87337213174E+02 0.  0.
          5    1    3    3  502    0  0.42340873280E+02 -0.12703728620E+02  0.12984125595E+02  0.46312112762E+02  0.47000000000E+01 0. -1.
         -5    1    3    3    0  502 -0.71921730260E+02  0.16904115686E+02  0.10275807471E+03  0.12664831751E+03  0.47000000000E+01 0. -1.
        -11    1    4    4    0    0  0.41679564895E+02  0.31896304828E+02  0.68709458538E+02  0.86461263489E+02  0.00000000000E+00 0.  1.
         11    1    4    4    0    0 -0.12098707915E+02 -0.36096691893E+02  0.79448142503E+02  0.88098565516E+02  0.00000000000E+00 0. -1.
<mgrwt>
<rscale>  0 0.11831841E+03</rscale>
<asrwt>0</asrwt>
<pdfrwt beam="1">  1        1 0.47032311E-01 0.12852647E+03</pdfrwt>
<pdfrwt beam="2">  1       -1 0.64323431E-02 0.12852647E+03</pdfrwt>
<totfact> 0.96930800E+03</totfact>
</mgrwt>
</event>
<event>
 8    1  0.1646661E-005  0.1567548E+03  0.7546771E-02  0.1200931E+00
         -2   -1    0    0    0  501 -0.00000000000E+00  0.00000000000E+00  0.24300791230E+03  0.24300791230E+03  0.00000000000E+00 0.  1.
          2   -1    0    0  501    0  0.00000000000E+00 -0.00000000000E+00 -0.97185451547E+02  0.97185451547E+02  0.00000000000E+00 0. -1.
         23    2    1    2    0    0 -0.34390913515E+01  0.94530818126E+02  0.13960850480E+03  0.20991097081E+03  0.12499671246E+03 0.  0.
         23    2    1    2    0    0  0.34390913515E+01 -0.94530818126E+02  0.62139559492E+01  0.13028239304E+03  0.89369937692E+02 0.  0.
          5    1    3    3  502    0 -0.23380828469E+02  0.54656345924E+02 -0.37066021438E+01  0.59747871837E+02  0.47000000000E+01 0.  1.
         -5    1    3    3    0  502  0.19941737117E+02  0.39874472202E+02  0.14331510695E+03  0.15016309897E+03  0.47000000000E+01 0.  1.
        -11    1    4    4    0    0  0.20531139790E+02  0.79448051083E+01  0.14017279717E+02  0.26098501105E+02  0.00000000000E+00 0.  1.
         11    1    4    4    0    0 -0.17092048438E+02 -0.10247562323E+03 -0.78033237676E+01  0.10418389194E+03  0.00000000000E+00 0. -1.
<mgrwt>
<rscale>  0 0.14962822E+03</rscale>
<asrwt>0</asrwt>
<pdfrwt beam="2">  1        2 0.14951608E-01 0.15675484E+03</pdfrwt>
<pdfrwt beam="1">  1       -2 0.37385832E-01 0.15675484E+03</pdfrwt>
<totfact> 0.25784139E+03</totfact>
</mgrwt>
</event>
<event>
 8    1  0.1646661E-005  0.1545640E+03  0.7546771E-02  0.1203855E+00
          2   -1    0    0  501    0  0.00000000000E+00  0.00000000000E+00  0.50149215536E+02  0.50149215536E+02  0.00000000000E+00 0. -1.
         -2   -1    0    0    0  501 -0.00000000000E+00 -0.00000000000E+00 -0.67693438219E+03  0.67693438219E+03  0.00000000000E+00 0.  1.
         23    2    1    2    0    0 -0.80499449719E+02 -0.42312934075E+02 -0.56444805928E+03  0.58522784302E+03  0.12497788134E+03 0.  0.
         23    2    1    2    0    0  0.80499449719E+02  0.42312934075E+02 -0.62337107374E+02  0.14185575471E+03  0.89255780723E+02 0.  0.
          5    1    3    3  502    0 -0.90287010809E+02 -0.52522675444E+02 -0.25750516565E+03  0.27792332772E+03  0.47000000000E+01 0. -1.
         -5    1    3    3    0  502  0.97875610902E+01  0.10209741370E+02 -0.30694289363E+03  0.30730451530E+03  0.47000000000E+01 0. -1.
        -11    1    4    4    0    0 -0.14026239152E+02 -0.33212358817E+01  0.70338871581E+01  0.16038751855E+02  0.00000000000E+00 0. -1.
         11    1    4    4    0    0  0.94525688870E+02  0.45634169956E+02 -0.69370994532E+02  0.12581700285E+03  0.00000000000E+00 0.  1.
<mgrwt>
<rscale>  0 0.14728037E+03</rscale>
<asrwt>0</asrwt>
<pdfrwt beam="1">  1        2 0.77152648E-02 0.15456396E+03</pdfrwt>
<pdfrwt beam="2">  1       -2 0.10414374E+00 0.15456396E+03</pdfrwt>
<totfact> 0.68309995E+02</totfact>
</mgrwt>
</event>
<event>
 8    1  0.1646661E-005  0.1401529E+03  0.7546771E-02  0.1224357E+00
          2   -1    0    0  501    0  0.00000000000E+00  0.00000000000E+00  0.11933297510E+03  0.11933297510E+03  0.00000000000E+00 0. -1.
         -2   -1    0    0    0  501 -0.00000000000E+00 -0.00000000000E+00 -0.15947991201E+03  0.15947991201E+03  0.00000000000E+00 0.  1.
         23    2    1    2    0    0  0.57051644062E+02  0.27603245811E+02 -0.79794234490E+02  0.16127599400E+03  0.12500398839E+03 0.  0.
         23    2    1    2    0    0 -0.57051644062E+02 -0.27603245811E+02  0.39647297582E+02  0.11753689311E+03  0.90698311821E+02 0.  0.
          5    1    3    3  502    0 -0.94894568102E+01  0.45544177248E+00  0.28959088405E+02  0.30837899069E+02  0.47000000000E+01 0.  1.
         -5    1    3    3    0  502  0.66541100872E+02  0.27147804038E+02 -0.10875332289E+03  0.13043809493E+03  0.47000000000E+01 0.  1.
        -11    1    4    4    0    0 -0.20352528112E+02 -0.29260203918E+02 -0.24753481572E+02  0.43394928089E+02  0.00000000000E+00 0.  1.
         11    1    4    4    0    0 -0.36699115950E+02  0.16569581077E+01  0.64400779154E+02  0.74141965022E+02  0.00000000000E+00 0. -1.
<mgrwt>
<rscale>  0 0.13211056E+03</rscale>
<asrwt>0</asrwt>
<pdfrwt beam="1">  1        2 0.18358919E-01 0.14015287E+03</pdfrwt>
<pdfrwt beam="2">  1       -2 0.24535371E-01 0.14015287E+03</pdfrwt>
<totfact> 0.43203331E+03</totfact>
</mgrwt>
</event>
<event>
 8    1  0.1646661E-005  0.1611846E+03  0.7546771E-02  0.1194177E+00
          2   -1    0    0  501    0  0.00000000000E+00  0.00000000000E+00  0.28121938530E+03  0.28121938530E+03  0.00000000000E+00 0. -1.
         -2   -1    0    0    0  501 -0.00000000000E+00 -0.00000000000E+00 -0.96385103201E+02  0.96385103201E+02  0.00000000000E+00 0.  1.
         23    2    1    2    0    0  0.59976782819E+02  0.82198556640E+02  0.20369656375E+02  0.16246664711E+03  0.12500668515E+03 0.  0.
         23    2    1    2    0    0 -0.59976782819E+02 -0.82198556640E+02  0.16446462572E+03  0.21513784139E+03  0.94243623087E+02 0.  0.
          5    1    3    3  502    0  0.66319833977E+02  0.51529672482E+02  0.66003032553E+02  0.10692108226E+03  0.47000000000E+01 0.  1.
         -5    1    3    3    0  502 -0.63430511574E+01  0.30668884158E+02 -0.45633376178E+02  0.55545564853E+02  0.47000000000E+01 0.  1.
        -11    1    4    4    0    0 -0.41051574935E+02 -0.11951194155E+01  0.10539406903E+03  0.11311308457E+03  0.00000000000E+00 0. -1.
         11    1    4    4    0    0 -0.18925207884E+02 -0.81003437225E+02  0.59070556698E+02  0.10202475682E+03  0.00000000000E+00 0.  1.
<mgrwt>
<rscale>  0 0.15524091E+03</rscale>
<asrwt>0</asrwt>
<pdfrwt beam="1">  1        2 0.43264521E-01 0.16118464E+03</pdfrwt>
<pdfrwt beam="2">  1       -2 0.14828478E-01 0.16118464E+03</pdfrwt>
<totfact> 0.39763949E+03</totfact>
</mgrwt>
</event>
<event>
 8    1  0.1646661E-005  0.1324012E+03  0.7546771E-02  0.1234091E+00
         -1   -1    0    0    0  501 -0.00000000000E+00  0.00000000000E+00  0.48068556332E+02  0.48068556332E+02  0.00000000000E+00 0.  1.
          1   -1    0    0  501    0  0.00000000000E+00 -0.00000000000E+00 -0.52464656441E+03  0.52464656441E+03  0.00000000000E+00 0. -1.
         23    2    1    2    0    0 -0.55789690948E+02  0.16353321190E+02 -0.65228823376E+02  0.14759700478E+03  0.11895442695E+03 0.  0.
         23    2    1    2    0    0  0.55789690948E+02 -0.16353321190E+02 -0.41134918470E+03  0.42511811595E+03  0.90207206086E+02 0.  0.
          5    1    3    3  502    0 -0.92753095402E+01 -0.17301468458E+02 -0.84481800662E+02  0.86859868875E+02  0.47000000000E+01 0. -1.
         -5    1    3    3    0  502 -0.46514381408E+02  0.33654789648E+02  0.19252977286E+02  0.60737135909E+02  0.47000000000E+01 0.  1.
        -11    1    4    4    0    0  0.44637085824E+02 -0.52354651140E+02 -0.29007488467E+03  0.29812231993E+03  0.00000000000E+00 0. -1.
         11    1    4    4    0    0  0.11152605124E+02  0.36001329949E+02 -0.12127430003E+03  0.12699579602E+03  0.00000000000E+00 0.  1.
<mgrwt>
<rscale>  0 0.12562833E+03</rscale>
<asrwt>0</asrwt>
<pdfrwt beam="2">  1        1 0.80714854E-01 0.13240119E+03</pdfrwt>
<pdfrwt beam="1">  1       -1 0.73951627E-02 0.13240119E+03</pdfrwt>
<totfact> 0.39796628E+03</totfact>
</mgrwt>
</event>
<event>
 8    1  0.1646661E-005  0.3820855E+03  0.7546771E-02  0.1051105E+00
         -1   -1    0    0    0  501 -0.00000000000E+00  0.00000000000E+00  0.26616585425E+03  0.26616585425E+03  0.00000000000E+00 0.  1.
          1   -1    0    0  501    0  0.00000000000E+00 -0.00000000000E+00 -0.57221868205E+03  0.57221868205E+03  0.00000000000E+00 0. -1.
         23    2    1    2    0    0 -0.19525373426E+03 -0.30371022347E+03 -0.46755528917E+02  0.38493561681E+03  0.12500171608E+03 0.  0.
         23    2    1    2    0    0  0.19525373426E+03  0.30371022347E+03 -0.25929729888E+03  0.45344891948E+03  0.89537214544E+02 0.  0.
          5    1    3    3  502    0 -0.17767035993E+03 -0.27021983375E+03 -0.81302072312E+02  0.33349307686E+03  0.47000000000E+01 0. -1.
         -5    1    3    3    0  502 -0.17583374331E+02 -0.33490389725E+02  0.34546543396E+02  0.51442539958E+02  0.47000000000E+01 0. -1.
        -11    1    4    4    0    0  0.14623405137E+03  0.28304315628E+03 -0.22743076667E+03  0.39143655900E+03  0.00000000000E+00 0. -1.
         11    1    4    4    0    0  0.49019682892E+02  0.20667067196E+02 -0.31866532215E+02  0.62012360483E+02  0.00000000000E+00 0.  1.
<mgrwt>
<rscale>  0 0.37953771E+03</rscale>
<asrwt>0</asrwt>
<pdfrwt beam="2">  1        1 0.88033643E-01 0.38208553E+03</pdfrwt>
<pdfrwt beam="1">  1       -1 0.40948593E-01 0.38208553E+03</pdfrwt>
<totfact> 0.22196466E+02</totfact>
</mgrwt>
</event>
<event>
 8    1  0.1646661E-005  0.1404813E+03  0.7546771E-02  0.1227060E+00
          2   -1    0    0  501    0  0.00000000000E+00  0.00000000000E+00  0.87507772551E+02  0.87507772551E+02  0.00000000000E+00 0.  1.
         -2   -1    0    0    0  501 -0.00000000000E+00 -0.00000000000E+00 -0.18393595125E+03  0.18393595125E+03  0.00000000000E+00 0. -1.
         23    2    1    2    0    0  0.60596588714E+02  0.20922421034E+02 -0.91107787305E+02  0.16743839597E+03  0.12500117308E+03 0.  0.
         23    2    1    2    0    0 -0.60596588714E+02 -0.20922421034E+02 -0.53203913889E+01  0.10400532783E+03  0.81725806120E+02 0.  0.
          5    1    3    3  502    0 -0.84927974510E+01  0.59302316765E+02 -0.28528869751E+02  0.66519762413E+02  0.47000000000E+01 0.  1.
         -5    1    3    3    0  502  0.69089386165E+02 -0.38379895731E+02 -0.62578917555E+02  0.10091863356E+03  0.47000000000E+01 0.  1.
        -11    1    4    4    0    0  0.20514938660E+02 -0.61937937989E+01 -0.85892492255E+00  0.21446760638E+02  0.00000000000E+00 0. -1.
         11    1    4    4    0    0 -0.81111527373E+02 -0.14728627235E+02 -0.44614664664E+01  0.82558567188E+02  0.00000000000E+00 0.  1.
<mgrwt>
<rscale>  0 0.13026732E+03</rscale>
<asrwt>0</asrwt>
<pdfrwt beam="1">  1        2 0.13462734E-01 0.14048127E+03</pdfrwt>
<pdfrwt beam="2">  1       -2 0.28297839E-01 0.14048127E+03</pdfrwt>
<totfact> 0.48237766E+03</totfact>
</mgrwt>
</event>
<event>
 8    1  0.1646661E-005  0.1342161E+03  0.7546771E-02  0.1234161E+00
          2   -1    0    0  501    0  0.00000000000E+00  0.00000000000E+00  0.11639588457E+03  0.11639588457E+03  0.00000000000E+00 0. -1.
         -2   -1    0    0    0  501 -0.00000000000E+00 -0.00000000000E+00 -0.12600058143E+03  0.12600058143E+03  0.00000000000E+00 0.  1.
         23    2    1    2    0    0  0.19274369928E+02 -0.44912614401E+02 -0.29979674839E+02  0.13752364560E+03  0.12500131170E+03 0.  0.
         23    2    1    2    0    0 -0.19274369928E+02  0.44912614401E+02  0.20374977970E+02  0.10487282040E+03  0.90523612734E+02 0.  0.
          5    1    3    3  502    0 -0.22877910944E+02  0.32493826216E+02  0.90298094682E+01  0.41022859607E+02  0.47000000000E+01 0.  1.
         -5    1    3    3    0  502  0.42152280872E+02 -0.77406440617E+02 -0.39009484307E+02  0.96500785994E+02  0.47000000000E+01 0.  1.
        -11    1    4    4    0    0 -0.26486319639E+02  0.94993254097E+01 -0.31124146425E+02  0.41958012369E+02  0.00000000000E+00 0.  1.
         11    1    4    4    0    0  0.72119497111E+01  0.35413288991E+02  0.51499124396E+02  0.62914808029E+02  0.00000000000E+00 0. -1.
<mgrwt>
<rscale>  0 0.12558290E+03</rscale>
<asrwt>0</asrwt>
<pdfrwt beam="1">  1        2 0.17907059E-01 0.13421614E+03</pdfrwt>
<pdfrwt beam="2">  1       -2 0.19384705E-01 0.13421614E+03</pdfrwt>
<totfact> 0.66370997E+03</totfact>
</mgrwt>
</event>
<event>
 8    1  0.1646661E-005  0.2112101E+03  0.7546771E-02  0.1144203E+00
          1   -1    0    0  501    0  0.00000000000E+00  0.00000000000E+00  0.46855200531E+03  0.46855200531E+03  0.00000000000E+00 0. -1.
         -1   -1    0    0    0  501 -0.00000000000E+00 -0.00000000000E+00 -0.17979505776E+03  0.17979505776E+03  0.00000000000E+00 0.  1.
         23    2    1    2    0    0 -0.16733541617E+03 -0.31360911230E+02 -0.84747506326E+02  0.22757818532E+03  0.12500016939E+03 0.  0.
         23    2    1    2    0    0  0.16733541617E+03  0.31360911230E+02  0.37350445388E+03  0.42076887774E+03  0.92499854857E+02 0.  0.
          5    1    3    3  502    0 -0.20694103740E+02  0.38593018920E+02  0.48733282134E+00  0.44045369021E+02  0.47000000000E+01 0. -1.
         -5    1    3    3    0  502 -0.14664131243E+03 -0.69953930150E+02 -0.85234839148E+02  0.18353281630E+03  0.47000000000E+01 0. -1.
        -11    1    4    4    0    0  0.55462676586E+02  0.18711512869E+01  0.22914685990E+03  0.23577084871E+03  0.00000000000E+00 0. -1.
         11    1    4    4    0    0  0.11187273959E+03  0.29489759943E+02  0.14435759398E+03  0.18499802902E+03  0.00000000000E+00 0.  1.
<mgrwt>
<rscale>  0 0.20670406E+03</rscale>
<asrwt>0</asrwt>
<pdfrwt beam="1">  1        1 0.72084924E-01 0.21121006E+03</pdfrwt>
<pdfrwt beam="2">  1       -1 0.27660778E-01 0.21121006E+03</pdfrwt>
<totfact> 0.58185045E+02</totfact>
</mgrwt>
</event>
<event>
 8    1  0.1646661E-005  0.1275043E+03  0.7546771E-02  0.1245617E+00
          1   -1    0    0  501    0  0.00000000000E+00  0.00000000000E+00  0.35894118109E+02  0.35894118109E+02  0.00000000000E+00 0. -1.
         -1   -1    0    0    0  501 -0.00000000000E+00 -0.00000000000E+00 -0.34521737954E+03  0.34521737954E+03  0.00000000000E+00 0.  1.
         23    2    1    2    0    0  0.23525268136E+02 -0.88562041924E+01 -0.17322665596E+03  0.21509260028E+03  0.12500192706E+03 0.  0.
         23    2    1    2    0    0 -0.23525268136E+02  0.88562041924E+01 -0.13609660548E+03  0.16601889737E+03  0.91695788718E+02 0.  0.
          5    1    3    3  502    0  0.69206503294E+02 -0.31553681835E+02 -0.10715324426E+03  0.13148795644E+03  0.47000000000E+01 0.  1.
         -5    1    3    3    0  502 -0.45681235158E+02  0.22697477642E+02 -0.66073411701E+02  0.83604643834E+02  0.47000000000E+01 0.  1.
        -11    1    4    4    0    0 -0.47891615511E+02 -0.77342872498E+01 -0.32704209364E+02  0.58506335944E+02  0.00000000000E+00 0.  1.
         11    1    4    4    0    0  0.24366347375E+02  0.16590491442E+02 -0.10339239611E+03  0.10751256143E+03  0.00000000000E+00 0. -1.
<mgrwt>
<rscale>  0 0.11848535E+03</rscale>
<asrwt>0</asrwt>
<pdfrwt beam="1">  1        1 0.55221721E-02 0.12750432E+03</pdfrwt>
<pdfrwt beam="2">  1       -1 0.53110366E-01 0.12750432E+03</pdfrwt>
<totfact> 0.50516903E+03</totfact>
</mgrwt>
</event>
<event>
 8    1  0.1646661E-005  0.1283000E+03  0.7546771E-02  0.1248647E+00
          2   -1    0    0  501    0  0.00000000000E+00  0.00000000000E+00  0.49866694973E+02  0.49866694973E+02  0.00000000000E+00 0. -1.
         -2   -1    0    0    0  501 -0.00000000000E+00 -0.00000000000E+00 -0.35363975814E+03  0.35363975814E+03  0.00000000000E+00 0.  1.
         23    2    1    2    0    0  0.11904200900E+02  0.26333298215E+02 -0.28663039098E+03  0.31403484475E+03  0.12500300034E+03 0.  0.
         23    2    1    2    0    0 -0.11904200900E+02 -0.26333298215E+02 -0.17142672186E+02  0.89471608355E+02  0.82922523467E+02 0.  0.
          5    1    3    3  502    0 -0.31331920007E+02 -0.19775758862E+02 -0.21570486742E+03  0.21891425189E+03  0.47000000000E+01 0. -1.
         -5    1    3    3    0  502  0.43236120907E+02  0.46109057077E+02 -0.70925523557E+02  0.95120592868E+02  0.47000000000E+01 0. -1.
        -11    1    4    4    0    0  0.23330365348E+02  0.41543945003E+01  0.19104430891E+02  0.30439188896E+02  0.00000000000E+00 0. -1.
         11    1    4    4    0    0 -0.35234566248E+02 -0.30487692715E+02 -0.36247103077E+02  0.59032419460E+02  0.00000000000E+00 0.  1.
<mgrwt>
<rscale>  0 0.11669737E+03</rscale>
<asrwt>0</asrwt>
<pdfrwt beam="1">  1        2 0.76717996E-02 0.12830005E+03</pdfrwt>
<pdfrwt beam="2">  1       -2 0.54406114E-01 0.12830005E+03</pdfrwt>
<totfact> 0.27765648E+03</totfact>
</mgrwt>
</event>
<event>
 8    1  0.1646661E-005  0.1339964E+03  0.7546771E-02  0.1234238E+00
          1   -1    0    0  501    0  0.00000000000E+00  0.00000000000E+00  0.32649008955E+02  0.32649008955E+02  0.00000000000E+00 0. -1.
         -1   -1    0    0    0  501 -0.00000000000E+00 -0.00000000000E+00 -0.45431207699E+03  0.45431207699E+03  0.00000000000E+00 0.  1.
         23    2    1    2    0    0  0.11018253136E+02  0.46983536054E+02 -0.18192054009E+03  0.22594273842E+03  0.12500473423E+03 0.  0.
         23    2    1    2    0    0 -0.11018253136E+02 -0.46983536054E+02 -0.23974252795E+03  0.26101834752E+03  0.91242772166E+02 0.  0.
          5    1    3    3  502    0 -0.29102539340E+01 -0.37549637202E+02 -0.10142112883E+03  0.10829025905E+03  0.47000000000E+01 0.  1.
         -5    1    3    3    0  502  0.13928507070E+02  0.84533173256E+02 -0.80499411252E+02  0.11765247937E+03  0.47000000000E+01 0.  1.
        -11    1    4    4    0    0 -0.32355971081E+02 -0.46498245832E+02 -0.23118382903E+03  0.23802302102E+03  0.00000000000E+00 0.  1.
         11    1    4    4    0    0  0.21337717944E+02 -0.48529022184E+00 -0.85586989167E+01  0.22995326499E+02  0.00000000000E+00 0. -1.
<mgrwt>
<rscale>  0 0.12553345E+03</rscale>
<asrwt>0</asrwt>
<pdfrwt beam="1">  1        1 0.50229250E-02 0.13399641E+03</pdfrwt>
<pdfrwt beam="2">  1       -1 0.69894158E-01 0.13399641E+03</pdfrwt>
<totfact> 0.34172072E+03</totfact>
</mgrwt>
</event>
<event>
 8    1  0.1646661E-005  0.1407841E+03  0.7546771E-02  0.1224034E+00
          2   -1    0    0  501    0  0.00000000000E+00  0.00000000000E+00  0.24330578253E+02  0.24330578253E+02  0.00000000000E+00 0. -1.
         -2   -1    0    0    0  501 -0.00000000000E+00 -0.00000000000E+00 -0.78645453968E+03  0.78645453968E+03  0.00000000000E+00 0.  1.
         23    2    1    2    0    0 -0.54910645079E+02  0.34316679964E+02 -0.59000580107E+03  0.60656986917E+03  0.12500938934E+03 0.  0.
         23    2    1    2    0    0  0.54910645079E+02 -0.34316679964E+02 -0.17211816036E+03  0.20421524877E+03  0.88805367156E+02 0.  0.
          5    1    3    3  502    0 -0.24999521043E+02  0.79946184160E+02 -0.30374415249E+03  0.31511738858E+03  0.47000000000E+01 0.  1.
         -5    1    3    3    0  502 -0.29911124036E+02 -0.45629504195E+02 -0.28626164858E+03  0.29145248059E+03  0.47000000000E+01 0.  1.
        -11    1    4    4    0    0  0.41860336532E+02 -0.24458570439E+02 -0.17974534670E+03  0.18616900683E+03  0.00000000000E+00 0.  1.
         11    1    4    4    0    0  0.13050308546E+02 -0.98581095253E+01  0.76271863411E+01  0.18046241937E+02  0.00000000000E+00 0. -1.
<mgrwt>
<rscale>  0 0.13233356E+03</rscale>
<asrwt>0</asrwt>
<pdfrwt beam="1">  1        2 0.37431665E-02 0.14078409E+03</pdfrwt>
<pdfrwt beam="2">  1       -2 0.12099299E+00 0.14078409E+03</pdfrwt>
<totfact> 0.12216387E+03</totfact>
</mgrwt>
</event>
<event>
 8    1  0.1646661E-005  0.1429217E+03  0.7546771E-02  0.1218572E+00
          1   -1    0    0  501    0  0.00000000000E+00  0.00000000000E+00  0.12554542718E+03  0.12554542718E+03  0.00000000000E+00 0. -1.
         -1   -1    0    0    0  501 -0.00000000000E+00 -0.00000000000E+00 -0.15914871590E+03  0.15914871590E+03  0.00000000000E+00 0.  1.
         23    2    1    2    0    0  0.50428904004E+02 -0.47506907838E+02 -0.73014596624E+02  0.16049219771E+03  0.12500653405E+03 0.  0.
         23    2    1    2    0    0 -0.50428904004E+02  0.47506907838E+02  0.39411307904E+02  0.12420194536E+03  0.95251726442E+02 0.  0.
          5    1    3    3  502    0  0.13502090032E+02  0.42071937660E+02 -0.33934673499E+02  0.55910700578E+02  0.47000000000E+01 0.  1.
         -5    1    3    3    0  502  0.36926813973E+02 -0.89578845498E+02 -0.39079923125E+02  0.10458149713E+03  0.47000000000E+01 0.  1.
        -11    1    4    4    0    0 -0.11536983765E+02  0.58926019611E+01 -0.31022702321E+02  0.33618935313E+02  0.00000000000E+00 0.  1.
         11    1    4    4    0    0 -0.38891920239E+02  0.41614305877E+02  0.70434010225E+02  0.90583010051E+02  0.00000000000E+00 0. -1.
<mgrwt>
<rscale>  0 0.13617408E+03</rscale>
<asrwt>0</asrwt>
<pdfrwt beam="1">  1        1 0.19314681E-01 0.14292171E+03</pdfrwt>
<pdfrwt beam="2">  1       -1 0.24484418E-01 0.14292171E+03</pdfrwt>
<totfact> 0.37140874E+03</totfact>
</mgrwt>
</event>
<event>
 8    1  0.1646661E-005  0.1349476E+03  0.7546771E-02  0.1234120E+00
         -1   -1    0    0    0  501 -0.00000000000E+00  0.00000000000E+00  0.11183527889E+03  0.11183527889E+03  0.00000000000E+00 0.  1.
          1   -1    0    0  501    0  0.00000000000E+00 -0.00000000000E+00 -0.12597877245E+03  0.12597877245E+03  0.00000000000E+00 0. -1.
         23    2    1    2    0    0  0.14087969241E+02  0.48800613059E+02  0.34946464350E+01  0.13499287810E+03  0.12502357327E+03 0.  0.
         23    2    1    2    0    0 -0.14087969241E+02 -0.48800613059E+02 -0.17638139988E+02  0.10282117324E+03  0.87641993195E+02 0.  0.
          5    1    3    3  502    0  0.44065549054E+01  0.19523520670E+02 -0.60447568284E+02  0.63848133073E+02  0.47000000000E+01 0. -1.
         -5    1    3    3    0  502  0.96814143351E+01  0.29277092389E+02  0.63942214719E+02  0.71144745030E+02  0.47000000000E+01 0. -1.
        -11    1    4    4    0    0  0.26760769652E+02 -0.12390033419E+02  0.20680008583E+02  0.36018251977E+02  0.00000000000E+00 0.  1.
         11    1    4    4    0    0 -0.40848738893E+02 -0.36410579640E+02 -0.38318148571E+02  0.66802921259E+02  0.00000000000E+00 0. -1.
<mgrwt>
<rscale>  0 0.12560969E+03</rscale>
<asrwt>0</asrwt>
<pdfrwt beam="2">  1        1 0.19381350E-01 0.13494764E+03</pdfrwt>
<pdfrwt beam="1">  1       -1 0.17205428E-01 0.13494764E+03</pdfrwt>
<totfact> 0.65056359E+03</totfact>
</mgrwt>
</event>
<event>
 8    1  0.1646661E-005  0.3305265E+03  0.7546771E-02  0.1072182E+00
         -2   -1    0    0    0  501 -0.00000000000E+00  0.00000000000E+00  0.50130893841E+02  0.50130893841E+02  0.00000000000E+00 0.  1.
          2   -1    0    0  501    0  0.00000000000E+00 -0.00000000000E+00 -0.23471660580E+04  0.23471660580E+04  0.00000000000E+00 0. -1.
         23    2    1    2    0    0  0.43656161017E+02  0.30284677018E+03 -0.78156337395E+03  0.84858063633E+03  0.12500304898E+03 0.  0.
         23    2    1    2    0    0 -0.43656161017E+02 -0.30284677018E+03 -0.15154717902E+04  0.15487163155E+04  0.90804473520E+02 0.  0.
          5    1    3    3  502    0  0.40795908652E+02  0.25515325785E+02 -0.72006164059E+02  0.86731284294E+02  0.47000000000E+01 0. -1.
         -5    1    3    3    0  502  0.28602523647E+01  0.27733144439E+03 -0.70955720989E+03  0.76184935204E+03  0.47000000000E+01 0. -1.
        -11    1    4    4    0    0 -0.34861681806E+02 -0.53948512992E+02 -0.20640170760E+03  0.21616531593E+03  0.00000000000E+00 0.  1.
         11    1    4    4    0    0 -0.87944792107E+01 -0.24889825718E+03 -0.13090700826E+04  0.13325509996E+04  0.00000000000E+00 0. -1.
<mgrwt>
<rscale>  0 0.32764926E+03</rscale>
<asrwt>0</asrwt>
<pdfrwt beam="2">  1        2 0.36110258E+00 0.33052653E+03</pdfrwt>
<pdfrwt beam="1">  1       -2 0.77124430E-02 0.33052653E+03</pdfrwt>
<totfact> 0.48148187E+02</totfact>
</mgrwt>
</event>
<event>
 8    1  0.1646661E-005  0.1337640E+03  0.7546771E-02  0.1231840E+00
          1   -1    0    0  501    0  0.00000000000E+00  0.00000000000E+00  0.96811268763E+03  0.96811268763E+03  0.00000000000E+00 0. -1.
         -1   -1    0    0    0  501 -0.00000000000E+00 -0.00000000000E+00 -0.15613668557E+02  0.15613668557E+02  0.00000000000E+00 0.  1.
         23    2    1    2    0    0 -0.20040825078E+01 -0.47581653440E+02  0.44576555612E+03  0.46540277288E+03  0.12499911955E+03 0.  0.
         23    2    1    2    0    0  0.20040825078E+01  0.47581653440E+02  0.50673346295E+03  0.51832358331E+03  0.98043380443E+02 0.  0.
          5    1    3    3  502    0 -0.60281194897E+02 -0.80168516889E+01  0.16545426243E+03  0.17633858150E+03  0.47000000000E+01 0. -1.
         -5    1    3    3    0  502  0.58277112389E+02 -0.39564801751E+02  0.28031129369E+03  0.28906419138E+03  0.47000000000E+01 0. -1.
        -11    1    4    4    0    0 -0.37874702585E+02  0.56461574387E+02  0.30300429640E+03  0.31053825226E+03  0.00000000000E+00 0.  1.
         11    1    4    4    0    0  0.39878785093E+02 -0.88799209473E+01  0.20372916655E+03  0.20778533105E+03  0.00000000000E+00 0. -1.
<mgrwt>
<rscale>  0 0.12708929E+03</rscale>
<asrwt>0</asrwt>
<pdfrwt beam="1">  1        1 0.14894037E+00 0.13376401E+03</pdfrwt>
<pdfrwt beam="2">  1       -1 0.24021036E-02 0.13376401E+03</pdfrwt>
<totfact> 0.85522034E+03</totfact>
</mgrwt>
</event>
<event>
 8    1  0.1646661E-005  0.1338994E+03  0.7546771E-02  0.1235285E+00
         -2   -1    0    0    0  501 -0.00000000000E+00  0.00000000000E+00  0.48759039336E+02  0.48759039336E+02  0.00000000000E+00 0.  1.
          2   -1    0    0  501    0  0.00000000000E+00 -0.00000000000E+00 -0.29484185235E+03  0.29484185235E+03  0.00000000000E+00 0. -1.
         23    2    1    2    0    0 -0.41121693996E+02  0.24750825395E+02 -0.10609776021E+03  0.17083849408E+03  0.12500183704E+03 0.  0.
         23    2    1    2    0    0  0.41121693996E+02 -0.24750825395E+02 -0.13998505280E+03  0.17276239761E+03  0.89148381613E+02 0.  0.
          5    1    3    3  502    0  0.13133587589E+02 -0.15379187922E+02  0.19306502051E+02  0.28352099843E+02  0.47000000000E+01 0. -1.
         -5    1    3    3    0  502 -0.54255281585E+02  0.40130013317E+02 -0.12540426226E+03  0.14248639424E+03  0.47000000000E+01 0. -1.
        -11    1    4    4    0    0  0.29152398612E+02 -0.44633736635E+02 -0.13972892448E+03  0.14955335211E+03  0.00000000000E+00 0. -1.
         11    1    4    4    0    0  0.11969295384E+02  0.19882911240E+02 -0.25612832605E+00  0.23209045501E+02  0.00000000000E+00 0.  1.
<mgrwt>
<rscale>  0 0.12486191E+03</rscale>
<asrwt>0</asrwt>
<pdfrwt beam="2">  1        2 0.45360285E-01 0.13389943E+03</pdfrwt>
<pdfrwt beam="1">  1       -2 0.75013907E-02 0.13389943E+03</pdfrwt>
<totfact> 0.10995043E+04</totfact>
</mgrwt>
</event>
<event>
 8    1  0.1646661E-005  0.1249522E+03  0.7546771E-02  0.1243924E+00
          1   -1    0    0  501    0  0.00000000000E+00  0.00000000000E+00  0.29864927087E+03  0.29864927087E+03  0.00000000000E+00 0. -1.
         -1   -1    0    0    0  501 -0.00000000000E+00 -0.00000000000E+00 -0.46261138310E+02  0.46261138310E+02  0.00000000000E+00 0.  1.
         23    2    1    2    0    0  0.11115351360E+02  0.35043633468E+02  0.17416973003E+03  0.21435517091E+03  0.11942125922E+03 0.  0.
         23    2    1    2    0    0 -0.11115351360E+02 -0.35043633468E+02  0.78218402534E+02  0.13055523827E+03  0.97851645175E+02 0.  0.
          5    1    3    3  502    0  0.43657291606E+02  0.64017996196E+02  0.13422932274E+03  0.15506083977E+03  0.47000000000E+01 0. -1.
         -5    1    3    3    0  502 -0.32541940246E+02 -0.28974362728E+02  0.39940407286E+02  0.59294331134E+02  0.47000000000E+01 0.  1.
        -11    1    4    4    0    0 -0.63372684300E+01 -0.12407264644E+02 -0.22910363321E+02  0.26813913079E+02  0.00000000000E+00 0.  1.
         11    1    4    4    0    0 -0.47780829302E+01 -0.22636368823E+02  0.10112876585E+03  0.10374132520E+03  0.00000000000E+00 0. -1.
<mgrwt>
<rscale>  0 0.11950009E+03</rscale>
<asrwt>0</asrwt>
<pdfrwt beam="1">  1        1 0.45946040E-01 0.12495217E+03</pdfrwt>
<pdfrwt beam="2">  1       -1 0.71170984E-02 0.12495217E+03</pdfrwt>
<totfact> 0.85588507E+03</totfact>
</mgrwt>
</event>
<event>
 8    1  0.1646661E-005  0.1275889E+03  0.7546771E-02  0.1247181E+00
         -1   -1    0    0    0  501 -0.00000000000E+00  0.00000000000E+00  0.49325557858E+02  0.49325557858E+02  0.00000000000E+00 0.  1.
          1   -1    0    0  501    0  0.00000000000E+00 -0.00000000000E+00 -0.24640050156E+03  0.24640050156E+03  0.00000000000E+00 0. -1.
         23    2    1    2    0    0  0.17953825025E+01  0.25505884022E+02 -0.12790393715E+03  0.18066085303E+03  0.12500061264E+03 0.  0.
         23    2    1    2    0    0 -0.17953825025E+01 -0.25505884022E+02 -0.69171006549E+02  0.11506520639E+03  0.88326666733E+02 0.  0.
          5    1    3    3  502    0 -0.46985089176E+02  0.40739696364E+02 -0.10973731517E+03  0.12622079783E+03  0.47000000000E+01 0.  1.
         -5    1    3    3    0  502  0.48780471679E+02 -0.15233812342E+02 -0.18166621985E+02  0.54440055198E+02  0.47000000000E+01 0.  1.
        -11    1    4    4    0    0 -0.32706108565E+02 -0.44819337936E+02 -0.40544785573E+02  0.68719300256E+02  0.00000000000E+00 0.  1.
         11    1    4    4    0    0  0.30910726063E+02  0.19313453915E+02 -0.28626220976E+02  0.46345906132E+02  0.00000000000E+00 0. -1.
<mgrwt>
<rscale>  0 0.11755775E+03</rscale>
<asrwt>0</asrwt>
<pdfrwt beam="2">  1        1 0.37907769E-01 0.12758890E+03</pdfrwt>
<pdfrwt beam="1">  1       -1 0.75885474E-02 0.12758890E+03</pdfrwt>
<totfact> 0.98703457E+03</totfact>
</mgrwt>
</event>
<event>
 8    1  0.1646661E-005  0.1179353E+03  0.7546771E-02  0.1260931E+00
          3   -1    0    0  501    0  0.00000000000E+00  0.00000000000E+00  0.26794952240E+02  0.26794952240E+02  0.00000000000E+00 0. -1.
         -3   -1    0    0    0  501 -0.00000000000E+00 -0.00000000000E+00 -0.50500711446E+03  0.50500711446E+03  0.00000000000E+00 0.  1.
         23    2    1    2    0    0  0.53449312517E+01 -0.18777993202E+02 -0.38722174007E+03  0.40478316061E+03  0.11630799548E+03 0.  0.
         23    2    1    2    0    0 -0.53449312517E+01  0.18777993202E+02 -0.90990422142E+02  0.12701890608E+03  0.86448622093E+02 0.  0.
          5    1    3    3  502    0 -0.14433379001E+02  0.17058298424E+02 -0.93538665332E+01  0.24675753152E+02  0.47000000000E+01 0. -1.
         -5    1    3    3    0  502  0.19778310253E+02 -0.35836291626E+02 -0.37786787354E+03  0.38010740746E+03  0.47000000000E+01 0.  1.
        -11    1    4    4    0    0 -0.39929295974E+02 -0.11903311409E+02 -0.51282188020E+02  0.66074959762E+02  0.00000000000E+00 0.  1.
         11    1    4    4    0    0  0.34584364722E+02  0.30681304611E+02 -0.39708234123E+02  0.60943946320E+02  0.00000000000E+00 0. -1.
<mgrwt>
<rscale>  0 0.10980521E+03</rscale>
<asrwt>0</asrwt>
<pdfrwt beam="1">  1        3 0.41223004E-02 0.11793528E+03</pdfrwt>
<pdfrwt beam="2">  1       -3 0.77693401E-01 0.11793528E+03</pdfrwt>
<totfact> 0.11080857E+03</totfact>
</mgrwt>
</event>
<event>
 8    1  0.1646661E-005  0.1638046E+03  0.7546771E-02  0.1191524E+00
         -3   -1    0    0    0  501 -0.00000000000E+00  0.00000000000E+00  0.54746259704E+03  0.54746259704E+03  0.00000000000E+00 0.  1.
          3   -1    0    0  501    0  0.00000000000E+00 -0.00000000000E+00 -0.44156818146E+02  0.44156818146E+02  0.00000000000E+00 0. -1.
         23    2    1    2    0    0 -0.10489730743E+03 -0.14253718309E+02  0.33298253475E+03  0.37109206304E+03  0.12500134884E+03 0.  0.
         23    2    1    2    0    0  0.10489730743E+03  0.14253718309E+02  0.17032324415E+03  0.22052735215E+03  0.91737080605E+02 0.  0.
          5    1    3    3  502    0 -0.15416371876E+02 -0.39178327479E+02  0.22330963676E+03  0.22729252020E+03  0.47000000000E+01 0. -1.
         -5    1    3    3    0  502 -0.89480935551E+02  0.24924609170E+02  0.10967289799E+03  0.14379954284E+03  0.47000000000E+01 0. -1.
        -11    1    4    4    0    0  0.86871379486E+01  0.38131820622E+02  0.65254844558E+02  0.76076914028E+02  0.00000000000E+00 0.  1.
         11    1    4    4    0    0  0.96210169478E+02 -0.23878102314E+02  0.10506839959E+03  0.14445043812E+03  0.00000000000E+00 0. -1.
<mgrwt>
<rscale>  0 0.15752096E+03</rscale>
<asrwt>0</asrwt>
<pdfrwt beam="2">  1        3 0.67933570E-02 0.16380461E+03</pdfrwt>
<pdfrwt beam="1">  1       -3 0.84225011E-01 0.16380461E+03</pdfrwt>
<totfact> 0.44173376E+02</totfact>
</mgrwt>
</event>
<event>
 8    1  0.1646661E-005  0.1846126E+03  0.7546771E-02  0.1168653E+00
          1   -1    0    0  501    0  0.00000000000E+00  0.00000000000E+00  0.20722091212E+03  0.20722091212E+03  0.00000000000E+00 0. -1.
         -1   -1    0    0    0  501 -0.00000000000E+00 -0.00000000000E+00 -0.15441814841E+03  0.15441814841E+03  0.00000000000E+00 0.  1.
         23    2    1    2    0    0 -0.10863704663E+03  0.81519519043E+02 -0.13480337614E+02  0.18510414647E+03  0.12503753698E+03 0.  0.
         23    2    1    2    0    0  0.10863704663E+03 -0.81519519043E+02  0.66283101324E+02  0.17653491406E+03  0.91234239595E+02 0.  0.
          5    1    3    3  502    0 -0.85592428544E+02 -0.76630663491E+01  0.17469090885E+02  0.87818252922E+02  0.47000000000E+01 0.  1.
         -5    1    3    3    0  502 -0.23044618086E+02  0.89182585392E+02 -0.30949428499E+02  0.97285893553E+02  0.47000000000E+01 0.  1.
        -11    1    4    4    0    0  0.84429686794E+02 -0.64214105149E+01  0.32309777010E+02  0.90628517673E+02  0.00000000000E+00 0.  1.
         11    1    4    4    0    0  0.24207359836E+02 -0.75098108528E+02  0.33973324314E+02  0.85906396384E+02  0.00000000000E+00 0. -1.
<mgrwt>
<rscale>  0 0.17912426E+03</rscale>
<asrwt>0</asrwt>
<pdfrwt beam="1">  1        1 0.31880140E-01 0.18461264E+03</pdfrwt>
<pdfrwt beam="2">  1       -1 0.23756638E-01 0.18461264E+03</pdfrwt>
<totfact> 0.20959234E+03</totfact>
</mgrwt>
</event>
<event>
 8    1  0.1646661E-005  0.1746217E+03  0.7546771E-02  0.1179471E+00
          4   -1    0    0  501    0  0.00000000000E+00  0.00000000000E+00  0.44420208107E+03  0.44420208107E+03  0.00000000000E+00 0. -1.
         -4   -1    0    0    0  501 -0.00000000000E+00 -0.00000000000E+00 -0.61116757253E+02  0.61116757253E+02  0.00000000000E+00 0.  1.
         23    2    1    2    0    0 -0.36496623835E+02 -0.11645642988E+03  0.16738189923E+03  0.24188724596E+03  0.12489449930E+03 0.  0.
         23    2    1    2    0    0  0.36496623835E+02  0.11645642988E+03  0.21570342458E+03  0.26343159237E+03  0.89298000367E+02 0.  0.
          5    1    3    3  502    0 -0.61069463998E+02 -0.31673592345E+02  0.12741031843E+03  0.14487296203E+03  0.47000000000E+01 0. -1.
         -5    1    3    3    0  502  0.24572840163E+02 -0.84782837530E+02  0.39971580802E+02  0.97014283924E+02  0.47000000000E+01 0. -1.
        -11    1    4    4    0    0  0.39173082278E+02  0.10243320169E+03  0.22216677729E+03  0.24776030375E+03  0.00000000000E+00 0. -1.
         11    1    4    4    0    0 -0.26764584427E+01  0.14023228186E+02 -0.64633527098E+01  0.15671288614E+02  0.00000000000E+00 0.  1.
<mgrwt>
<rscale>  0 0.16845261E+03</rscale>
<asrwt>0</asrwt>
<pdfrwt beam="1">  1        4 0.68338780E-01 0.17462170E+03</pdfrwt>
<pdfrwt beam="2">  1       -4 0.94025783E-02 0.17462170E+03</pdfrwt>
<totfact> 0.29444418E+02</totfact>
</mgrwt>
</event>
<event>
 8    1  0.1646661E-005  0.1577601E+03  0.7546771E-02  0.1199362E+00
         -1   -1    0    0    0  501 -0.00000000000E+00  0.00000000000E+00  0.14475123358E+03  0.14475123358E+03  0.00000000000E+00 0.  1.
          1   -1    0    0  501    0  0.00000000000E+00 -0.00000000000E+00 -0.32282669752E+03  0.32282669752E+03  0.00000000000E+00 0. -1.
         23    2    1    2    0    0  0.52902979625E+02 -0.80400338864E+02  0.80580175956E+02  0.17714803065E+03  0.12500128104E+03 0.  0.
         23    2    1    2    0    0 -0.52902979625E+02  0.80400338864E+02 -0.25865563990E+03  0.29042990045E+03  0.90464618939E+02 0.  0.
          5    1    3    3  502    0 -0.10043734943E+02 -0.44369694226E+02 -0.22540675201E+02  0.50987433901E+02  0.47000000000E+01 0.  1.
         -5    1    3    3    0  502  0.62946714567E+02 -0.36030644638E+02  0.10312085116E+03  0.12616059675E+03  0.47000000000E+01 0.  1.
        -11    1    4    4    0    0 -0.72433614910E+01  0.44431516727E+02 -0.20957181771E+03  0.21435244981E+03  0.00000000000E+00 0. -1.
         11    1    4    4    0    0 -0.45659618134E+02  0.35968822137E+02 -0.49083822197E+02  0.76077450638E+02  0.00000000000E+00 0.  1.
<mgrwt>
<rscale>  0 0.15090804E+03</rscale>
<asrwt>0</asrwt>
<pdfrwt beam="2">  1        1 0.49665645E-01 0.15776013E+03</pdfrwt>
<pdfrwt beam="1">  1       -1 0.22269421E-01 0.15776013E+03</pdfrwt>
<totfact> 0.13352451E+03</totfact>
</mgrwt>
</event>
<event>
 8    1  0.1646661E-005  0.1524990E+03  0.7546771E-02  0.1203304E+00
          1   -1    0    0  501    0  0.00000000000E+00  0.00000000000E+00  0.16167814571E+03  0.16167814571E+03  0.00000000000E+00 0. -1.
         -1   -1    0    0    0  501 -0.00000000000E+00 -0.00000000000E+00 -0.15095193846E+03  0.15095193846E+03  0.00000000000E+00 0.  1.
         23    2    1    2    0    0 -0.87175915037E+02 -0.56562315405E+01 -0.56313756759E+02  0.16256443193E+03  0.12499728881E+03 0.  0.
         23    2    1    2    0    0  0.87175915037E+02  0.56562315405E+01  0.67039964002E+02  0.15006565224E+03  0.10194954679E+03 0.  0.
          5    1    3    3  502    0 -0.86018283824E+02  0.22853821886E+02 -0.84041445328E+02  0.12250100759E+03  0.47000000000E+01 0. -1.
         -5    1    3    3    0  502 -0.11576312135E+01 -0.28510053427E+02  0.27727688569E+02  0.40063424340E+02  0.47000000000E+01 0. -1.
        -11    1    4    4    0    0  0.16270615864E+02 -0.29683623065E+02  0.62052138113E+02  0.70684639515E+02  0.00000000000E+00 0. -1.
         11    1    4    4    0    0  0.70905299173E+02  0.35339854605E+02  0.49878258884E+01  0.79381012726E+02  0.00000000000E+00 0.  1.
<mgrwt>
<rscale>  0 0.14771880E+03</rscale>
<asrwt>0</asrwt>
<pdfrwt beam="1">  1        1 0.24873561E-01 0.15249903E+03</pdfrwt>
<pdfrwt beam="2">  1       -1 0.23223375E-01 0.15249903E+03</pdfrwt>
<totfact> 0.29487651E+03</totfact>
</mgrwt>
</event>
<event>
 8    1  0.1646661E-005  0.1263552E+03  0.7546771E-02  0.1244817E+00
         -3   -1    0    0    0  501 -0.00000000000E+00  0.00000000000E+00  0.65835040849E+02  0.65835040849E+02  0.00000000000E+00 0.  1.
          3   -1    0    0  501    0  0.00000000000E+00 -0.00000000000E+00 -0.19601225359E+03  0.19601225359E+03  0.00000000000E+00 0. -1.
         23    2    1    2    0    0 -0.11026979683E+02  0.15218939125E+02 -0.57593227933E+02  0.13886190010E+03  0.12494973792E+03 0.  0.
         23    2    1    2    0    0  0.11026979683E+02 -0.15218939125E+02 -0.72583984806E+02  0.12298539434E+03  0.97487240095E+02 0.  0.
          5    1    3    3  502    0  0.33199803559E+02  0.41994458338E+02 -0.67222993844E+02  0.86062665476E+02  0.47000000000E+01 0. -1.
         -5    1    3    3    0  502 -0.44226783243E+02 -0.26775519212E+02  0.96297659111E+01  0.52799234621E+02  0.47000000000E+01 0. -1.
        -11    1    4    4    0    0 -0.15272176494E+02 -0.47065181207E+02 -0.14216140021E+02  0.51482708689E+02  0.00000000000E+00 0.  1.
         11    1    4    4    0    0  0.26299156177E+02  0.31846242081E+02 -0.58367844784E+02  0.71502685650E+02  0.00000000000E+00 0. -1.
<mgrwt>
<rscale>  0 0.11896327E+03</rscale>
<asrwt>0</asrwt>
<pdfrwt beam="2">  1        3 0.30155732E-01 0.12635524E+03</pdfrwt>
<pdfrwt beam="1">  1       -3 0.10128468E-01 0.12635524E+03</pdfrwt>
<totfact> 0.17409626E+03</totfact>
</mgrwt>
</event>
<event>
 8    1  0.1646661E-005  0.1429945E+03  0.7546771E-02  0.1219168E+00
          1   -1    0    0  501    0  0.00000000000E+00  0.00000000000E+00  0.62356343946E+02  0.62356343946E+02  0.00000000000E+00 0. -1.
         -1   -1    0    0    0  501 -0.00000000000E+00 -0.00000000000E+00 -0.28155365547E+03  0.28155365547E+03  0.00000000000E+00 0.  1.
         23    2    1    2    0    0  0.31383533334E+02  0.61937778033E+02 -0.15626705786E+03  0.21181791640E+03  0.12500488720E+03 0.  0.
         23    2    1    2    0    0 -0.31383533334E+02 -0.61937778033E+02 -0.62930253660E+02  0.13209208301E+03  0.93096117299E+02 0.  0.
          5    1    3    3  502    0  0.74244330873E+02  0.28485000103E+02 -0.12693743731E+03  0.14986266676E+03  0.47000000000E+01 0.  1.
         -5    1    3    3    0  502 -0.42860797539E+02  0.33452777930E+02 -0.29329620559E+02  0.61955249649E+02  0.47000000000E+01 0.  1.
        -11    1    4    4    0    0 -0.64099136423E+02 -0.48440498215E+02 -0.48674856948E+02  0.93938399265E+02  0.00000000000E+00 0.  1.
         11    1    4    4    0    0  0.32715603089E+02 -0.13497279818E+02 -0.14255396712E+02  0.38153683746E+02  0.00000000000E+00 0. -1.
<mgrwt>
<rscale>  0 0.13574800E+03</rscale>
<asrwt>0</asrwt>
<pdfrwt beam="1">  1        1 0.95932835E-02 0.14299453E+03</pdfrwt>
<pdfrwt beam="2">  1       -1 0.43315948E-01 0.14299453E+03</pdfrwt>
<totfact> 0.34995026E+03</totfact>
</mgrwt>
</event>
<event>
 8    1  0.1646661E-005  0.1587243E+03  0.7546771E-02  0.1197891E+00
         -2   -1    0    0    0  501 -0.00000000000E+00  0.00000000000E+00  0.71001774854E+03  0.71001774854E+03  0.00000000000E+00 0.  1.
          2   -1    0    0  501    0  0.00000000000E+00 -0.00000000000E+00 -0.35922345920E+02  0.35922345920E+02  0.00000000000E+00 0. -1.
         23    2    1    2    0    0 -0.74880083058E+02 -0.62934890095E+02  0.51005376459E+03  0.53417996331E+03  0.12500225280E+03 0.  0.
         23    2    1    2    0    0  0.74880083058E+02  0.62934890095E+02  0.16404163803E+03  0.21176013114E+03  0.91459646320E+02 0.  0.
          5    1    3    3  502    0 -0.77901067064E+02 -0.42344475333E+02  0.50433570689E+03  0.51209200940E+03  0.47000000000E+01 0.  1.
         -5    1    3    3    0  502  0.30209840065E+01 -0.20590414762E+02  0.57180576966E+01  0.22087953918E+02  0.47000000000E+01 0.  1.
        -11    1    4    4    0    0  0.13650893774E+02  0.28903824277E+02  0.13000676354E+03  0.13387881283E+03  0.00000000000E+00 0.  1.
         11    1    4    4    0    0  0.61229189284E+02  0.34031065818E+02  0.34034874492E+02  0.77881318317E+02  0.00000000000E+00 0. -1.
<mgrwt>
<rscale>  0 0.15212065E+03</rscale>
<asrwt>0</asrwt>
<pdfrwt beam="2">  1        2 0.55265153E-02 0.15872426E+03</pdfrwt>
<pdfrwt beam="1">  1       -2 0.10923349E+00 0.15872426E+03</pdfrwt>
<totfact> 0.93828190E+02</totfact>
</mgrwt>
</event>
<event>
 8    1  0.1646661E-005  0.1518503E+03  0.7546771E-02  0.1203657E+00
         -1   -1    0    0    0  501 -0.00000000000E+00  0.00000000000E+00  0.16052601606E+03  0.16052601606E+03  0.00000000000E+00 0.  1.
          1   -1    0    0  501    0  0.00000000000E+00 -0.00000000000E+00 -0.12823054704E+03  0.12823054704E+03  0.00000000000E+00 0. -1.
         23    2    1    2    0    0 -0.41507952295E+02  0.75594083178E+02  0.21581132092E+02  0.15337622662E+03  0.12498458350E+03 0.  0.
         23    2    1    2    0    0  0.41507952295E+02 -0.75594083178E+02  0.10714336923E+02  0.13538033648E+03  0.10380589085E+03 0.  0.
          5    1    3    3  502    0 -0.84578941776E+02  0.61299489632E+02  0.44986553163E+01  0.10465922186E+03  0.47000000000E+01 0.  1.
         -5    1    3    3    0  502  0.43070989481E+02  0.14294593546E+02  0.17082476776E+02  0.48717004755E+02  0.47000000000E+01 0.  1.
        -11    1    4    4    0    0 -0.15071362672E+02  0.16800626750E+02  0.14751318322E+02  0.26963093744E+02  0.00000000000E+00 0.  1.
         11    1    4    4    0    0  0.56579314968E+02 -0.92394709927E+02 -0.40369813989E+01  0.10841724274E+03  0.00000000000E+00 0. -1.
<mgrwt>
<rscale>  0 0.14743806E+03</rscale>
<asrwt>0</asrwt>
<pdfrwt beam="2">  1        1 0.19727777E-01 0.15185033E+03</pdfrwt>
<pdfrwt beam="1">  1       -1 0.24696310E-01 0.15185033E+03</pdfrwt>
<totfact> 0.35757752E+03</totfact>
</mgrwt>
</event>
<event>
 8    1  0.1646661E-005  0.1537792E+03  0.7546771E-02  0.1209036E+00
         -1   -1    0    0    0  501 -0.00000000000E+00  0.00000000000E+00  0.21544843866E+02  0.21544843866E+02  0.00000000000E+00 0.  1.
          1   -1    0    0  501    0  0.00000000000E+00 -0.00000000000E+00 -0.84506510356E+03  0.84506510356E+03  0.00000000000E+00 0. -1.
         23    2    1    2    0    0 -0.47040357742E+02  0.76224361508E+02 -0.49083504386E+03  0.51436086256E+03  0.12500043243E+03 0.  0.
         23    2    1    2    0    0  0.47040357742E+02 -0.76224361508E+02 -0.33268521583E+03  0.35224908487E+03  0.73328142017E+02 0.  0.
          5    1    3    3  502    0 -0.11225671026E+02  0.10558804625E+03 -0.36634448395E+03  0.38145146758E+03  0.47000000000E+01 0. -1.
         -5    1    3    3    0  502 -0.35814686716E+02 -0.29363684742E+02 -0.12449055991E+03  0.13290939497E+03  0.47000000000E+01 0. -1.
        -11    1    4    4    0    0  0.51370222584E+02 -0.59941134371E+02 -0.32363393375E+03  0.33312274379E+03  0.00000000000E+00 0. -1.
         11    1    4    4    0    0 -0.43298648420E+01 -0.16283227137E+02 -0.90512820854E+01  0.19126341075E+02  0.00000000000E+00 0.  1.
<mgrwt>
<rscale>  0 0.14323899E+03</rscale>
<asrwt>0</asrwt>
<pdfrwt beam="2">  1        1 0.13000997E+00 0.15377925E+03</pdfrwt>
<pdfrwt beam="1">  1       -1 0.33145925E-02 0.15377925E+03</pdfrwt>
<totfact> 0.67001302E+03</totfact>
</mgrwt>
</event>
<event>
 8    1  0.1646661E-005  0.2247488E+03  0.7546771E-02  0.1133479E+00
          1   -1    0    0  501    0  0.00000000000E+00  0.00000000000E+00  0.46222925463E+03  0.46222925463E+03  0.00000000000E+00 0. -1.
         -1   -1    0    0    0  501 -0.00000000000E+00 -0.00000000000E+00 -0.15891940985E+03  0.15891940985E+03  0.00000000000E+00 0.  1.
         23    2    1    2    0    0  0.18513950693E+03  0.24702149837E+02 -0.31335098896E+02  0.22692265401E+03  0.12500067698E+03 0.  0.
         23    2    1    2    0    0 -0.18513950693E+03 -0.24702149837E+02  0.33464494367E+03  0.39422601047E+03  0.92412530366E+02 0.  0.
          5    1    3    3  502    0  0.23434634000E+02 -0.34252952113E+02  0.21287919635E+02  0.46879764521E+02  0.47000000000E+01 0.  1.
         -5    1    3    3    0  502  0.16170487293E+03  0.58955101950E+02 -0.52623018531E+02  0.18004288949E+03  0.47000000000E+01 0.  1.
        -11    1    4    4    0    0 -0.62442678192E+02  0.42345763502E+01  0.41419812094E+02  0.75050786342E+02  0.00000000000E+00 0.  1.
         11    1    4    4    0    0 -0.12269682874E+03 -0.28936726187E+02  0.29322513158E+03  0.31917522412E+03  0.00000000000E+00 0. -1.
<mgrwt>
<rscale>  0 0.22054277E+03</rscale>
<asrwt>0</asrwt>
<pdfrwt beam="1">  1        1 0.71112192E-01 0.22474875E+03</pdfrwt>
<pdfrwt beam="2">  1       -1 0.24449140E-01 0.22474875E+03</pdfrwt>
<totfact> 0.72760045E+02</totfact>
</mgrwt>
</event>
<event>
 8    1  0.1646661E-005  0.1394439E+03  0.7546771E-02  0.1217190E+00
         -1   -1    0    0    0  501 -0.00000000000E+00  0.00000000000E+00  0.24674336452E+03  0.24674336452E+03  0.00000000000E+00 0.  1.
          1   -1    0    0  501    0  0.00000000000E+00 -0.00000000000E+00 -0.16025939655E+03  0.16025939655E+03  0.00000000000E+00 0. -1.
         23    2    1    2    0    0 -0.49837720120E+02 -0.69264077922E+02  0.19327531929E+03  0.23832742143E+03  0.11028735158E+03 0.  0.
         23    2    1    2    0    0  0.49837720120E+02  0.69264077922E+02 -0.10679135132E+03  0.16867533965E+03  0.98821387628E+02 0.  0.
          5    1    3    3  502    0 -0.25563547006E+02  0.22746771078E+02  0.18284296006E+02  0.39080890604E+02  0.47000000000E+01 0. -1.
         -5    1    3    3    0  502 -0.24274173113E+02 -0.92010848999E+02  0.17499102328E+03  0.19924653082E+03  0.47000000000E+01 0.  1.
        -11    1    4    4    0    0  0.95813614699E-01  0.74713953883E+02 -0.87468850177E+02  0.11503470709E+03  0.00000000000E+00 0. -1.
         11    1    4    4    0    0  0.49741906505E+02 -0.54498759613E+01 -0.19322501145E+02  0.53640632558E+02  0.00000000000E+00 0.  1.
<mgrwt>
<rscale>  0 0.13716890E+03</rscale>
<asrwt>0</asrwt>
<pdfrwt beam="2">  1        1 0.24655292E-01 0.13944393E+03</pdfrwt>
<pdfrwt beam="1">  1       -1 0.37960518E-01 0.13944393E+03</pdfrwt>
<totfact> 0.13001949E+03</totfact>
</mgrwt>
</event>
<event>
 8    1  0.1646661E-005  0.1575432E+03  0.7546771E-02  0.1199747E+00
         -2   -1    0    0    0  501 -0.00000000000E+00  0.00000000000E+00  0.63337909218E+02  0.63337909218E+02  0.00000000000E+00 0. -1.
          2   -1    0    0  501    0  0.00000000000E+00 -0.00000000000E+00 -0.32994774396E+03  0.32994774396E+03  0.00000000000E+00 0.  1.
         23    2    1    2    0    0  0.88756459111E+02 -0.36357890245E+02 -0.14913807590E+03  0.21693786469E+03  0.12498106350E+03 0.  0.
         23    2    1    2    0    0 -0.88756459111E+02  0.36357890245E+02 -0.11747175884E+03  0.17634778849E+03  0.89996239721E+02 0.  0.
          5    1    3    3  502    0  0.95058369536E+02 -0.16314773996E+02 -0.16432090163E+03  0.19059305911E+03  0.47000000000E+01 0.  1.
         -5    1    3    3    0  502 -0.63019104248E+01 -0.20043116249E+02  0.15182825724E+02  0.26344805578E+02  0.47000000000E+01 0.  1.
        -11    1    4    4    0    0 -0.53425403190E+02 -0.22157625208E+02 -0.79003399760E+02  0.97912058678E+02  0.00000000000E+00 0.  1.
         11    1    4    4    0    0 -0.35331055921E+02  0.58515515453E+02 -0.38468359085E+02  0.78435729817E+02  0.00000000000E+00 0. -1.
<mgrwt>
<rscale>  0 0.15059211E+03</rscale>
<asrwt>0</asrwt>
<pdfrwt beam="2">  1        2 0.50761192E-01 0.15754324E+03</pdfrwt>
<pdfrwt beam="1">  1       -2 0.97442937E-02 0.15754324E+03</pdfrwt>
<totfact> 0.65693273E+03</totfact>
</mgrwt>
</event>
<event>
 8    1  0.1646661E-005  0.1331478E+03  0.7546771E-02  0.1235796E+00
         -1   -1    0    0    0  501 -0.00000000000E+00  0.00000000000E+00  0.31366720144E+03  0.31366720144E+03  0.00000000000E+00 0.  1.
          1   -1    0    0  501    0  0.00000000000E+00 -0.00000000000E+00 -0.48743675806E+02  0.48743675806E+02  0.00000000000E+00 0. -1.
         23    2    1    2    0    0  0.10951738653E+02  0.44541330694E+02  0.20424263958E+03  0.24381013501E+03  0.12499782155E+03 0.  0.
         23    2    1    2    0    0 -0.10951738653E+02 -0.44541330694E+02  0.60680886046E+02  0.11860074223E+03  0.90995029568E+02 0.  0.
          5    1    3    3  502    0 -0.12207382951E+02  0.16032066920E+02 -0.12335306830E+02  0.24089357875E+02  0.47000000000E+01 0. -1.
         -5    1    3    3    0  502  0.23159121604E+02  0.28509263773E+02  0.21657794641E+03  0.21972077714E+03  0.47000000000E+01 0. -1.
        -11    1    4    4    0    0 -0.44104079564E+02 -0.70487858798E+01  0.50700381399E+02  0.67567624574E+02  0.00000000000E+00 0.  1.
         11    1    4    4    0    0  0.33152340910E+02 -0.37492544814E+02  0.99805046467E+01  0.51033117654E+02  0.00000000000E+00 0. -1.
<mgrwt>
<rscale>  0 0.12453626E+03</rscale>
<asrwt>0</asrwt>
<pdfrwt beam="2">  1        1 0.74990273E-02 0.13314776E+03</pdfrwt>
<pdfrwt beam="1">  1       -1 0.48256491E-01 0.13314776E+03</pdfrwt>
<totfact> 0.39910082E+03</totfact>
</mgrwt>
</event>
<event>
 8    1  0.1646661E-005  0.1313204E+03  0.7546771E-02  0.1239192E+00
         -3   -1    0    0    0  501 -0.00000000000E+00  0.00000000000E+00  0.14104226268E+03  0.14104226268E+03  0.00000000000E+00 0.  1.
          3   -1    0    0  501    0  0.00000000000E+00 -0.00000000000E+00 -0.99866484844E+02  0.99866484844E+02  0.00000000000E+00 0. -1.
         23    2    1    2    0    0  0.17703633945E+02 -0.36136758536E+02  0.51938600425E+02  0.14121850523E+03  0.12500305610E+03 0.  0.
         23    2    1    2    0    0 -0.17703633945E+02  0.36136758536E+02 -0.10762822589E+02  0.99690242293E+02  0.90570536522E+02 0.  0.
          5    1    3    3  502    0  0.77733428118E+01 -0.77859866979E+02  0.58186067280E+02  0.97623215322E+02  0.47000000000E+01 0. -1.
         -5    1    3    3    0  502  0.99302911332E+01  0.41723108443E+02 -0.62474668543E+01  0.43595289909E+02  0.47000000000E+01 0. -1.
        -11    1    4    4    0    0 -0.26421025775E+02 -0.18860903328E+02 -0.26410993106E+02  0.41849072082E+02  0.00000000000E+00 0. -1.
         11    1    4    4    0    0  0.87173918296E+01  0.54997661863E+02  0.15648170517E+02  0.57841170210E+02  0.00000000000E+00 0.  1.
<mgrwt>
<rscale>  0 0.12239843E+03</rscale>
<asrwt>0</asrwt>
<pdfrwt beam="2">  1        3 0.15364075E-01 0.13132040E+03</pdfrwt>
<pdfrwt beam="1">  1       -3 0.21698810E-01 0.13132040E+03</pdfrwt>
<totfact> 0.15785143E+03</totfact>
</mgrwt>
</event>
<event>
 8    1  0.1646661E-005  0.1277836E+03  0.7546771E-02  0.1246253E+00
         -2   -1    0    0    0  501 -0.00000000000E+00  0.00000000000E+00  0.53536018814E+02  0.53536018814E+02  0.00000000000E+00 0.  1.
          2   -1    0    0  501    0  0.00000000000E+00 -0.00000000000E+00 -0.23314195294E+03  0.23314195294E+03  0.00000000000E+00 0. -1.
         23    2    1    2    0    0 -0.23840700422E+02 -0.11603725693E+02 -0.82819936451E+02  0.15227538285E+03  0.12500249959E+03 0.  0.
         23    2    1    2    0    0  0.23840700422E+02  0.11603725693E+02 -0.96785997675E+02  0.13440258890E+03  0.89406381820E+02 0.  0.
          5    1    3    3  502    0 -0.72806775864E+02  0.10740085021E+02 -0.48791359731E+02  0.88424333881E+02  0.47000000000E+01 0. -1.
         -5    1    3    3    0  502  0.48966075442E+02 -0.22343810714E+02 -0.34028576720E+02  0.63851048973E+02  0.47000000000E+01 0. -1.
        -11    1    4    4    0    0  0.96463484362E+01  0.35744643572E+02 -0.37146451711E+01  0.37209275336E+02  0.00000000000E+00 0.  1.
         11    1    4    4    0    0  0.14194351986E+02 -0.24140917880E+02 -0.93071352503E+02  0.97193313562E+02  0.00000000000E+00 0. -1.
<mgrwt>
<rscale>  0 0.11810671E+03</rscale>
<asrwt>0</asrwt>
<pdfrwt beam="2">  1        2 0.35867994E-01 0.12778361E+03</pdfrwt>
<pdfrwt beam="1">  1       -2 0.82363103E-02 0.12778361E+03</pdfrwt>
<totfact> 0.12169933E+04</totfact>
</mgrwt>
</event>
<event>
 8    1  0.1646661E-005  0.1698259E+03  0.7546771E-02  0.1183940E+00
          1   -1    0    0  501    0  0.00000000000E+00  0.00000000000E+00  0.88766879270E+03  0.88766879270E+03  0.00000000000E+00 0. -1.
         -1   -1    0    0    0  501 -0.00000000000E+00 -0.00000000000E+00 -0.28766489432E+02  0.28766489432E+02  0.00000000000E+00 0.  1.
         23    2    1    2    0    0  0.81673179396E+02  0.80950295714E+02  0.42088434758E+03  0.45385513102E+03  0.12496954550E+03 0.  0.
         23    2    1    2    0    0 -0.81673179396E+02 -0.80950295714E+02  0.43801795569E+03  0.46258015112E+03  0.94325013083E+02 0.  0.
          5    1    3    3  502    0  0.87713822776E+01  0.92835885348E+02  0.27219413341E+03  0.28776235858E+03  0.47000000000E+01 0. -1.
         -5    1    3    3    0  502  0.72901797118E+02 -0.11885589633E+02  0.14869021417E+03  0.16609277243E+03  0.47000000000E+01 0. -1.
        -11    1    4    4    0    0 -0.49432719364E+02 -0.45031303691E+02  0.38548039729E+03  0.39123720267E+03  0.00000000000E+00 0. -1.
         11    1    4    4    0    0 -0.32240460032E+02 -0.35918992024E+02  0.52537558399E+02  0.71342948450E+02  0.00000000000E+00 0.  1.
<mgrwt>
<rscale>  0 0.16428684E+03</rscale>
<asrwt>0</asrwt>
<pdfrwt beam="1">  1        1 0.13656441E+00 0.16982593E+03</pdfrwt>
<pdfrwt beam="2">  1       -1 0.44256144E-02 0.16982593E+03</pdfrwt>
<totfact> 0.40673240E+03</totfact>
</mgrwt>
</event>
<event>
 8    1  0.1646661E-005  0.1261998E+03  0.7546771E-02  0.1247150E+00
          1   -1    0    0  501    0  0.00000000000E+00  0.00000000000E+00  0.64666178387E+03  0.64666178387E+03  0.00000000000E+00 0. -1.
         -1   -1    0    0    0  501 -0.00000000000E+00 -0.00000000000E+00 -0.22126948358E+02  0.22126948358E+02  0.00000000000E+00 0.  1.
         23    2    1    2    0    0 -0.14370555224E+02  0.97802223970E+01  0.22381448849E+03  0.25694222534E+03  0.12499686516E+03 0.  0.
         23    2    1    2    0    0  0.14370555224E+02 -0.97802223970E+01  0.40072034702E+03  0.41184650688E+03  0.93480388890E+02 0.  0.
          5    1    3    3  502    0  0.48896487500E+02 -0.22831896813E+02  0.11014209572E+03  0.12274173394E+03  0.47000000000E+01 0.  1.
         -5    1    3    3    0  502 -0.63267042724E+02  0.32612119210E+02  0.11367239277E+03  0.13420049140E+03  0.47000000000E+01 0.  1.
        -11    1    4    4    0    0 -0.28932784979E+02  0.25749382328E+02  0.18112040615E+03  0.18521538344E+03  0.00000000000E+00 0. -1.
         11    1    4    4    0    0  0.43303340203E+02 -0.35529604725E+02  0.21959994087E+03  0.22663112344E+03  0.00000000000E+00 0.  1.
<mgrwt>
<rscale>  0 0.11757621E+03</rscale>
<asrwt>0</asrwt>
<pdfrwt beam="1">  1        1 0.99486414E-01 0.12619977E+03</pdfrwt>
<pdfrwt beam="2">  1       -1 0.34041464E-02 0.12619977E+03</pdfrwt>
<totfact> 0.94250607E+03</totfact>
</mgrwt>
</event>
<event>
 8    1  0.1649559E-005  0.1650031E+03  0.7546771E-02  0.1190144E+00
          1   -1    0    0  501    0  0.00000000000E+00  0.00000000000E+00  0.55032607204E+03  0.55032607204E+03  0.00000000000E+00 0. -1.
         -1   -1    0    0    0  501 -0.00000000000E+00 -0.00000000000E+00 -0.44707154768E+02  0.44707154768E+02  0.00000000000E+00 0.  1.
         23    2    1    2    0    0 -0.54078679226E+02  0.93149233254E+02  0.20732766303E+03  0.26497318088E+03  0.12499897410E+03 0.  0.
         23    2    1    2    0    0  0.54078679226E+02 -0.93149233254E+02  0.29829125424E+03  0.33006004592E+03  0.91436745108E+02 0.  0.
          5    1    3    3  502    0  0.33951275137E+02  0.35833213316E+02  0.27610283178E+02  0.56754964515E+02  0.47000000000E+01 0.  1.
         -5    1    3    3    0  502 -0.88029954363E+02  0.57316019938E+02  0.17971737985E+03  0.20821821637E+03  0.47000000000E+01 0.  1.
        -11    1    4    4    0    0 -0.16881999396E+02 -0.21011249721E+02  0.18928494522E+02  0.32935731711E+02  0.00000000000E+00 0.  1.
         11    1    4    4    0    0  0.70960678623E+02 -0.72137983532E+02  0.27936275972E+03  0.29712431421E+03  0.00000000000E+00 0. -1.
<mgrwt>
<rscale>  0 0.15872470E+03</rscale>
<asrwt>0</asrwt>
<pdfrwt beam="1">  1        1 0.84665545E-01 0.16500311E+03</pdfrwt>
<pdfrwt beam="2">  1       -1 0.68780242E-02 0.16500311E+03</pdfrwt>
<totfact> 0.42056223E+03</totfact>
</mgrwt>
</event>
<event>
 8    1  0.1646661E-005  0.1397400E+03  0.7546771E-02  0.1225462E+00
          1   -1    0    0  501    0  0.00000000000E+00  0.00000000000E+00  0.26344286448E+03  0.26344286448E+03  0.00000000000E+00 0. -1.
         -1   -1    0    0    0  501 -0.00000000000E+00 -0.00000000000E+00 -0.11258515472E+03  0.11258515472E+03  0.00000000000E+00 0.  1.
         23    2    1    2    0    0 -0.24783214149E+02 -0.57348784831E+02 -0.49208481345E+02  0.14815105747E+03  0.12499668143E+03 0.  0.
         23    2    1    2    0    0  0.24783214149E+02  0.57348784831E+02  0.20006619110E+03  0.22787696173E+03  0.89433427971E+02 0.  0.
          5    1    3    3  502    0 -0.47760147982E+02  0.22962962965E+02 -0.47683635152E+01  0.53414948226E+02  0.47000000000E+01 0.  1.
         -5    1    3    3    0  502  0.22976933833E+02 -0.80311747796E+02 -0.44440117830E+02  0.94736109246E+02  0.47000000000E+01 0.  1.
        -11    1    4    4    0    0  0.55169058354E+02  0.16768136033E+02  0.11956749728E+03  0.13274479949E+03  0.00000000000E+00 0. -1.
         11    1    4    4    0    0 -0.30385844205E+02  0.40580648798E+02  0.80498693824E+02  0.95132162239E+02  0.00000000000E+00 0.  1.
<mgrwt>
<rscale>  0 0.13135312E+03</rscale>
<asrwt>0</asrwt>
<pdfrwt beam="1">  1        1 0.40529671E-01 0.13973998E+03</pdfrwt>
<pdfrwt beam="2">  1       -1 0.17320793E-01 0.13973998E+03</pdfrwt>
<totfact> 0.25636043E+03</totfact>
</mgrwt>
</event>
<event>
 8    1  0.1646661E-005  0.1347355E+03  0.7546771E-02  0.1235455E+00
         -1   -1    0    0    0  501 -0.00000000000E+00  0.00000000000E+00  0.25705729505E+02  0.25705729505E+02  0.00000000000E+00 0. -1.
          1   -1    0    0  501    0  0.00000000000E+00 -0.00000000000E+00 -0.53715795412E+03  0.53715795412E+03  0.00000000000E+00 0.  1.
         23    2    1    2    0    0  0.31494611529E+01 -0.50191509282E+02 -0.26571652866E+03  0.29792438093E+03  0.12499822573E+03 0.  0.
         23    2    1    2    0    0 -0.31494611529E+01  0.50191509282E+02 -0.24573569595E+03  0.26493930270E+03  0.85309408274E+02 0.  0.
          5    1    3    3  502    0 -0.10853715801E+02 -0.17720725687E+02  0.73500879888E+01  0.22537547759E+02  0.47000000000E+01 0. -1.
         -5    1    3    3    0  502  0.14003176954E+02 -0.32470783595E+02 -0.27306661665E+03  0.27538683317E+03  0.47000000000E+01 0. -1.
        -11    1    4    4    0    0  0.27367173912E+01  0.72206738608E+02 -0.14956310133E+03  0.16610365439E+03  0.00000000000E+00 0. -1.
         11    1    4    4    0    0 -0.58861785442E+01 -0.22015229327E+02 -0.96172594624E+02  0.98835648310E+02  0.00000000000E+00 0.  1.
<mgrwt>
<rscale>  0 0.12475344E+03</rscale>
<asrwt>0</asrwt>
<pdfrwt beam="2">  1        1 0.82639690E-01 0.13473553E+03</pdfrwt>
<pdfrwt beam="1">  1       -1 0.39547274E-02 0.13473553E+03</pdfrwt>
<totfact> 0.97733063E+03</totfact>
</mgrwt>
</event>
<event>
 8    1  0.1646661E-005  0.1602894E+03  0.7546771E-02  0.1195797E+00
         -1   -1    0    0    0  501 -0.00000000000E+00  0.00000000000E+00  0.75537507298E+02  0.75537507298E+02  0.00000000000E+00 0.  1.
          1   -1    0    0  501    0  0.00000000000E+00 -0.00000000000E+00 -0.40662166179E+03  0.40662166179E+03  0.00000000000E+00 0. -1.
         23    2    1    2    0    0 -0.13732033821E+02 -0.99387900476E+02 -0.46819574009E+02  0.16698730923E+03  0.12500466159E+03 0.  0.
         23    2    1    2    0    0  0.13732033821E+02  0.99387900476E+02 -0.28426458049E+03  0.31517185986E+03  0.91980574112E+02 0.  0.
          5    1    3    3  502    0  0.88714775561E+01 -0.44165762105E+02  0.40743976393E+02  0.60921911236E+02  0.47000000000E+01 0.  1.
         -5    1    3    3    0  502 -0.22603511377E+02 -0.55222138372E+02 -0.87563550402E+02  0.10606539800E+03  0.47000000000E+01 0.  1.
        -11    1    4    4    0    0 -0.17760807376E+02  0.12526710570E+02 -0.68687964881E+01  0.22793532449E+02  0.00000000000E+00 0.  1.
         11    1    4    4    0    0  0.31492841197E+02  0.86861189907E+02 -0.27739578400E+03  0.29237832741E+03  0.00000000000E+00 0. -1.
<mgrwt>
<rscale>  0 0.15387004E+03</rscale>
<asrwt>0</asrwt>
<pdfrwt beam="2">  1        1 0.62557180E-01 0.16028939E+03</pdfrwt>
<pdfrwt beam="1">  1       -1 0.11621155E-01 0.16028939E+03</pdfrwt>
<totfact> 0.27995052E+03</totfact>
</mgrwt>
</event>
<event>
 8    1  0.1646661E-005  0.1280128E+03  0.7546771E-02  0.1245266E+00
         -1   -1    0    0    0  501 -0.00000000000E+00  0.00000000000E+00  0.21172591705E+03  0.21172591705E+03  0.00000000000E+00 0.  1.
          1   -1    0    0  501    0  0.00000000000E+00 -0.00000000000E+00 -0.67577731229E+02  0.67577731229E+02  0.00000000000E+00 0. -1.
         23    2    1    2    0    0 -0.27071910280E+02  0.53080696127E+01  0.13205525843E+03  0.18391808784E+03  0.12500483122E+03 0.  0.
         23    2    1    2    0    0  0.27071910280E+02 -0.53080696127E+01  0.12092927386E+02  0.95385560432E+02  0.90504708811E+02 0.  0.
          5    1    3    3  502    0  0.13961728113E+02  0.56247272973E+02  0.85885743584E+02  0.10371661641E+03  0.47000000000E+01 0. -1.
         -5    1    3    3    0  502 -0.41033638393E+02 -0.50939203360E+02  0.46169514849E+02  0.80201471433E+02  0.47000000000E+01 0. -1.
        -11    1    4    4    0    0  0.35955835859E+02  0.17809101640E+02  0.40968388696E+02  0.57344529869E+02  0.00000000000E+00 0.  1.
         11    1    4    4    0    0 -0.88839255793E+01 -0.23117171253E+02 -0.28875461311E+02  0.38041030563E+02  0.00000000000E+00 0. -1.
<mgrwt>
<rscale>  0 0.11869461E+03</rscale>
<asrwt>0</asrwt>
<pdfrwt beam="2">  1        1 0.10396574E-01 0.12801278E+03</pdfrwt>
<pdfrwt beam="1">  1       -1 0.32573218E-01 0.12801278E+03</pdfrwt>
<totfact> 0.51238887E+03</totfact>
</mgrwt>
</event>
<event>
 8    1  0.1646661E-005  0.1402229E+03  0.7546771E-02  0.1226233E+00
         -4   -1    0    0    0  501 -0.00000000000E+00  0.00000000000E+00  0.67492258049E+03  0.67492258049E+03  0.00000000000E+00 0.  1.
          4   -1    0    0  501    0  0.00000000000E+00 -0.00000000000E+00 -0.31012988597E+02  0.31012988597E+02  0.00000000000E+00 0. -1.
         23    2    1    2    0    0  0.60744524496E+02  0.18630279614E+02  0.53777433876E+03  0.55575508380E+03  0.12500195664E+03 0.  0.
         23    2    1    2    0    0 -0.60744524496E+02 -0.18630279614E+02  0.10613525314E+03  0.15018048529E+03  0.85161620635E+02 0.  0.
          5    1    3    3  502    0 -0.31459046691E+02 -0.11780961275E+02  0.67537749939E+02  0.75577115148E+02  0.47000000000E+01 0. -1.
         -5    1    3    3    0  502  0.92203571187E+02  0.30411240889E+02  0.47023658882E+03  0.48017796865E+03  0.47000000000E+01 0. -1.
        -11    1    4    4    0    0 -0.31982760029E+02 -0.20308177082E+02  0.11415247612E+03  0.12027512959E+03  0.00000000000E+00 0.  1.
         11    1    4    4    0    0 -0.28761764468E+02  0.16778974684E+01 -0.80172229775E+01  0.29905355699E+02  0.00000000000E+00 0. -1.
<mgrwt>
<rscale>  0 0.13082736E+03</rscale>
<asrwt>0</asrwt>
<pdfrwt beam="2">  1        4 0.47712295E-02 0.14022294E+03</pdfrwt>
<pdfrwt beam="1">  1       -4 0.10383423E+00 0.14022294E+03</pdfrwt>
<totfact> 0.33820957E+02</totfact>
</mgrwt>
</event>
<event>
 7    1  0.1646661E-005  0.1518390E+03  0.7546771E-02  0.1221938E+00
         -1   -1    0    0    0  501 -0.00000000000E+00  0.00000000000E+00  0.10893496226E+04  0.10893496226E+04  0.00000000000E+00 0.  1.
          1   -1    0    0  501    0  0.00000000000E+00 -0.00000000000E+00 -0.14437023626E+02  0.14437023626E+02  0.00000000000E+00 0. -1.
         23    2    1    2    0    0 -0.13851780727E+02  0.45936906927E+01  0.28245517164E+03  0.29691376641E+03  0.90354229971E+02 0.  0.
          5    1    1    2  502    0  0.45581421729E+02  0.42152954510E+02  0.15705753493E+03  0.16894879952E+03  0.47000000000E+01 0. -1.
         -5    1    1    2    0  502 -0.31729641002E+02 -0.46746645202E+02  0.63539989240E+03  0.63792408029E+03  0.47000000000E+01 0.  1.
        -11    1    3    3    0    0 -0.38429666502E+02 -0.25314279209E+02  0.20762381609E+03  0.21266241089E+03  0.00000000000E+00 0.  1.
         11    1    3    3    0    0  0.24577885775E+02  0.29907969902E+02  0.74831355557E+02  0.84251355522E+02  0.00000000000E+00 0. -1.
<mgrwt>
<rscale>  0 0.13378967E+03</rscale>
<asrwt>0</asrwt>
<pdfrwt beam="2">  1        1 0.22210814E-02 0.15183896E+03</pdfrwt>
<pdfrwt beam="1">  1       -1 0.16759218E+00 0.15183896E+03</pdfrwt>
<totfact> 0.14306868E+03</totfact>
</mgrwt>
</event>
<event>
 8    1  0.1646661E-005  0.1378682E+03  0.7546771E-02  0.1227379E+00
         -1   -1    0    0    0  501 -0.00000000000E+00  0.00000000000E+00  0.13926982664E+02  0.13926982664E+02  0.00000000000E+00 0.  1.
          1   -1    0    0  501    0  0.00000000000E+00 -0.00000000000E+00 -0.11007362365E+04  0.11007362365E+04  0.00000000000E+00 0. -1.
         23    2    1    2    0    0 -0.39038727501E+02 -0.43113427788E+02 -0.56778126058E+03  0.58428006862E+03  0.12499939532E+03 0.  0.
         23    2    1    2    0    0  0.39038727501E+02  0.43113427788E+02 -0.51902799323E+03  0.53038315051E+03  0.92376613311E+02 0.  0.
          5    1    3    3  502    0  0.41532705431E+02 -0.10594127662E+02 -0.29003576826E+03  0.29322352912E+03  0.47000000000E+01 0. -1.
         -5    1    3    3    0  502 -0.80571432932E+02 -0.32519300126E+02 -0.27774549232E+03  0.29105653951E+03  0.47000000000E+01 0. -1.
        -11    1    4    4    0    0 -0.24108487939E+02  0.34612741946E+02 -0.14675398503E+03  0.15269575377E+03  0.00000000000E+00 0.  1.
         11    1    4    4    0    0  0.63147215441E+02  0.85006858416E+01 -0.37227400820E+03  0.37768739674E+03  0.00000000000E+00 0. -1.
<mgrwt>
<rscale>  0 0.13005152E+03</rscale>
<asrwt>0</asrwt>
<pdfrwt beam="2">  1        1 0.16934404E+00 0.13786819E+03</pdfrwt>
<pdfrwt beam="1">  1       -1 0.21426127E-02 0.13786819E+03</pdfrwt>
<totfact> 0.81056864E+03</totfact>
</mgrwt>
</event>
<event>
 8    1  0.1646661E-005  0.1811212E+03  0.7546771E-02  0.1172095E+00
         -2   -1    0    0    0  501 -0.00000000000E+00  0.00000000000E+00  0.29634503389E+02  0.29634503389E+02  0.00000000000E+00 0.  1.
          2   -1    0    0  501    0  0.00000000000E+00 -0.00000000000E+00 -0.98859085600E+03  0.98859085600E+03  0.00000000000E+00 0. -1.
         23    2    1    2    0    0  0.13095079467E+03 -0.55101891770E+01 -0.54845587618E+03  0.57758871597E+03  0.12500561548E+03 0.  0.
         23    2    1    2    0    0 -0.13095079467E+03  0.55101891770E+01 -0.41050047643E+03  0.44063664341E+03  0.92040955868E+02 0.  0.
          5    1    3    3  502    0  0.13872009905E+03 -0.30753753839E+02 -0.51727495846E+03  0.53645552649E+03  0.47000000000E+01 0. -1.
         -5    1    3    3    0  502 -0.77693043818E+01  0.25243564662E+02 -0.31180917718E+02  0.41133189484E+02  0.47000000000E+01 0. -1.
        -11    1    4    4    0    0 -0.58785143282E+02  0.29305581343E+02 -0.29610793746E+03  0.30330582058E+03  0.00000000000E+00 0. -1.
         11    1    4    4    0    0 -0.72165651383E+02 -0.23795392166E+02 -0.11439253897E+03  0.13733082283E+03  0.00000000000E+00 0.  1.
<mgrwt>
<rscale>  0 0.17563572E+03</rscale>
<asrwt>0</asrwt>
<pdfrwt beam="2">  1        2 0.15209089E+00 0.18112117E+03</pdfrwt>
<pdfrwt beam="1">  1       -2 0.45591547E-02 0.18112117E+03</pdfrwt>
<totfact> 0.59200876E+03</totfact>
</mgrwt>
</event>
<event>
 8    1  0.1646661E-005  0.1285928E+03  0.7546771E-02  0.1244547E+00
         -1   -1    0    0    0  501 -0.00000000000E+00  0.00000000000E+00  0.24089793016E+02  0.24089793016E+02  0.00000000000E+00 0.  1.
          1   -1    0    0  501    0  0.00000000000E+00 -0.00000000000E+00 -0.63156282734E+03  0.63156282734E+03  0.00000000000E+00 0. -1.
         23    2    1    2    0    0 -0.98096013335E+01  0.28498249804E+02 -0.20347926729E+03  0.24070710115E+03  0.12501087076E+03 0.  0.
         23    2    1    2    0    0  0.98096013335E+01 -0.28498249804E+02 -0.40399376704E+03  0.41494551921E+03  0.89779962053E+02 0.  0.
          5    1    3    3  502    0  0.38811855495E+02 -0.32221488373E+02 -0.79752752079E+02  0.94483733543E+02  0.47000000000E+01 0.  1.
         -5    1    3    3    0  502 -0.48621456829E+02  0.60719738177E+02 -0.12372651521E+03  0.14622336761E+03  0.47000000000E+01 0.  1.
        -11    1    4    4    0    0 -0.19580355813E+02  0.25634636696E+02 -0.16635152424E+03  0.16945015358E+03  0.00000000000E+00 0.  1.
         11    1    4    4    0    0  0.29389957146E+02 -0.54132886501E+02 -0.23764224279E+03  0.24549536562E+03  0.00000000000E+00 0. -1.
<mgrwt>
<rscale>  0 0.11912538E+03</rscale>
<asrwt>0</asrwt>
<pdfrwt beam="2">  1        1 0.97163504E-01 0.12859275E+03</pdfrwt>
<pdfrwt beam="1">  1       -1 0.37061223E-02 0.12859275E+03</pdfrwt>
<totfact> 0.86119773E+03</totfact>
</mgrwt>
</event>
<event>
 8    1  0.1646661E-005  0.1211909E+03  0.7546771E-02  0.1250808E+00
         -2   -1    0    0    0  501 -0.00000000000E+00  0.00000000000E+00  0.19113420459E+02  0.19113420459E+02  0.00000000000E+00 0.  1.
          2   -1    0    0  501    0  0.00000000000E+00 -0.00000000000E+00 -0.63885938435E+03  0.63885938435E+03  0.00000000000E+00 0. -1.
         23    2    1    2    0    0  0.21166427281E+02  0.32717062408E+02 -0.34487295128E+03  0.36554697248E+03  0.11475544759E+03 0.  0.
         23    2    1    2    0    0 -0.21166427281E+02 -0.32717062408E+02 -0.27487301262E+03  0.29242583233E+03  0.91865502408E+02 0.  0.
          5    1    3    3  502    0  0.54604922011E+02 -0.19073844900E+02 -0.19411974435E+03  0.20260817904E+03  0.47000000000E+01 0. -1.
         -5    1    3    3    0  502 -0.33438494730E+02  0.51790907308E+02 -0.15075320693E+03  0.16293879344E+03  0.47000000000E+01 0.  1.
        -11    1    4    4    0    0 -0.42650203708E+01  0.23149933332E+02 -0.19798709273E+02  0.30758717479E+02  0.00000000000E+00 0. -1.
         11    1    4    4    0    0 -0.16901406910E+02 -0.55866995740E+02 -0.25507430334E+03  0.26166711485E+03  0.00000000000E+00 0.  1.
<mgrwt>
<rscale>  0 0.11544427E+03</rscale>
<asrwt>0</asrwt>
<pdfrwt beam="2">  1        2 0.98286060E-01 0.12119091E+03</pdfrwt>
<pdfrwt beam="1">  1       -2 0.29405262E-02 0.12119091E+03</pdfrwt>
<totfact> 0.19140722E+04</totfact>
</mgrwt>
</event>
<event>
 8    1  0.1646661E-005  0.1681699E+03  0.7546771E-02  0.1186635E+00
         -1   -1    0    0    0  501 -0.00000000000E+00  0.00000000000E+00  0.28544537607E+03  0.28544537607E+03  0.00000000000E+00 0.  1.
          1   -1    0    0  501    0  0.00000000000E+00 -0.00000000000E+00 -0.86734282978E+02  0.86734282978E+02  0.00000000000E+00 0. -1.
         23    2    1    2    0    0  0.68581885859E+02 -0.89178445733E+02  0.12913869685E+03  0.21203281713E+03  0.12499936906E+03 0.  0.
         23    2    1    2    0    0 -0.68581885859E+02  0.89178445733E+02  0.69572396245E+02  0.16014684192E+03  0.90279689882E+02 0.  0.
          5    1    3    3  502    0 -0.19192550722E+01 -0.94611452531E+02  0.55371888664E+02  0.10974127093E+03  0.47000000000E+01 0. -1.
         -5    1    3    3    0  502  0.70501140931E+02  0.54330067979E+01  0.73766808182E+02  0.10229154620E+03  0.47000000000E+01 0. -1.
        -11    1    4    4    0    0 -0.69959906081E+02  0.17931998553E+02  0.26786745185E+02  0.77029051329E+02  0.00000000000E+00 0. -1.
         11    1    4    4    0    0  0.13780202225E+01  0.71246447181E+02  0.42785651060E+02  0.83117790588E+02  0.00000000000E+00 0.  1.
<mgrwt>
<rscale>  0 0.16184026E+03</rscale>
<asrwt>0</asrwt>
<pdfrwt beam="2">  1        1 0.13343736E-01 0.16816989E+03</pdfrwt>
<pdfrwt beam="1">  1       -1 0.43914673E-01 0.16816989E+03</pdfrwt>
<totfact> 0.22250247E+03</totfact>
</mgrwt>
</event>
<event>
 7    1  0.1646661E-005  0.2211312E+03  0.7546771E-02  0.1164212E+00
         -2   -1    0    0    0  501 -0.00000000000E+00  0.00000000000E+00  0.73216419832E+02  0.73216419832E+02  0.00000000000E+00 0.  1.
          2   -1    0    0  501    0  0.00000000000E+00 -0.00000000000E+00 -0.55968764479E+03  0.55968764479E+03  0.00000000000E+00 0. -1.
         23    2    1    2    0    0  0.17190425489E+01  0.61139446975E+02 -0.36640762908E+03  0.38128079555E+03  0.85904058838E+02 0.  0.
          5    1    1    2  502    0  0.99134641189E+02 -0.26732615603E+02 -0.99380547589E+02  0.14297165125E+03  0.47000000000E+01 0. -1.
         -5    1    1    2    0  502 -0.10085368374E+03 -0.34406831372E+02 -0.20683048284E+02  0.10865161782E+03  0.47000000000E+01 0.  1.
        -11    1    3    3    0    0 -0.74960343759E+01 -0.75166855419E+01 -0.25898386296E+01  0.10926955524E+02  0.00000000000E+00 0.  1.
         11    1    3    3    0    0  0.92150769248E+01  0.68656132517E+02 -0.36381779045E+03  0.37035384003E+03  0.00000000000E+00 0. -1.
<mgrwt>
<rscale>  0 0.18376086E+03</rscale>
<asrwt>0</asrwt>
<pdfrwt beam="2">  1        2 0.86105790E-01 0.22113119E+03</pdfrwt>
<pdfrwt beam="1">  1       -2 0.11264065E-01 0.22113119E+03</pdfrwt>
<totfact> 0.29717665E+03</totfact>
</mgrwt>
</event>
<event>
 7    1  0.1646661E-005  0.1705543E+03  0.7546771E-02  0.1178233E+00
         -1   -1    0    0    0  501 -0.00000000000E+00  0.00000000000E+00  0.25864690001E+02  0.25864690001E+02  0.00000000000E+00 0.  1.
          1   -1    0    0  501    0  0.00000000000E+00 -0.00000000000E+00 -0.11016847762E+04  0.11016847762E+04  0.00000000000E+00 0. -1.
         23    2    1    2    0    0  0.11057150810E+03 -0.14667287573E+01 -0.54951730562E+03  0.57430143066E+03  0.12499861755E+03 0.  0.
          5    1    3    3  502    0  0.28041537320E+02 -0.15927931391E+02 -0.20134052005E+02  0.38307921685E+02  0.47000000000E+01 0.  1.
         -5    1    3    3    0  502  0.82529970785E+02  0.14461202633E+02 -0.52938325361E+03  0.53599350898E+03  0.47000000000E+01 0.  1.
        -11    1    1    2    0    0 -0.75577644544E+00 -0.42482884275E+02 -0.70201283393E+02  0.82058435546E+02  0.00000000000E+00 0.  1.
         11    1    1    2    0    0 -0.10981573166E+03  0.43949613032E+02 -0.45610149722E+03  0.47118960002E+03  0.00000000000E+00 0. -1.
<mgrwt>
<rscale>  0 0.16963121E+03</rscale>
<asrwt>0</asrwt>
<pdfrwt beam="2">  1        1 0.16948989E+00 0.17055431E+03</pdfrwt>
<pdfrwt beam="1">  1       -1 0.39791848E-02 0.17055431E+03</pdfrwt>
<totfact> 0.33030320E+03</totfact>
</mgrwt>
</event>
<event>
 8    1  0.1646661E-005  0.1559807E+03  0.7546771E-02  0.1200719E+00
         -2   -1    0    0    0  501 -0.00000000000E+00  0.00000000000E+00  0.21774601573E+03  0.21774601573E+03  0.00000000000E+00 0.  1.
          2   -1    0    0  501    0  0.00000000000E+00 -0.00000000000E+00 -0.10358097485E+03  0.10358097485E+03  0.00000000000E+00 0. -1.
         23    2    1    2    0    0  0.51281435524E+02 -0.77949107526E+02  0.10559261955E+03  0.18836079268E+03  0.12499655164E+03 0.  0.
         23    2    1    2    0    0 -0.51281435524E+02  0.77949107526E+02  0.85724213350E+01  0.13296619790E+03  0.94343385481E+02 0.  0.
          5    1    3    3  502    0  0.54743757334E+02 -0.19607579858E+02  0.11502550632E+03  0.12897400226E+03  0.47000000000E+01 0. -1.
         -5    1    3    3    0  502 -0.34623218102E+01 -0.58341527668E+02 -0.94328867769E+01  0.59386790416E+02  0.47000000000E+01 0. -1.
        -11    1    4    4    0    0 -0.39368628146E+02  0.57064869084E+01 -0.30358935007E+02  0.50041161154E+02  0.00000000000E+00 0.  1.
         11    1    4    4    0    0 -0.11912807377E+02  0.72242620617E+02  0.38931356342E+02  0.82925036749E+02  0.00000000000E+00 0. -1.
<mgrwt>
<rscale>  0 0.14980020E+03</rscale>
<asrwt>0</asrwt>
<pdfrwt beam="2">  1        2 0.15935535E-01 0.15598073E+03</pdfrwt>
<pdfrwt beam="1">  1       -2 0.33499387E-01 0.15598073E+03</pdfrwt>
<totfact> 0.29327239E+03</totfact>
</mgrwt>
</event>
<event>
 7    1  0.1646661E-005  0.1470335E+03  0.7546771E-02  0.1218664E+00
         -2   -1    0    0    0  501 -0.00000000000E+00  0.00000000000E+00  0.25585514999E+02  0.25585514999E+02  0.00000000000E+00 0.  1.
          2   -1    0    0  501    0  0.00000000000E+00 -0.00000000000E+00 -0.70918612853E+03  0.70918612853E+03  0.00000000000E+00 0. -1.
         23    2    1    2    0    0 -0.54107453215E+02  0.11130320911E+02 -0.41216255772E+03  0.42606873964E+03  0.92763658724E+02 0.  0.
          5    1    1    2  502    0 -0.42436029620E+02 -0.17209880024E+02 -0.12431231194E+03  0.13256182513E+03  0.47000000000E+01 0. -1.
         -5    1    1    2    0  502  0.96543482835E+02  0.60795591126E+01 -0.14712574387E+03  0.17614107876E+03  0.47000000000E+01 0.  1.
        -11    1    3    3    0    0 -0.65323423034E+02  0.17137038165E+02 -0.40662116291E+03  0.41219121510E+03  0.00000000000E+00 0. -1.
         11    1    3    3    0    0  0.11215969820E+02 -0.60067172537E+01 -0.55413948042E+01  0.13877524546E+02  0.00000000000E+00 0.  1.
<mgrwt>
<rscale>  0 0.13610805E+03</rscale>
<asrwt>0</asrwt>
<pdfrwt beam="2">  1        2 0.10910554E+00 0.14703355E+03</pdfrwt>
<pdfrwt beam="1">  1       -2 0.39362338E-02 0.14703355E+03</pdfrwt>
<totfact> 0.11170214E+04</totfact>
</mgrwt>
</event>
<event>
 8    1  0.1646661E-005  0.1272566E+03  0.7546771E-02  0.1246066E+00
          3   -1    0    0  501    0  0.00000000000E+00  0.00000000000E+00  0.48700218835E+02  0.48700218835E+02  0.00000000000E+00 0. -1.
         -3   -1    0    0    0  501 -0.00000000000E+00 -0.00000000000E+00 -0.25413279895E+03  0.25413279895E+03  0.00000000000E+00 0.  1.
         23    2    1    2    0    0  0.19310582638E+01  0.23757848150E+02 -0.12737595063E+03  0.18005244254E+03  0.12500433965E+03 0.  0.
         23    2    1    2    0    0 -0.19310582638E+01 -0.23757848150E+02 -0.78056629485E+02  0.12278057524E+03  0.91728228562E+02 0.  0.
          5    1    3    3  502    0 -0.21197832893E+02 -0.45866846135E+02 -0.71660359181E+02  0.87808956102E+02  0.47000000000E+01 0.  1.
         -5    1    3    3    0  502  0.23128891157E+02  0.69624694285E+02 -0.55715591445E+02  0.92243486439E+02  0.47000000000E+01 0.  1.
        -11    1    4    4    0    0  0.31230758743E+02 -0.72408789960E+01  0.44227933683E+01  0.32362813869E+02  0.00000000000E+00 0. -1.
         11    1    4    4    0    0 -0.33161817007E+02 -0.16516969154E+02 -0.82479422853E+02  0.90417761372E+02  0.00000000000E+00 0.  1.
<mgrwt>
<rscale>  0 0.11821793E+03</rscale>
<asrwt>0</asrwt>
<pdfrwt beam="1">  1        3 0.74923415E-02 0.12725663E+03</pdfrwt>
<pdfrwt beam="2">  1       -3 0.39097353E-01 0.12725663E+03</pdfrwt>
<totfact> 0.17498493E+03</totfact>
</mgrwt>
</event>
<event>
 8    1  0.1646661E-005  0.1293615E+03  0.7546771E-02  0.1241921E+00
         -2   -1    0    0    0  501 -0.00000000000E+00  0.00000000000E+00  0.11507343234E+03  0.11507343234E+03  0.00000000000E+00 0.  1.
          2   -1    0    0  501    0  0.00000000000E+00 -0.00000000000E+00 -0.12006019363E+03  0.12006019363E+03  0.00000000000E+00 0. -1.
         23    2    1    2    0    0  0.18905979033E+02 -0.27367646084E+02  0.26625288901E+02  0.13207305863E+03  0.12501185029E+03 0.  0.
         23    2    1    2    0    0 -0.18905979033E+02  0.27367646084E+02 -0.31612050192E+02  0.10306056734E+03  0.92280738661E+02 0.  0.
          5    1    3    3  502    0  0.17715707772E+02  0.40998284912E+02  0.42379569903E+02  0.61748065660E+02  0.47000000000E+01 0.  1.
         -5    1    3    3    0  502  0.11902712610E+01 -0.68365930996E+02 -0.15754281002E+02  0.70324992972E+02  0.47000000000E+01 0.  1.
        -11    1    4    4    0    0 -0.14836586997E+02 -0.30465352994E+02 -0.29689817327E+02  0.45052716896E+02  0.00000000000E+00 0. -1.
         11    1    4    4    0    0 -0.40693920359E+01  0.57832999078E+02 -0.19222328642E+01  0.58007850444E+02  0.00000000000E+00 0.  1.
<mgrwt>
<rscale>  0 0.12071542E+03</rscale>
<asrwt>0</asrwt>
<pdfrwt beam="2">  1        2 0.18470799E-01 0.12936146E+03</pdfrwt>
<pdfrwt beam="1">  1       -2 0.17703605E-01 0.12936146E+03</pdfrwt>
<totfact> 0.74362985E+03</totfact>
</mgrwt>
</event>
<event>
 8    1  0.1646661E-005  0.2189367E+03  0.7546771E-02  0.1137952E+00
         -1   -1    0    0    0  501 -0.00000000000E+00  0.00000000000E+00  0.56241603634E+02  0.56241603634E+02  0.00000000000E+00 0.  1.
          1   -1    0    0  501    0  0.00000000000E+00 -0.00000000000E+00 -0.83102934471E+03  0.83102934471E+03  0.00000000000E+00 0. -1.
         23    2    1    2    0    0  0.17112730385E+03 -0.54998797484E+02 -0.50241101777E+03  0.54804206608E+03  0.12499541420E+03 0.  0.
         23    2    1    2    0    0 -0.17112730385E+03  0.54998797484E+02 -0.27237672331E+03  0.33922888226E+03  0.92616053216E+02 0.  0.
          5    1    3    3  502    0  0.30254143141E+02 -0.64853995432E+02 -0.23355889410E+03  0.24432192066E+03  0.47000000000E+01 0. -1.
         -5    1    3    3    0  502  0.14087316071E+03  0.98551979480E+01 -0.26885212367E+03  0.30372014542E+03  0.47000000000E+01 0. -1.
        -11    1    4    4    0    0 -0.17451423220E+03  0.65751856185E+02 -0.26925405898E+03  0.32753056668E+03  0.00000000000E+00 0. -1.
         11    1    4    4    0    0  0.33869283456E+01 -0.10753058701E+02 -0.31226643288E+01  0.11698315586E+02  0.00000000000E+00 0.  1.
<mgrwt>
<rscale>  0 0.21462844E+03</rscale>
<asrwt>0</asrwt>
<pdfrwt beam="2">  1        1 0.12785067E+00 0.21893669E+03</pdfrwt>
<pdfrwt beam="1">  1       -1 0.86525540E-02 0.21893669E+03</pdfrwt>
<totfact> 0.16534757E+03</totfact>
</mgrwt>
</event>
<event>
 8    1  0.1646661E-005  0.1522197E+03  0.7546771E-02  0.1204174E+00
          3   -1    0    0  501    0  0.00000000000E+00  0.00000000000E+00  0.68216129491E+02  0.68216129491E+02  0.00000000000E+00 0. -1.
         -3   -1    0    0    0  501 -0.00000000000E+00 -0.00000000000E+00 -0.35784180141E+03  0.35784180141E+03  0.00000000000E+00 0.  1.
         23    2    1    2    0    0 -0.45147132331E+02 -0.74191178042E+02 -0.24075777288E+03  0.28484230184E+03  0.12501294837E+03 0.  0.
         23    2    1    2    0    0  0.45147132331E+02  0.74191178042E+02 -0.48867899043E+02  0.14121562906E+03  0.10005592375E+03 0.  0.
          5    1    3    3  502    0 -0.82879369779E+01 -0.10233600671E+03 -0.13857506654E+03  0.17252967060E+03  0.47000000000E+01 0.  1.
         -5    1    3    3    0  502 -0.36859195353E+02  0.28144828669E+02 -0.10218270634E+03  0.11231263124E+03  0.47000000000E+01 0.  1.
        -11    1    4    4    0    0  0.17500070865E+02  0.81069136610E+02  0.19467859681E+01  0.82959311512E+02  0.00000000000E+00 0. -1.
         11    1    4    4    0    0  0.27647061466E+02 -0.68779585682E+01 -0.50814685011E+02  0.58256317550E+02  0.00000000000E+00 0.  1.
<mgrwt>
<rscale>  0 0.14702780E+03</rscale>
<asrwt>0</asrwt>
<pdfrwt beam="1">  1        3 0.10494789E-01 0.15221968E+03</pdfrwt>
<pdfrwt beam="2">  1       -3 0.55052585E-01 0.15221968E+03</pdfrwt>
<totfact> 0.52708373E+02</totfact>
</mgrwt>
</event>
<event>
 8    1  0.1646661E-005  0.1408258E+03  0.7546771E-02  0.1223761E+00
         -1   -1    0    0    0  501 -0.00000000000E+00  0.00000000000E+00  0.43334248930E+03  0.43334248930E+03  0.00000000000E+00 0.  1.
          1   -1    0    0  501    0  0.00000000000E+00 -0.00000000000E+00 -0.48721096863E+02  0.48721096863E+02  0.00000000000E+00 0. -1.
         23    2    1    2    0    0 -0.59930274249E+02  0.23958771533E+02  0.33013979577E+03  0.35892087345E+03  0.12516488381E+03 0.  0.
         23    2    1    2    0    0  0.59930274249E+02 -0.23958771533E+02  0.54481596662E+02  0.12314271271E+03  0.89611510502E+02 0.  0.
          5    1    3    3  502    0 -0.92772020856E+02 -0.72963725643E+01  0.19119921937E+03  0.21269489038E+03  0.47000000000E+01 0. -1.
         -5    1    3    3    0  502  0.32841746607E+02  0.31255144098E+02  0.13894057640E+03  0.14622598306E+03  0.47000000000E+01 0. -1.
        -11    1    4    4    0    0  0.35995402176E+01  0.10811047216E+02 -0.20294821869E+02  0.23274776613E+02  0.00000000000E+00 0. -1.
         11    1    4    4    0    0  0.56330734032E+02 -0.34769818749E+02  0.74776418531E+02  0.99867936099E+02  0.00000000000E+00 0.  1.
<mgrwt>
<rscale>  0 0.13252211E+03</rscale>
<asrwt>0</asrwt>
<pdfrwt beam="2">  1        1 0.74955536E-02 0.14082581E+03</pdfrwt>
<pdfrwt beam="1">  1       -1 0.66668073E-01 0.14082581E+03</pdfrwt>
<totfact> 0.21834796E+03</totfact>
</mgrwt>
</event>
<event>
 8    1  0.1646661E-005  0.1803242E+03  0.7546771E-02  0.1176482E+00
          2   -1    0    0  501    0  0.00000000000E+00  0.00000000000E+00  0.67227392022E+03  0.67227392022E+03  0.00000000000E+00 0. -1.
         -2   -1    0    0    0  501 -0.00000000000E+00 -0.00000000000E+00 -0.58758888051E+02  0.58758888051E+02  0.00000000000E+00 0.  1.
         23    2    1    2    0    0 -0.86870429746E+02  0.96675252077E+02  0.12120573865E+03  0.21727324523E+03  0.12499702429E+03 0.  0.
         23    2    1    2    0    0  0.86870429746E+02 -0.96675252077E+02  0.49230929351E+03  0.51375956304E+03  0.68468037852E+02 0.  0.
          5    1    3    3  502    0 -0.35815498626E+02  0.68496091328E+02 -0.55820458833E+01  0.77638352026E+02  0.47000000000E+01 0.  1.
         -5    1    3    3    0  502 -0.51054931120E+02  0.28179160749E+02  0.12678778454E+03  0.13963489320E+03  0.47000000000E+01 0.  1.
        -11    1    4    4    0    0  0.69532892806E+02 -0.27714897067E+02  0.22333158949E+03  0.23554179580E+03  0.00000000000E+00 0. -1.
         11    1    4    4    0    0  0.17337536940E+02 -0.68960355009E+02  0.26897770402E+03  0.27821776724E+03  0.00000000000E+00 0.  1.
<mgrwt>
<rscale>  0 0.17131609E+03</rscale>
<asrwt>0</asrwt>
<pdfrwt beam="1">  1        2 0.10342675E+00 0.18032424E+03</pdfrwt>
<pdfrwt beam="2">  1       -2 0.90398294E-02 0.18032424E+03</pdfrwt>
<totfact> 0.33841702E+03</totfact>
</mgrwt>
</event>
<event>
 8    1  0.1646661E-005  0.2484176E+03  0.7546771E-02  0.1116759E+00
          1   -1    0    0  501    0  0.00000000000E+00  0.00000000000E+00  0.51617353199E+02  0.51617353199E+02  0.00000000000E+00 0. -1.
         -1   -1    0    0    0  501 -0.00000000000E+00 -0.00000000000E+00 -0.11801143393E+04  0.11801143393E+04  0.00000000000E+00 0.  1.
         23    2    1    2    0    0  0.98305770225E+02  0.19084385354E+03 -0.71389107429E+03  0.75587814886E+03  0.12500363626E+03 0.  0.
         23    2    1    2    0    0 -0.98305770225E+02 -0.19084385354E+03 -0.41460591184E+03  0.47585354367E+03  0.91940915794E+02 0.  0.
          5    1    3    3  502    0  0.66894131293E+02  0.11228007416E+03 -0.59903125373E+03  0.61314123398E+03  0.47000000000E+01 0.  1.
         -5    1    3    3    0  502  0.31411638932E+02  0.78563779385E+02 -0.11485982056E+03  0.14273691488E+03  0.47000000000E+01 0.  1.
        -11    1    4    4    0    0 -0.95401832806E+02 -0.15182085751E+03 -0.39100063144E+03  0.43015413082E+03  0.00000000000E+00 0.  1.
         11    1    4    4    0    0 -0.29039374186E+01 -0.39022996035E+02 -0.23605280405E+02  0.45699412853E+02  0.00000000000E+00 0. -1.
<mgrwt>
<rscale>  0 0.24461029E+03</rscale>
<asrwt>0</asrwt>
<pdfrwt beam="1">  1        1 0.79411315E-02 0.24841761E+03</pdfrwt>
<pdfrwt beam="2">  1       -1 0.18155605E+00 0.24841761E+03</pdfrwt>
<totfact> 0.19642314E+02</totfact>
</mgrwt>
</event>
<event>
 8    1  0.1646661E-005  0.1298297E+03  0.7546771E-02  0.1245864E+00
          1   -1    0    0  501    0  0.00000000000E+00  0.00000000000E+00  0.32235550311E+02  0.32235550311E+02  0.00000000000E+00 0. -1.
         -1   -1    0    0    0  501 -0.00000000000E+00 -0.00000000000E+00 -0.41283459284E+03  0.41283459284E+03  0.00000000000E+00 0.  1.
         23    2    1    2    0    0  0.32353690443E+02  0.13485439053E+02 -0.28951558054E+03  0.31729326454E+03  0.12500850369E+03 0.  0.
         23    2    1    2    0    0 -0.32353690443E+02 -0.13485439053E+02 -0.91083461985E+02  0.12777687861E+03  0.82474937455E+02 0.  0.
          5    1    3    3  502    0  0.69167663180E+02  0.15450756260E+02 -0.26087945575E+03  0.27037579761E+03  0.47000000000E+01 0. -1.
         -5    1    3    3    0  502 -0.36813972737E+02 -0.19653172077E+01 -0.28636124794E+02  0.46917466935E+02  0.47000000000E+01 0. -1.
        -11    1    4    4    0    0  0.23738226037E+02 -0.19891916128E+02 -0.19457065383E+02  0.36575525915E+02  0.00000000000E+00 0. -1.
         11    1    4    4    0    0 -0.56091916481E+02  0.64064770755E+01 -0.71626396602E+02  0.91201352694E+02  0.00000000000E+00 0.  1.
<mgrwt>
<rscale>  0 0.11833818E+03</rscale>
<asrwt>0</asrwt>
<pdfrwt beam="1">  1        1 0.49593151E-02 0.12982967E+03</pdfrwt>
<pdfrwt beam="2">  1       -1 0.63513018E-01 0.12982967E+03</pdfrwt>
<totfact> 0.41813469E+03</totfact>
</mgrwt>
</event>
<event>
 8    1  0.1646661E-005  0.2378167E+03  0.7546771E-02  0.1124092E+00
         -2   -1    0    0    0  501 -0.00000000000E+00  0.00000000000E+00  0.13848357993E+03  0.13848357993E+03  0.00000000000E+00 0.  1.
          2   -1    0    0  501    0  0.00000000000E+00 -0.00000000000E+00 -0.50825992654E+03  0.50825992654E+03  0.00000000000E+00 0. -1.
         23    2    1    2    0    0 -0.26744514972E+02 -0.20053834588E+03 -0.28069331863E+02  0.23946742402E+03  0.12500345005E+03 0.  0.
         23    2    1    2    0    0  0.26744514972E+02  0.20053834588E+03 -0.34170701475E+03  0.40727608245E+03  0.90439074273E+02 0.  0.
          5    1    3    3  502    0  0.24595517602E+02 -0.22646417349E+01 -0.23703103874E+02  0.34554235942E+02  0.47000000000E+01 0.  1.
         -5    1    3    3    0  502 -0.51340032574E+02 -0.19827370415E+03 -0.43662279891E+01  0.20491318808E+03  0.47000000000E+01 0.  1.
        -11    1    4    4    0    0  0.30682285784E+02  0.11921820995E+02 -0.48286389678E+02  0.58438924570E+02  0.00000000000E+00 0. -1.
         11    1    4    4    0    0 -0.39377708117E+01  0.18861652489E+03 -0.29342062507E+03  0.34883715788E+03  0.00000000000E+00 0.  1.
<mgrwt>
<rscale>  0 0.23365661E+03</rscale>
<asrwt>0</asrwt>
<pdfrwt beam="2">  1        2 0.78193833E-01 0.23781665E+03</pdfrwt>
<pdfrwt beam="1">  1       -2 0.21305167E-01 0.23781665E+03</pdfrwt>
<totfact> 0.11510573E+03</totfact>
</mgrwt>
</event>
<event>
 8    1  0.1646661E-005  0.2002666E+03  0.7546771E-02  0.1153844E+00
         -1   -1    0    0    0  501 -0.00000000000E+00  0.00000000000E+00  0.10085337335E+04  0.10085337335E+04  0.00000000000E+00 0.  1.
          1   -1    0    0  501    0  0.00000000000E+00 -0.00000000000E+00 -0.40364231591E+02  0.40364231591E+02  0.00000000000E+00 0. -1.
         23    2    1    2    0    0 -0.93395100332E+02 -0.12554515755E+03  0.67848147992E+03  0.70742054358E+03  0.12498990173E+03 0.  0.
         23    2    1    2    0    0  0.93395100332E+02  0.12554515755E+03  0.28968802200E+03  0.34147742152E+03  0.90572887603E+02 0.  0.
          5    1    3    3  502    0 -0.10326334132E+03 -0.14474569679E+03  0.61498780294E+03  0.64019272268E+03  0.47000000000E+01 0. -1.
         -5    1    3    3    0  502  0.98682409916E+01  0.19200539237E+02  0.63493676977E+02  0.67227820903E+02  0.47000000000E+01 0. -1.
        -11    1    4    4    0    0  0.62395213236E+02  0.13115062935E+03  0.20595261753E+03  0.25201216416E+03  0.00000000000E+00 0. -1.
         11    1    4    4    0    0  0.30999887095E+02 -0.56054718026E+01  0.83735404469E+02  0.89465257366E+02  0.00000000000E+00 0.  1.
<mgrwt>
<rscale>  0 0.19521105E+03</rscale>
<asrwt>0</asrwt>
<pdfrwt beam="2">  1        1 0.62098825E-02 0.20026659E+03</pdfrwt>
<pdfrwt beam="1">  1       -1 0.15515902E+00 0.20026659E+03</pdfrwt>
<totfact> 0.42590753E+02</totfact>
</mgrwt>
</event>
<event>
 8    1  0.1646661E-005  0.1734223E+03  0.7546771E-02  0.1180109E+00
          2   -1    0    0  501    0  0.00000000000E+00  0.00000000000E+00  0.99980587772E+03  0.99980587772E+03  0.00000000000E+00 0. -1.
         -2   -1    0    0    0  501 -0.00000000000E+00 -0.00000000000E+00 -0.28619937997E+02  0.28619937997E+02  0.00000000000E+00 0.  1.
         23    2    1    2    0    0 -0.51360267692E+02 -0.10869783036E+03  0.37559064436E+03  0.41369510821E+03  0.12498885950E+03 0.  0.
         23    2    1    2    0    0  0.51360267692E+02  0.10869783036E+03  0.59559529536E+03  0.61473070751E+03  0.93311261248E+02 0.  0.
          5    1    3    3  502    0 -0.74790710267E+01 -0.11842006255E+03  0.32418822266E+03  0.34525257628E+03  0.47000000000E+01 0.  1.
         -5    1    3    3    0  502 -0.43881196666E+02  0.97222321845E+01  0.51402421698E+02  0.68442531922E+02  0.47000000000E+01 0.  1.
        -11    1    4    4    0    0  0.54424256808E+02  0.34482337253E+02  0.15403565796E+03  0.16696710824E+03  0.00000000000E+00 0.  1.
         11    1    4    4    0    0 -0.30639891155E+01  0.74215493110E+02  0.44155963740E+03  0.44776359927E+03  0.00000000000E+00 0. -1.
<mgrwt>
<rscale>  0 0.16784999E+03</rscale>
<asrwt>0</asrwt>
<pdfrwt beam="1">  1        2 0.15381626E+00 0.17342235E+03</pdfrwt>
<pdfrwt beam="2">  1       -2 0.44030681E-02 0.17342235E+03</pdfrwt>
<totfact> 0.61316598E+03</totfact>
</mgrwt>
</event>
<event>
 7    1  0.1646661E-005  0.2660750E+03  0.7546771E-02  0.1129514E+00
          1   -1    0    0  501    0  0.00000000000E+00  0.00000000000E+00  0.10388392213E+04  0.10388392213E+04  0.00000000000E+00 0. -1.
         -1   -1    0    0    0  501 -0.00000000000E+00 -0.00000000000E+00 -0.45051469891E+02  0.45051469891E+02  0.00000000000E+00 0.  1.
         23    2    1    2    0    0 -0.10432123100E+03  0.16655473238E+02  0.54369288814E+03  0.56103192740E+03  0.89412207926E+02 0.  0.
          5    1    1    2  502    0  0.11166948185E+03 -0.69413094720E+02  0.45056619884E+03  0.46938282929E+03  0.47000000000E+01 0. -1.
         -5    1    1    2    0  502 -0.73482508514E+01  0.52757621482E+02 -0.47133555204E+00  0.53475934515E+02  0.47000000000E+01 0.  1.
        -11    1    3    3    0    0  0.15521563492E+02 -0.55550460353E+01  0.68773958202E+02  0.70722236931E+02  0.00000000000E+00 0. -1.
         11    1    3    3    0    0 -0.11984279450E+03  0.22210519273E+02  0.47491892994E+03  0.49030969047E+03  0.00000000000E+00 0.  1.
<mgrwt>
<rscale>  0 0.22596331E+03</rscale>
<asrwt>0</asrwt>
<pdfrwt beam="1">  1        1 0.15982140E+00 0.26607499E+03</pdfrwt>
<pdfrwt beam="2">  1       -1 0.69309962E-02 0.26607499E+03</pdfrwt>
<totfact> 0.16046143E+03</totfact>
</mgrwt>
</event>
<event>
 8    1  0.1646661E-005  0.1465088E+03  0.7546771E-02  0.1211304E+00
          1   -1    0    0  501    0  0.00000000000E+00  0.00000000000E+00  0.38087745533E+03  0.38087745533E+03  0.00000000000E+00 0. -1.
         -1   -1    0    0    0  501 -0.00000000000E+00 -0.00000000000E+00 -0.50979443806E+02  0.50979443806E+02  0.00000000000E+00 0.  1.
         23    2    1    2    0    0 -0.76438229025E+02  0.32875033013E+00  0.13682153935E+03  0.20046186624E+03  0.12498766040E+03 0.  0.
         23    2    1    2    0    0  0.76438229025E+02 -0.32875033013E+00  0.19307647217E+03  0.23139503290E+03  0.10208930507E+03 0.  0.
          5    1    3    3  502    0 -0.61891456103E+02 -0.13894309928E+02  0.15824279910E+03  0.17054758178E+03  0.47000000000E+01 0.  1.
         -5    1    3    3    0  502 -0.14546772922E+02  0.14223060258E+02 -0.21421259742E+02  0.29914284455E+02  0.47000000000E+01 0.  1.
        -11    1    4    4    0    0  0.40234198580E+02 -0.27035497328E+02  0.17716297522E+03  0.18367479043E+03  0.00000000000E+00 0. -1.
         11    1    4    4    0    0  0.36204030445E+02  0.26706746998E+02  0.15913496949E+02  0.47720242464E+02  0.00000000000E+00 0.  1.
<mgrwt>
<rscale>  0 0.14151582E+03</rscale>
<asrwt>0</asrwt>
<pdfrwt beam="1">  1        1 0.58596530E-01 0.14650879E+03</pdfrwt>
<pdfrwt beam="2">  1       -1 0.78429916E-02 0.14650879E+03</pdfrwt>
<totfact> 0.55204084E+03</totfact>
</mgrwt>
</event>
<event>
 8    1  0.1646661E-005  0.1133290E+03  0.7546771E-02  0.1268466E+00
         -1   -1    0    0    0  501 -0.00000000000E+00  0.00000000000E+00  0.19196308356E+03  0.19196308356E+03  0.00000000000E+00 0.  1.
          1   -1    0    0  501    0  0.00000000000E+00 -0.00000000000E+00 -0.77729525976E+02  0.77729525976E+02  0.00000000000E+00 0. -1.
         23    2    1    2    0    0  0.12581301029E+02 -0.20233772266E+02  0.13960201446E+03  0.17981153378E+03  0.11079607648E+03 0.  0.
         23    2    1    2    0    0 -0.12581301029E+02  0.20233772266E+02 -0.25368456871E+02  0.89881075763E+02  0.82869502838E+02 0.  0.
          5    1    3    3  502    0  0.16832162030E+02  0.44703690018E+02  0.62623070838E+02  0.78901714690E+02  0.47000000000E+01 0. -1.
         -5    1    3    3    0  502 -0.42508610011E+01 -0.64937462284E+02  0.76978943621E+02  0.10090981909E+03  0.47000000000E+01 0.  1.
        -11    1    4    4    0    0  0.11456311268E+02  0.21500073882E+02 -0.49889468986E+02  0.55519900581E+02  0.00000000000E+00 0. -1.
         11    1    4    4    0    0 -0.24037612297E+02 -0.12663016156E+01  0.24521012115E+02  0.34361175182E+02  0.00000000000E+00 0.  1.
<mgrwt>
<rscale>  0 0.10584402E+03</rscale>
<asrwt>0</asrwt>
<pdfrwt beam="2">  1        1 0.11958389E-01 0.11332901E+03</pdfrwt>
<pdfrwt beam="1">  1       -1 0.29532782E-01 0.11332901E+03</pdfrwt>
<totfact> 0.49858566E+03</totfact>
</mgrwt>
</event>
<event>
 8    1  0.1646661E-005  0.2555347E+03  0.7546771E-02  0.1112090E+00
         -2   -1    0    0    0  501 -0.00000000000E+00  0.00000000000E+00  0.10169846534E+03  0.10169846534E+03  0.00000000000E+00 0.  1.
          2   -1    0    0  501    0  0.00000000000E+00 -0.00000000000E+00 -0.64054518611E+03  0.64054518611E+03  0.00000000000E+00 0. -1.
         23    2    1    2    0    0 -0.18039743294E+03 -0.13088389701E+03 -0.19191644626E+03  0.31957772081E+03  0.12499667588E+03 0.  0.
         23    2    1    2    0    0  0.18039743294E+03  0.13088389701E+03 -0.34693027450E+03  0.42266593064E+03  0.92801105872E+02 0.  0.
          5    1    3    3  502    0 -0.13843887167E+03 -0.77889840064E+02 -0.57407856014E+02  0.16896715748E+03  0.47000000000E+01 0.  1.
         -5    1    3    3    0  502 -0.41958561275E+02 -0.52994056950E+02 -0.13450859025E+03  0.15061056333E+03  0.47000000000E+01 0.  1.
        -11    1    4    4    0    0  0.49572631820E+02  0.43044074555E+02 -0.37971282996E+02  0.75842313469E+02  0.00000000000E+00 0.  1.
         11    1    4    4    0    0  0.13082480112E+03  0.87839822459E+02 -0.30895899150E+03  0.34682361717E+03  0.00000000000E+00 0. -1.
<mgrwt>
<rscale>  0 0.25193173E+03</rscale>
<asrwt>0</asrwt>
<pdfrwt beam="2">  1        2 0.98545413E-01 0.25553473E+03</pdfrwt>
<pdfrwt beam="1">  1       -2 0.15645918E-01 0.25553473E+03</pdfrwt>
<totfact> 0.14889738E+03</totfact>
</mgrwt>
</event>
<event>
 8    1  0.1646661E-005  0.1357244E+03  0.7546771E-02  0.1231715E+00
          1   -1    0    0  501    0  0.00000000000E+00  0.00000000000E+00  0.41496828078E+03  0.41496828078E+03  0.00000000000E+00 0. -1.
         -1   -1    0    0    0  501 -0.00000000000E+00 -0.00000000000E+00 -0.40086632634E+02  0.40086632634E+02  0.00000000000E+00 0.  1.
         23    2    1    2    0    0  0.22692588355E+02 -0.47758636532E+02  0.12646946910E+03  0.18551456079E+03  0.12500113887E+03 0.  0.
         23    2    1    2    0    0 -0.22692588355E+02  0.47758636532E+02  0.24841217904E+03  0.26954035263E+03  0.90263780488E+02 0.  0.
          5    1    3    3  502    0  0.69850910899E+02 -0.41196749264E+01  0.53721832386E+02  0.88341647878E+02  0.47000000000E+01 0. -1.
         -5    1    3    3    0  502 -0.47158322544E+02 -0.43638961606E+02  0.72747636718E+02  0.97172912909E+02  0.47000000000E+01 0. -1.
        -11    1    4    4    0    0  0.30488144439E+02  0.21183102677E+01  0.45019775508E+02  0.54413182010E+02  0.00000000000E+00 0. -1.
         11    1    4    4    0    0 -0.53180732793E+02  0.45640326265E+02  0.20339240353E+03  0.21512717062E+03  0.00000000000E+00 0.  1.
<mgrwt>
<rscale>  0 0.12717084E+03</rscale>
<asrwt>0</asrwt>
<pdfrwt beam="1">  1        1 0.63841271E-01 0.13572445E+03</pdfrwt>
<pdfrwt beam="2">  1       -1 0.61671745E-02 0.13572445E+03</pdfrwt>
<totfact> 0.70742478E+03</totfact>
</mgrwt>
</event>
<event>
 7    1  0.1646661E-005  0.1802512E+03  0.7546771E-02  0.1177230E+00
         -2   -1    0    0    0  501 -0.00000000000E+00  0.00000000000E+00  0.79578118825E+02  0.79578118825E+02  0.00000000000E+00 0.  1.
          2   -1    0    0  501    0  0.00000000000E+00 -0.00000000000E+00 -0.38374584026E+03  0.38374584026E+03  0.00000000000E+00 0. -1.
         23    2    1    2    0    0  0.31607330686E+02 -0.70117273688E+02 -0.52682500683E+02  0.15391272918E+03  0.12246724829E+03 0.  0.
          5    1    3    3  502    0  0.43385251647E+02 -0.85082974260E+02  0.21825699762E+01  0.95646464551E+02  0.47000000000E+01 0. -1.
         -5    1    3    3    0  502 -0.11777920961E+02  0.14965700572E+02 -0.54865070659E+02  0.58266264632E+02  0.47000000000E+01 0.  1.
        -11    1    1    2    0    0 -0.32294861817E+02 -0.45684277764E+02 -0.41669923580E+02  0.69759543187E+02  0.00000000000E+00 0.  1.
         11    1    1    2    0    0  0.68753113033E+00  0.11580155145E+03 -0.20981529717E+03  0.23965168671E+03  0.00000000000E+00 0. -1.
<mgrwt>
<rscale>  0 0.17059348E+03</rscale>
<asrwt>0</asrwt>
<pdfrwt beam="2">  1        2 0.59037823E-01 0.18025119E+03</pdfrwt>
<pdfrwt beam="1">  1       -2 0.12242787E-01 0.18025119E+03</pdfrwt>
<totfact> 0.39129213E+03</totfact>
</mgrwt>
</event>
<event>
 8    1  0.1646661E-005  0.1258046E+03  0.7546771E-02  0.1248613E+00
         -2   -1    0    0    0  501 -0.00000000000E+00  0.00000000000E+00  0.14925734500E+03  0.14925734500E+03  0.00000000000E+00 0. -1.
          2   -1    0    0  501    0  0.00000000000E+00 -0.00000000000E+00 -0.80851489745E+02  0.80851489745E+02  0.00000000000E+00 0.  1.
         23    2    1    2    0    0  0.17132942888E+01 -0.14091397892E+02  0.48301822841E+02  0.13475851662E+03  0.12500115536E+03 0.  0.
         23    2    1    2    0    0 -0.17132942888E+01  0.14091397892E+02  0.20104032413E+02  0.95350318120E+02  0.92119531993E+02 0.  0.
          5    1    3    3  502    0  0.55885472169E+02  0.77094405374E+00  0.54304574598E+02  0.78069566263E+02  0.47000000000E+01 0. -1.
         -5    1    3    3    0  502 -0.54172177880E+02 -0.14862341946E+02 -0.60027517566E+01  0.56688950361E+02  0.47000000000E+01 0. -1.
        -11    1    4    4    0    0  0.45608121536E+01 -0.38914052955E+02  0.29728621130E+01  0.39293032894E+02  0.00000000000E+00 0. -1.
         11    1    4    4    0    0 -0.62741064424E+01  0.53005450847E+02  0.17131170300E+02  0.56057285227E+02  0.00000000000E+00 0.  1.
<mgrwt>
<rscale>  0 0.11671704E+03</rscale>
<asrwt>0</asrwt>
<pdfrwt beam="2">  1        2 0.12438691E-01 0.12580458E+03</pdfrwt>
<pdfrwt beam="1">  1       -2 0.22962669E-01 0.12580458E+03</pdfrwt>
<totfact> 0.75804278E+03</totfact>
</mgrwt>
</event>
<event>
 8    1  0.1646661E-005  0.1629929E+03  0.7546771E-02  0.1193451E+00
         -2   -1    0    0    0  501 -0.00000000000E+00  0.00000000000E+00  0.70642746048E+02  0.70642746048E+02  0.00000000000E+00 0.  1.
          2   -1    0    0  501    0  0.00000000000E+00 -0.00000000000E+00 -0.54576183879E+03  0.54576183879E+03  0.00000000000E+00 0. -1.
         23    2    1    2    0    0  0.10200218764E+03  0.23180083833E+02 -0.50783288709E+02  0.17072089807E+03  0.12499968022E+03 0.  0.
         23    2    1    2    0    0 -0.10200218764E+03 -0.23180083833E+02 -0.42433580403E+03  0.44568368677E+03  0.87357378040E+02 0.  0.
          5    1    3    3  502    0  0.96749260038E+02 -0.34301645365E+01 -0.83522602757E+02  0.12794647521E+03  0.47000000000E+01 0. -1.
         -5    1    3    3    0  502  0.52529276064E+01  0.26610248369E+02  0.32739314048E+02  0.42774422861E+02  0.47000000000E+01 0. -1.
        -11    1    4    4    0    0 -0.60181217128E+02 -0.43456970382E+02 -0.35171758703E+03  0.35946564258E+03  0.00000000000E+00 0. -1.
         11    1    4    4    0    0 -0.41820970517E+02  0.20276886549E+02 -0.72618216999E+02  0.86218044185E+02  0.00000000000E+00 0.  1.
<mgrwt>
<rscale>  0 0.15586083E+03</rscale>
<asrwt>0</asrwt>
<pdfrwt beam="2">  1        2 0.83963359E-01 0.16299289E+03</pdfrwt>
<pdfrwt beam="1">  1       -2 0.10868115E-01 0.16299289E+03</pdfrwt>
<totfact> 0.32061644E+03</totfact>
</mgrwt>
</event>
<event>
 8    1  0.1646661E-005  0.1534889E+03  0.7546771E-02  0.1204884E+00
          2   -1    0    0  501    0  0.00000000000E+00  0.00000000000E+00  0.36740269473E+03  0.36740269473E+03  0.00000000000E+00 0. -1.
         -2   -1    0    0    0  501 -0.00000000000E+00 -0.00000000000E+00 -0.56317389963E+02  0.56317389963E+02  0.00000000000E+00 0.  1.
         23    2    1    2    0    0 -0.11498715512E+02 -0.88311590818E+02  0.12333966105E+03  0.19690487337E+03  0.12501079808E+03 0.  0.
         23    2    1    2    0    0  0.11498715512E+02  0.88311590818E+02  0.18774564371E+03  0.22681521132E+03  0.90915102284E+02 0.  0.
          5    1    3    3  502    0  0.18254555543E+02 -0.11276253844E+03  0.86038450984E+02  0.14308502340E+03  0.47000000000E+01 0.  1.
         -5    1    3    3    0  502 -0.29753271055E+02  0.24450947621E+02  0.37301210069E+02  0.53819849969E+02  0.47000000000E+01 0.  1.
        -11    1    4    4    0    0  0.21588217776E+01  0.50892558288E+02  0.20050704271E+02  0.54742522251E+02  0.00000000000E+00 0.  1.
         11    1    4    4    0    0  0.93398937346E+01  0.37419032530E+02  0.16769493944E+03  0.17207268907E+03  0.00000000000E+00 0. -1.
<mgrwt>
<rscale>  0 0.14646579E+03</rscale>
<asrwt>0</asrwt>
<pdfrwt beam="1">  1        2 0.56523490E-01 0.15348895E+03</pdfrwt>
<pdfrwt beam="2">  1       -2 0.86642141E-02 0.15348895E+03</pdfrwt>
<totfact> 0.70286279E+03</totfact>
</mgrwt>
</event>
<event>
 7    1  0.1646661E-005  0.4233579E+03  0.7546771E-02  0.1035979E+00
          1   -1    0    0  501    0  0.00000000000E+00  0.00000000000E+00  0.72664485807E+02  0.72664485807E+02  0.00000000000E+00 0. -1.
         -1   -1    0    0    0  501 -0.00000000000E+00 -0.00000000000E+00 -0.61664198879E+03  0.61664198879E+03  0.00000000000E+00 0.  1.
         23    2    1    2    0    0  0.24929014217E+02  0.92641550271E+02 -0.36174828374E+03  0.39062915076E+03  0.11191693370E+03 0.  0.
          5    1    3    3  502    0  0.52222008051E+02  0.10402171589E+03 -0.26818619534E+03  0.29239285366E+03  0.47000000000E+01 0. -1.
         -5    1    3    3    0  502 -0.27292993834E+02 -0.11380165618E+02 -0.93562088402E+02  0.98236297101E+02  0.47000000000E+01 0.  1.
        -11    1    1    2    0    0 -0.77921671112E+02 -0.21039466545E+02 -0.19276211824E+03  0.20897770266E+03  0.00000000000E+00 0.  1.
         11    1    1    2    0    0  0.52992656894E+02 -0.71602083726E+02  0.10532898993E+02  0.89699621180E+02  0.00000000000E+00 0. -1.
<mgrwt>
<rscale>  0 0.42335788E+03</rscale>
<asrwt>0</asrwt>
<pdfrwt beam="1">  1        1 0.11179151E-01 0.42335788E+03</pdfrwt>
<pdfrwt beam="2">  1       -1 0.94868002E-01 0.42335788E+03</pdfrwt>
<totfact> 0.62593161E+02</totfact>
</mgrwt>
</event>
<event>
 8    1  0.1646661E-005  0.1378485E+03  0.7546771E-02  0.1227885E+00
         -2   -1    0    0    0  501 -0.00000000000E+00  0.00000000000E+00  0.72302035715E+02  0.72302035715E+02  0.00000000000E+00 0.  1.
          2   -1    0    0  501    0  0.00000000000E+00 -0.00000000000E+00 -0.20916317039E+03  0.20916317039E+03  0.00000000000E+00 0. -1.
         23    2    1    2    0    0  0.38719809899E+02 -0.43332549114E+02 -0.79016011850E+02  0.15888911267E+03  0.12500114601E+03 0.  0.
         23    2    1    2    0    0 -0.38719809899E+02  0.43332549114E+02 -0.57845122827E+02  0.12257609344E+03  0.91114800976E+02 0.  0.
          5    1    3    3  502    0  0.58610924647E+01  0.42167921016E+02 -0.96788645297E+01  0.43911916222E+02  0.47000000000E+01 0.  1.
         -5    1    3    3    0  502  0.32858717434E+02 -0.85500470130E+02 -0.69337147321E+02  0.11497719645E+03  0.47000000000E+01 0.  1.
        -11    1    4    4    0    0 -0.48685078424E+02 -0.93747283064E+01 -0.97460236851E+01  0.50528282869E+02  0.00000000000E+00 0.  1.
         11    1    4    4    0    0  0.99652685256E+01  0.52707277421E+02 -0.48099099142E+02  0.72047810572E+02  0.00000000000E+00 0. -1.
<mgrwt>
<rscale>  0 0.12971094E+03</rscale>
<asrwt>0</asrwt>
<pdfrwt beam="2">  1        2 0.32178949E-01 0.13784854E+03</pdfrwt>
<pdfrwt beam="1">  1       -2 0.11123390E-01 0.13784854E+03</pdfrwt>
<totfact> 0.85934408E+03</totfact>
</mgrwt>
</event>
<event>
 8    1  0.1646661E-005  0.1288715E+03  0.7546771E-02  0.1243313E+00
          2   -1    0    0  501    0  0.00000000000E+00  0.00000000000E+00  0.24894953919E+03  0.24894953919E+03  0.00000000000E+00 0. -1.
         -2   -1    0    0    0  501 -0.00000000000E+00 -0.00000000000E+00 -0.52761680265E+02  0.52761680265E+02  0.00000000000E+00 0.  1.
         23    2    1    2    0    0  0.94162562084E+00 -0.31326894757E+02  0.84359085548E+02  0.15402703757E+03  0.12500244795E+03 0.  0.
         23    2    1    2    0    0 -0.94162562084E+00  0.31326894757E+02  0.11182877338E+03  0.14768418189E+03  0.91228734679E+02 0.  0.
          5    1    3    3  502    0  0.19308325330E+01  0.28137026106E+02  0.89684801978E+02  0.94132215836E+02  0.47000000000E+01 0.  1.
         -5    1    3    3    0  502 -0.98920691212E+00 -0.59463920863E+02 -0.53257164302E+01  0.59894821731E+02  0.47000000000E+01 0.  1.
        -11    1    4    4    0    0  0.77025778312E+01  0.63077523408E+02  0.74668771322E+02  0.98048605677E+02  0.00000000000E+00 0. -1.
         11    1    4    4    0    0 -0.86442034521E+01 -0.31750628651E+02  0.37160002055E+02  0.49635576211E+02  0.00000000000E+00 0.  1.
<mgrwt>
<rscale>  0 0.11986902E+03</rscale>
<asrwt>0</asrwt>
<pdfrwt beam="1">  1        2 0.38299928E-01 0.12887154E+03</pdfrwt>
<pdfrwt beam="2">  1       -2 0.81171818E-02 0.12887154E+03</pdfrwt>
<totfact> 0.11614510E+04</totfact>
</mgrwt>
</event>
<event>
 8    1  0.1646661E-005  0.1381057E+03  0.7546771E-02  0.1226320E+00
          2   -1    0    0  501    0  0.00000000000E+00  0.00000000000E+00  0.45899300576E+03  0.45899300576E+03  0.00000000000E+00 0. -1.
         -2   -1    0    0    0  501 -0.00000000000E+00 -0.00000000000E+00 -0.35114158651E+02  0.35114158651E+02  0.00000000000E+00 0.  1.
         23    2    1    2    0    0  0.33783606218E+02 -0.48032775707E+02  0.18665095165E+03  0.23218907078E+03  0.12499882897E+03 0.  0.
         23    2    1    2    0    0 -0.33783606218E+02  0.48032775707E+02  0.23722789545E+03  0.26191809363E+03  0.94210051478E+02 0.  0.
          5    1    3    3  502    0 -0.34582535464E+02 -0.10543357142E+02  0.13178109643E+03  0.13673134796E+03  0.47000000000E+01 0.  1.
         -5    1    3    3    0  502  0.68366141681E+02 -0.37489418565E+02  0.54869855222E+02  0.95457722814E+02  0.47000000000E+01 0.  1.
        -11    1    4    4    0    0  0.49525052153E+01  0.42395321585E+02  0.20985685563E+03  0.21415366085E+03  0.00000000000E+00 0. -1.
         11    1    4    4    0    0 -0.38736111433E+02  0.56374541218E+01  0.27371039819E+02  0.47764432779E+02  0.00000000000E+00 0.  1.
<mgrwt>
<rscale>  0 0.13076838E+03</rscale>
<asrwt>0</asrwt>
<pdfrwt beam="1">  1        2 0.70614304E-01 0.13810571E+03</pdfrwt>
<pdfrwt beam="2">  1       -2 0.54021786E-02 0.13810571E+03</pdfrwt>
<totfact> 0.11327694E+04</totfact>
</mgrwt>
</event>
<event>
 8    1  0.1646661E-005  0.1935060E+03  0.7546771E-02  0.1159922E+00
         -1   -1    0    0    0  501 -0.00000000000E+00  0.00000000000E+00  0.71147814034E+03  0.71147814034E+03  0.00000000000E+00 0.  1.
          1   -1    0    0  501    0  0.00000000000E+00 -0.00000000000E+00 -0.63228050798E+02  0.63228050798E+02  0.00000000000E+00 0. -1.
         23    2    1    2    0    0 -0.13939194499E+03  0.48873226831E+02  0.53064119602E+03  0.56482266543E+03  0.12500343134E+03 0.  0.
         23    2    1    2    0    0  0.13939194499E+03 -0.48873226831E+02  0.11760889353E+03  0.20988352571E+03  0.91654437417E+02 0.  0.
          5    1    3    3  502    0  0.82628048039E+01  0.14820282843E+01 -0.21875881452E+01  0.98664022296E+01  0.47000000000E+01 0.  1.
         -5    1    3    3    0  502 -0.14765474979E+03  0.47391198547E+02  0.53282878416E+03  0.55495626320E+03  0.47000000000E+01 0.  1.
        -11    1    4    4    0    0  0.82024270579E+02 -0.22546195236E+02  0.11955884332E+03  0.14673318949E+03  0.00000000000E+00 0.  1.
         11    1    4    4    0    0  0.57367674409E+02 -0.26327031596E+02 -0.19499497897E+01  0.63150336214E+02  0.00000000000E+00 0. -1.
<mgrwt>
<rscale>  0 0.18838930E+03</rscale>
<asrwt>0</asrwt>
<pdfrwt beam="2">  1        1 0.97273929E-02 0.19350598E+03</pdfrwt>
<pdfrwt beam="1">  1       -1 0.10945817E+00 0.19350598E+03</pdfrwt>
<totfact> 0.54617741E+02</totfact>
</mgrwt>
</event>
<event>
 8    1  0.1646661E-005  0.1629251E+03  0.7546771E-02  0.1193024E+00
         -2   -1    0    0    0  501 -0.00000000000E+00  0.00000000000E+00  0.29295847168E+02  0.29295847168E+02  0.00000000000E+00 0.  1.
          2   -1    0    0  501    0  0.00000000000E+00 -0.00000000000E+00 -0.80236447833E+03  0.80236447833E+03  0.00000000000E+00 0. -1.
         23    2    1    2    0    0 -0.82118769779E+02  0.64616413947E+02 -0.33629858198E+03  0.37368614462E+03  0.12500330051E+03 0.  0.
         23    2    1    2    0    0  0.82118769779E+02 -0.64616413947E+02 -0.43677004918E+03  0.45797418088E+03  0.89741301456E+02 0.  0.
          5    1    3    3  502    0 -0.32917210404E+01 -0.29509060537E+02 -0.13122460242E+03  0.13462394424E+03  0.47000000000E+01 0.  1.
         -5    1    3    3    0  502 -0.78827048739E+02  0.94125474484E+02 -0.20507397956E+03  0.23906220038E+03  0.47000000000E+01 0.  1.
        -11    1    4    4    0    0  0.76248585153E+02 -0.97170947627E+01 -0.31547711174E+03  0.32470613899E+03  0.00000000000E+00 0. -1.
         11    1    4    4    0    0  0.58701846267E+01 -0.54899319184E+02 -0.12129293745E+03  0.13326804189E+03  0.00000000000E+00 0.  1.
<mgrwt>
<rscale>  0 0.15622696E+03</rscale>
<asrwt>0</asrwt>
<pdfrwt beam="2">  1        2 0.12344068E+00 0.16292513E+03</pdfrwt>
<pdfrwt beam="1">  1       -2 0.45070537E-02 0.16292513E+03</pdfrwt>
<totfact> 0.78904599E+03</totfact>
</mgrwt>
</event>
<event>
 8    1  0.1646661E-005  0.1269865E+03  0.7546771E-02  0.1247062E+00
          2   -1    0    0  501    0  0.00000000000E+00  0.00000000000E+00  0.23588790410E+03  0.23588790410E+03  0.00000000000E+00 0. -1.
         -2   -1    0    0    0  501 -0.00000000000E+00 -0.00000000000E+00 -0.53415472092E+02  0.53415472092E+02  0.00000000000E+00 0.  1.
         23    2    1    2    0    0 -0.16484922247E+02 -0.15068083447E+02  0.77650201197E+02  0.14884600664E+03  0.12500712038E+03 0.  0.
         23    2    1    2    0    0  0.16484922247E+02  0.15068083447E+02  0.10482223081E+03  0.14045736955E+03  0.90784210019E+02 0.  0.
          5    1    3    3  502    0  0.28208250499E+02 -0.19058542398E+02 -0.21065814164E+02  0.40308708252E+02  0.47000000000E+01 0.  1.
         -5    1    3    3    0  502 -0.44693172746E+02  0.39904589509E+01  0.98716015361E+02  0.10853729839E+03  0.47000000000E+01 0.  1.
        -11    1    4    4    0    0  0.44910806916E+02 -0.18705371202E+02  0.46370972577E+02  0.67209661415E+02  0.00000000000E+00 0.  1.
         11    1    4    4    0    0 -0.28425884670E+02  0.33773454649E+02  0.58451258234E+02  0.73247708137E+02  0.00000000000E+00 0. -1.
<mgrwt>
<rscale>  0 0.11762801E+03</rscale>
<asrwt>0</asrwt>
<pdfrwt beam="1">  1        2 0.36290446E-01 0.12698653E+03</pdfrwt>
<pdfrwt beam="2">  1       -2 0.82177651E-02 0.12698653E+03</pdfrwt>
<totfact> 0.12054390E+04</totfact>
</mgrwt>
</event>
<event>
 8    1  0.1646661E-005  0.1251093E+03  0.7546771E-02  0.1243226E+00
          1   -1    0    0  501    0  0.00000000000E+00  0.00000000000E+00  0.22049359551E+03  0.22049359551E+03  0.00000000000E+00 0. -1.
         -1   -1    0    0    0  501 -0.00000000000E+00 -0.00000000000E+00 -0.67078638548E+02  0.67078638548E+02  0.00000000000E+00 0.  1.
         23    2    1    2    0    0 -0.50164515453E+02 -0.19365827113E+02  0.37169993169E+02  0.13051414253E+03  0.11296379569E+03 0.  0.
         23    2    1    2    0    0  0.50164515453E+02  0.19365827113E+02  0.11624496380E+03  0.15705809154E+03  0.90900157526E+02 0.  0.
          5    1    3    3  502    0 -0.86614003091E+02 -0.12916718683E+02  0.23692906120E+02  0.90842010949E+02  0.47000000000E+01 0. -1.
         -5    1    3    3    0  502  0.36449487637E+02 -0.64491084296E+01  0.13477087049E+02  0.39672131577E+02  0.47000000000E+01 0.  1.
        -11    1    4    4    0    0  0.28064376172E+02  0.14240682590E+02 -0.65835881778E+01  0.32151981025E+02  0.00000000000E+00 0.  1.
         11    1    4    4    0    0  0.22100139281E+02  0.51251445224E+01  0.12282855197E+03  0.12490611051E+03  0.00000000000E+00 0. -1.
<mgrwt>
<rscale>  0 0.11992168E+03</rscale>
<asrwt>0</asrwt>
<pdfrwt beam="1">  1        1 0.33922091E-01 0.12510928E+03</pdfrwt>
<pdfrwt beam="2">  1       -1 0.10319791E-01 0.12510928E+03</pdfrwt>
<totfact> 0.70990676E+03</totfact>
</mgrwt>
</event>
<event>
 8    1  0.1646661E-005  0.2632883E+03  0.7546771E-02  0.1107378E+00
          4   -1    0    0  501    0  0.00000000000E+00  0.00000000000E+00  0.20634324469E+04  0.20634324469E+04  0.00000000000E+00 0. -1.
         -4   -1    0    0    0  501 -0.00000000000E+00 -0.00000000000E+00 -0.33569217842E+02  0.33569217842E+02  0.00000000000E+00 0.  1.
         23    2    1    2    0    0 -0.10191234310E+03  0.20814482081E+03  0.80010039868E+03  0.84230718259E+03  0.12494138533E+03 0.  0.
         23    2    1    2    0    0  0.10191234310E+03 -0.20814482081E+03  0.12297628304E+04  0.12546944822E+04  0.90726139894E+02 0.  0.
          5    1    3    3  502    0 -0.41255524891E+02 -0.23762265812E+01  0.17618788828E+03  0.18103018191E+03  0.47000000000E+01 0. -1.
         -5    1    3    3    0  502 -0.60656818207E+02  0.21052104739E+03  0.62391251040E+03  0.66127700068E+03  0.47000000000E+01 0. -1.
        -11    1    4    4    0    0  0.43791874598E+02 -0.25380749574E+02  0.15804566074E+03  0.16595282947E+03  0.00000000000E+00 0.  1.
         11    1    4    4    0    0  0.58120468500E+02 -0.18276407124E+03  0.10717171697E+04  0.10887416527E+04  0.00000000000E+00 0. -1.
<mgrwt>
<rscale>  0 0.25961006E+03</rscale>
<asrwt>0</asrwt>
<pdfrwt beam="1">  1        4 0.31745105E+00 0.26328832E+03</pdfrwt>
<pdfrwt beam="2">  1       -4 0.51644967E-02 0.26328832E+03</pdfrwt>
<totfact> 0.11883479E+01</totfact>
</mgrwt>
</event>
<event>
 8    1  0.1646661E-005  0.1577206E+03  0.7546771E-02  0.1199105E+00
         -1   -1    0    0    0  501 -0.00000000000E+00  0.00000000000E+00  0.98160969828E+03  0.98160969828E+03  0.00000000000E+00 0.  1.
          1   -1    0    0  501    0  0.00000000000E+00 -0.00000000000E+00 -0.21534648504E+02  0.21534648504E+02  0.00000000000E+00 0. -1.
         23    2    1    2    0    0 -0.26631629370E+02 -0.92418462157E+02  0.53619258002E+03  0.55890810126E+03  0.12500146779E+03 0.  0.
         23    2    1    2    0    0  0.26631629370E+02  0.92418462157E+02  0.42388246976E+03  0.44423624553E+03  0.91755533048E+02 0.  0.
          5    1    3    3  502    0 -0.19087415762E+02 -0.11065272182E+03  0.52246200469E+03  0.53441275305E+03  0.47000000000E+01 0. -1.
         -5    1    3    3    0  502 -0.75442136079E+01  0.18234259666E+02  0.13730575336E+02  0.24495348203E+02  0.47000000000E+01 0. -1.
        -11    1    4    4    0    0 -0.29319042453E+02  0.58036229052E+02  0.25147932309E+03  0.25974922536E+03  0.00000000000E+00 0.  1.
         11    1    4    4    0    0  0.55950671823E+02  0.34382233106E+02  0.17240314666E+03  0.18448702017E+03  0.00000000000E+00 0. -1.
<mgrwt>
<rscale>  0 0.15111908E+03</rscale>
<asrwt>0</asrwt>
<pdfrwt beam="2">  1        1 0.33130236E-02 0.15772058E+03</pdfrwt>
<pdfrwt beam="1">  1       -1 0.15101684E+00 0.15772058E+03</pdfrwt>
<totfact> 0.10844376E+03</totfact>
</mgrwt>
</event>
<event>
 8    1  0.1646661E-005  0.1878834E+03  0.7546771E-02  0.1165225E+00
          1   -1    0    0  501    0  0.00000000000E+00  0.00000000000E+00  0.61876957664E+02  0.61876957664E+02  0.00000000000E+00 0. -1.
         -1   -1    0    0    0  501 -0.00000000000E+00 -0.00000000000E+00 -0.54959290061E+03  0.54959290061E+03  0.00000000000E+00 0.  1.
         23    2    1    2    0    0  0.57739203544E+02  0.12783812630E+03 -0.33686169321E+03  0.38571489942E+03  0.12499512439E+03 0.  0.
         23    2    1    2    0    0 -0.57739203544E+02 -0.12783812630E+03 -0.15085424974E+03  0.22575495886E+03  0.92368255491E+02 0.  0.
          5    1    3    3  502    0  0.65967035680E+02  0.48292870226E+02 -0.26749177307E+03  0.27974593790E+03  0.47000000000E+01 0. -1.
         -5    1    3    3    0  502 -0.82278321366E+01  0.79545256074E+02 -0.69369920136E+02  0.10596896152E+03  0.47000000000E+01 0. -1.
        -11    1    4    4    0    0 -0.44115205413E+02 -0.87358218529E+02 -0.37817187812E+02  0.10491782207E+03  0.00000000000E+00 0. -1.
         11    1    4    4    0    0 -0.13623998131E+02 -0.40479907771E+02 -0.11303706193E+03  0.12083713679E+03  0.00000000000E+00 0.  1.
<mgrwt>
<rscale>  0 0.18268945E+03</rscale>
<asrwt>0</asrwt>
<pdfrwt beam="1">  1        1 0.95195316E-02 0.18788343E+03</pdfrwt>
<pdfrwt beam="2">  1       -1 0.84552757E-01 0.18788343E+03</pdfrwt>
<totfact> 0.98896625E+02</totfact>
</mgrwt>
</event>
<event>
 8    1  0.1646661E-005  0.1461791E+03  0.7546771E-02  0.1214476E+00
          2   -1    0    0  501    0  0.00000000000E+00  0.00000000000E+00  0.42970262109E+03  0.42970262109E+03  0.00000000000E+00 0. -1.
         -2   -1    0    0    0  501 -0.00000000000E+00 -0.00000000000E+00 -0.41232024472E+02  0.41232024472E+02  0.00000000000E+00 0.  1.
         23    2    1    2    0    0 -0.67597832650E+02 -0.34254115459E+02  0.21197397650E+03  0.25749039085E+03  0.12500209303E+03 0.  0.
         23    2    1    2    0    0  0.67597832650E+02  0.34254115459E+02  0.17649662012E+03  0.21344425471E+03  0.93083734082E+02 0.  0.
          5    1    3    3  502    0 -0.78361514026E+01  0.35275570650E+02  0.13584490606E+02  0.38889581362E+02  0.47000000000E+01 0.  1.
         -5    1    3    3    0  502 -0.59761681247E+02 -0.69529686109E+02  0.19838948589E+03  0.21860080949E+03  0.47000000000E+01 0.  1.
        -11    1    4    4    0    0  0.40401737784E+02  0.24685348304E+02  0.15399459928E+02  0.49787651109E+02  0.00000000000E+00 0.  1.
         11    1    4    4    0    0  0.27196094866E+02  0.95687671554E+01  0.16109716019E+03  0.16365660360E+03  0.00000000000E+00 0. -1.
<mgrwt>
<rscale>  0 0.13915127E+03</rscale>
<asrwt>0</asrwt>
<pdfrwt beam="1">  1        2 0.66108093E-01 0.14617912E+03</pdfrwt>
<pdfrwt beam="2">  1       -2 0.63433887E-02 0.14617912E+03</pdfrwt>
<totfact> 0.95744419E+03</totfact>
</mgrwt>
</event>
<event>
 8    1  0.1646661E-005  0.1270943E+03  0.7546771E-02  0.1244194E+00
          2   -1    0    0  501    0  0.00000000000E+00  0.00000000000E+00  0.28450456465E+03  0.28450456465E+03  0.00000000000E+00 0. -1.
         -2   -1    0    0    0  501 -0.00000000000E+00 -0.00000000000E+00 -0.65707983354E+02  0.65707983354E+02  0.00000000000E+00 0.  1.
         23    2    1    2    0    0 -0.64002879127E+01 -0.22033308815E+02  0.20592842717E+02  0.12875184483E+03  0.12500616782E+03 0.  0.
         23    2    1    2    0    0  0.64002879127E+01  0.22033308815E+02  0.19820373858E+03  0.22146070317E+03  0.96092094792E+02 0.  0.
          5    1    3    3  502    0 -0.44751683031E+02  0.72679037805E+01  0.53397239512E+02  0.70206059190E+02  0.47000000000E+01 0. -1.
         -5    1    3    3    0  502  0.38351395119E+02 -0.29301212595E+02 -0.32804396794E+02  0.58545785639E+02  0.47000000000E+01 0. -1.
        -11    1    4    4    0    0  0.10973452111E+02 -0.34498333638E+02  0.42949868577E+02  0.56171548722E+02  0.00000000000E+00 0. -1.
         11    1    4    4    0    0 -0.45731641986E+01  0.56531642453E+02  0.15525387000E+03  0.16528915445E+03  0.00000000000E+00 0.  1.
<mgrwt>
<rscale>  0 0.11933740E+03</rscale>
<asrwt>0</asrwt>
<pdfrwt beam="1">  1        2 0.43769932E-01 0.12709434E+03</pdfrwt>
<pdfrwt beam="2">  1       -2 0.10108921E-01 0.12709434E+03</pdfrwt>
<totfact> 0.71571963E+03</totfact>
</mgrwt>
</event>
<event>
 8    1  0.1646661E-005  0.1274837E+03  0.7546771E-02  0.1246122E+00
          2   -1    0    0  501    0  0.00000000000E+00  0.00000000000E+00  0.55356649510E+03  0.55356649510E+03  0.00000000000E+00 0. -1.
         -2   -1    0    0    0  501 -0.00000000000E+00 -0.00000000000E+00 -0.36602386195E+02  0.36602386195E+02  0.00000000000E+00 0.  1.
         23    2    1    2    0    0 -0.17064289697E+02  0.18346158809E+02  0.98122786695E+02  0.16087315680E+03  0.12499727910E+03 0.  0.
         23    2    1    2    0    0  0.17064289697E+02 -0.18346158809E+02  0.41884132221E+03  0.42929572450E+03  0.90768906327E+02 0.  0.
          5    1    3    3  502    0 -0.36491974653E+02 -0.37504907699E+02  0.85301394972E+02  0.10018333344E+03  0.47000000000E+01 0. -1.
         -5    1    3    3    0  502  0.19427684957E+02  0.55851066508E+02  0.12821391722E+02  0.60689823352E+02  0.47000000000E+01 0. -1.
        -11    1    4    4    0    0  0.54222544412E+02 -0.13307445611E+02  0.27778489323E+03  0.28334011248E+03  0.00000000000E+00 0. -1.
         11    1    4    4    0    0 -0.37158254715E+02 -0.50387131974E+01  0.14105642898E+03  0.14595561203E+03  0.00000000000E+00 0.  1.
<mgrwt>
<rscale>  0 0.11818480E+03</rscale>
<asrwt>0</asrwt>
<pdfrwt beam="1">  1        2 0.85164070E-01 0.12748369E+03</pdfrwt>
<pdfrwt beam="2">  1       -2 0.56311368E-02 0.12748369E+03</pdfrwt>
<totfact> 0.86125459E+03</totfact>
</mgrwt>
</event>
<event>
 8    1  0.1646661E-005  0.1393743E+03  0.7546771E-02  0.1214752E+00
          3   -1    0    0  501    0  0.00000000000E+00  0.00000000000E+00  0.38488193018E+03  0.38488193018E+03  0.00000000000E+00 0. -1.
         -3   -1    0    0    0  501 -0.00000000000E+00 -0.00000000000E+00 -0.50421152394E+02  0.50421152394E+02  0.00000000000E+00 0.  1.
         23    2    1    2    0    0 -0.48176208359E+02  0.31788038783E+02  0.18923879788E+03  0.23402064015E+03  0.12499164346E+03 0.  0.
         23    2    1    2    0    0  0.48176208359E+02 -0.31788038783E+02  0.14522197991E+03  0.20128244242E+03  0.12686123015E+03 0.  0.
          5    1    3    3  502    0 -0.29510859734E+02  0.73622668594E+02  0.68889776771E+02  0.10516215820E+03  0.47000000000E+01 0.  1.
         -5    1    3    3    0  502 -0.18665348626E+02 -0.41834629811E+02  0.12034902111E+03  0.12885848196E+03  0.47000000000E+01 0.  1.
        -11    1    4    4    0    0  0.42491599085E+02 -0.12386511340E+01  0.16094003702E+03  0.16645950188E+03  0.00000000000E+00 0. -1.
         11    1    4    4    0    0  0.56846092741E+01 -0.30549387649E+02 -0.15718057114E+02  0.34822940539E+02  0.00000000000E+00 0.  1.
<mgrwt>
<rscale>  0 0.13894746E+03</rscale>
<asrwt>0</asrwt>
<pdfrwt beam="1">  1        3 0.59212603E-01 0.13937431E+03</pdfrwt>
<pdfrwt beam="2">  1       -3 0.77571006E-02 0.13937431E+03</pdfrwt>
<totfact> 0.73741715E+02</totfact>
</mgrwt>
</event>
<event>
 8    1  0.1646661E-005  0.1588288E+03  0.7546771E-02  0.1197844E+00
         -3   -1    0    0    0  501 -0.00000000000E+00  0.00000000000E+00  0.12371762178E+03  0.12371762178E+03  0.00000000000E+00 0.  1.
          3   -1    0    0  501    0  0.00000000000E+00 -0.00000000000E+00 -0.18865059137E+03  0.18865059137E+03  0.00000000000E+00 0. -1.
         23    2    1    2    0    0  0.89719304887E+02 -0.37441338156E+02  0.97897945128E+01  0.15913024467E+03  0.12559931217E+03 0.  0.
         23    2    1    2    0    0 -0.89719304887E+02  0.37441338156E+02 -0.74722764100E+02  0.15323796849E+03  0.91907431905E+02 0.  0.
          5    1    3    3  502    0  0.36912557810E+02 -0.64994227957E+02 -0.36723656587E+02  0.83411651134E+02  0.47000000000E+01 0. -1.
         -5    1    3    3    0  502  0.52806747077E+02  0.27552889800E+02  0.46513451100E+02  0.75718593532E+02  0.47000000000E+01 0.  1.
        -11    1    4    4    0    0  0.11349411083E+02  0.30351260641E+02 -0.20155236536E+02  0.38160735242E+02  0.00000000000E+00 0.  1.
         11    1    4    4    0    0 -0.10106871597E+03  0.70900775155E+01 -0.54567527565E+02  0.11507723325E+03  0.00000000000E+00 0. -1.
<mgrwt>
<rscale>  0 0.15215937E+03</rscale>
<asrwt>0</asrwt>
<pdfrwt beam="2">  1        3 0.29023168E-01 0.15882882E+03</pdfrwt>
<pdfrwt beam="1">  1       -3 0.19033480E-01 0.15882882E+03</pdfrwt>
<totfact> 0.66231757E+02</totfact>
</mgrwt>
</event>
<event>
 8    1  0.1646661E-005  0.1562595E+03  0.7546771E-02  0.1203958E+00
         -1   -1    0    0    0  501 -0.00000000000E+00  0.00000000000E+00  0.21809863281E+02  0.21809863281E+02  0.00000000000E+00 0.  1.
          1   -1    0    0  501    0  0.00000000000E+00 -0.00000000000E+00 -0.90784903448E+03  0.90784903448E+03  0.00000000000E+00 0. -1.
         23    2    1    2    0    0 -0.87635648419E+02  0.33262874820E+02 -0.43840749964E+03  0.46542258356E+03  0.12502247732E+03 0.  0.
         23    2    1    2    0    0  0.87635648419E+02 -0.33262874820E+02 -0.44763167156E+03  0.46423631420E+03  0.79717101816E+02 0.  0.
          5    1    3    3  502    0 -0.69217524433E+02  0.79789665995E+02 -0.28419577618E+03  0.30322728388E+03  0.47000000000E+01 0.  1.
         -5    1    3    3    0  502 -0.18418123986E+02 -0.46526791175E+02 -0.15421172345E+03  0.16219529968E+03  0.47000000000E+01 0.  1.
        -11    1    4    4    0    0  0.69132445355E+02 -0.25844929617E+02 -0.43365312259E+03  0.43988894749E+03  0.00000000000E+00 0. -1.
         11    1    4    4    0    0  0.18503203064E+02 -0.74179452025E+01 -0.13978548975E+02  0.24347366718E+02  0.00000000000E+00 0.  1.
<mgrwt>
<rscale>  0 0.14719908E+03</rscale>
<asrwt>0</asrwt>
<pdfrwt beam="2">  1        1 0.13966907E+00 0.15625955E+03</pdfrwt>
<pdfrwt beam="1">  1       -1 0.33553638E-02 0.15625955E+03</pdfrwt>
<totfact> 0.58812600E+03</totfact>
</mgrwt>
</event>
<event>
 8    1  0.1646661E-005  0.1260415E+03  0.7546771E-02  0.1248197E+00
          1   -1    0    0  501    0  0.00000000000E+00  0.00000000000E+00  0.64490748490E+03  0.64490748490E+03  0.00000000000E+00 0. -1.
         -1   -1    0    0    0  501 -0.00000000000E+00 -0.00000000000E+00 -0.19111694509E+02  0.19111694509E+02  0.00000000000E+00 0.  1.
         23    2    1    2    0    0 -0.51747333304E+01  0.15343204669E+02  0.30877626990E+03  0.33351047889E+03  0.12499705150E+03 0.  0.
         23    2    1    2    0    0  0.51747333304E+01 -0.15343204669E+02  0.31701952049E+03  0.33050870052E+03  0.92045819831E+02 0.  0.
          5    1    3    3  502    0  0.44771596072E+02  0.11605033725E+02  0.44041471323E+02  0.64038377704E+02  0.47000000000E+01 0.  1.
         -5    1    3    3    0  502 -0.49946329402E+02  0.37381709440E+01  0.26473479857E+03  0.26947210119E+03  0.47000000000E+01 0.  1.
        -11    1    4    4    0    0 -0.37914704610E+02  0.14978501892E+02  0.13985938268E+03  0.14567953620E+03  0.00000000000E+00 0.  1.
         11    1    4    4    0    0  0.43089437940E+02 -0.30321706561E+02  0.17716013781E+03  0.18482916431E+03  0.00000000000E+00 0. -1.
<mgrwt>
<rscale>  0 0.11696089E+03</rscale>
<asrwt>0</asrwt>
<pdfrwt beam="1">  1        1 0.99216519E-01 0.12604148E+03</pdfrwt>
<pdfrwt beam="2">  1       -1 0.29402612E-02 0.12604148E+03</pdfrwt>
<totfact> 0.11708068E+04</totfact>
</mgrwt>
</event>
<event>
 8    1  0.1646661E-005  0.1757999E+03  0.7546771E-02  0.1178102E+00
         -1   -1    0    0    0  501 -0.00000000000E+00  0.00000000000E+00  0.11829922040E+03  0.11829922040E+03  0.00000000000E+00 0.  1.
          1   -1    0    0  501    0  0.00000000000E+00 -0.00000000000E+00 -0.23649811925E+03  0.23649811925E+03  0.00000000000E+00 0. -1.
         23    2    1    2    0    0  0.11187772622E+03  0.52578849060E+02 -0.96131661044E+02  0.20036690789E+03  0.12499776209E+03 0.  0.
         23    2    1    2    0    0 -0.11187772622E+03 -0.52578849060E+02 -0.22067237809E+02  0.15443043176E+03  0.89892348270E+02 0.  0.
          5    1    3    3  502    0  0.84449255693E+02  0.41613636914E+02  0.55021359397E+01  0.94423170166E+02  0.47000000000E+01 0.  1.
         -5    1    3    3    0  502  0.27428470525E+02  0.10965212145E+02 -0.10163379698E+03  0.10594373772E+03  0.47000000000E+01 0.  1.
        -11    1    4    4    0    0  0.97541835384E+01 -0.23953056526E+02  0.55689976330E+01  0.26455750756E+02  0.00000000000E+00 0.  1.
         11    1    4    4    0    0 -0.12163190976E+03 -0.28625792534E+02 -0.27636235442E+02  0.12797468101E+03  0.00000000000E+00 0. -1.
<mgrwt>
<rscale>  0 0.16975682E+03</rscale>
<asrwt>0</asrwt>
<pdfrwt beam="2">  1        1 0.36384325E-01 0.17579989E+03</pdfrwt>
<pdfrwt beam="1">  1       -1 0.18199881E-01 0.17579989E+03</pdfrwt>
<totfact> 0.27335848E+03</totfact>
</mgrwt>
</event>
<event>
 8    1  0.1646661E-005  0.1398152E+03  0.7546771E-02  0.1224451E+00
         -2   -1    0    0    0  501 -0.00000000000E+00  0.00000000000E+00  0.10246574281E+03  0.10246574281E+03  0.00000000000E+00 0.  1.
          2   -1    0    0  501    0  0.00000000000E+00 -0.00000000000E+00 -0.15387877590E+03  0.15387877590E+03  0.00000000000E+00 0. -1.
         23    2    1    2    0    0 -0.61598361115E+02  0.11376323751E+02 -0.25298227146E+02  0.14208548036E+03  0.12499801838E+03 0.  0.
         23    2    1    2    0    0  0.61598361115E+02 -0.11376323751E+02 -0.26114805944E+02  0.11425903836E+03  0.91920432564E+02 0.  0.
          5    1    3    3  502    0 -0.77801861704E+02  0.15938295769E+02  0.29282762750E+02  0.84774578447E+02  0.47000000000E+01 0. -1.
         -5    1    3    3    0  502  0.16203500589E+02 -0.45619720180E+01 -0.54580989896E+02  0.57310901913E+02  0.47000000000E+01 0. -1.
        -11    1    4    4    0    0  0.66736455649E+01 -0.45692415132E+02 -0.14973052821E+02  0.48544069221E+02  0.00000000000E+00 0. -1.
         11    1    4    4    0    0  0.54924715550E+02  0.34316091382E+02 -0.11141753123E+02  0.65714969137E+02  0.00000000000E+00 0.  1.
<mgrwt>
<rscale>  0 0.13204615E+03</rscale>
<asrwt>0</asrwt>
<pdfrwt beam="2">  1        2 0.23673658E-01 0.13981518E+03</pdfrwt>
<pdfrwt beam="1">  1       -2 0.15763961E-01 0.13981518E+03</pdfrwt>
<totfact> 0.68534395E+03</totfact>
</mgrwt>
</event>
<event>
 8    1  0.1646661E-005  0.1583525E+03  0.7546771E-02  0.1198272E+00
         -1   -1    0    0    0  501 -0.00000000000E+00  0.00000000000E+00  0.29014192434E+03  0.29014192434E+03  0.00000000000E+00 0.  1.
          1   -1    0    0  501    0  0.00000000000E+00 -0.00000000000E+00 -0.11022191555E+03  0.11022191555E+03  0.00000000000E+00 0. -1.
         23    2    1    2    0    0 -0.40934601166E+01 -0.97122300667E+02  0.21026089093E+03  0.26322075508E+03  0.12500410372E+03 0.  0.
         23    2    1    2    0    0  0.40934601166E+01  0.97122300667E+02 -0.30340882141E+02  0.13714308482E+03  0.91859451783E+02 0.  0.
          5    1    3    3  502    0  0.38314536961E+02 -0.98807244871E+02  0.18596086455E+03  0.21408972074E+03  0.47000000000E+01 0. -1.
         -5    1    3    3    0  502 -0.42407997077E+02  0.16849442041E+01  0.24300026379E+02  0.49131034338E+02  0.47000000000E+01 0. -1.
        -11    1    4    4    0    0  0.37095296718E+02  0.18904594745E+02  0.10495611282E+02  0.42937193635E+02  0.00000000000E+00 0.  1.
         11    1    4    4    0    0 -0.33001836601E+02  0.78217705922E+02 -0.40836493423E+02  0.94205891184E+02  0.00000000000E+00 0. -1.
<mgrwt>
<rscale>  0 0.15180565E+03</rscale>
<asrwt>0</asrwt>
<pdfrwt beam="2">  1        1 0.16957218E-01 0.15835253E+03</pdfrwt>
<pdfrwt beam="1">  1       -1 0.44637219E-01 0.15835253E+03</pdfrwt>
<totfact> 0.15787973E+03</totfact>
</mgrwt>
</event>
<event>
 8    1  0.1646661E-005  0.1477637E+03  0.7546771E-02  0.1213002E+00
          1   -1    0    0  501    0  0.00000000000E+00  0.00000000000E+00  0.10106540955E+03  0.10106540955E+03  0.00000000000E+00 0. -1.
         -1   -1    0    0    0  501 -0.00000000000E+00 -0.00000000000E+00 -0.17731269772E+03  0.17731269772E+03  0.00000000000E+00 0.  1.
         23    2    1    2    0    0 -0.23755266405E+02 -0.75116249336E+02 -0.39015371505E+02  0.15282766746E+03  0.12500933217E+03 0.  0.
         23    2    1    2    0    0  0.23755266405E+02  0.75116249336E+02 -0.37231916674E+02  0.12555043981E+03  0.90387685672E+02 0.  0.
          5    1    3    3  502    0  0.21630280770E+02 -0.74868929379E+02  0.17682196251E+02  0.80049832584E+02  0.47000000000E+01 0. -1.
         -5    1    3    3    0  502 -0.45385547175E+02 -0.24731995691E+00 -0.56697567756E+02  0.72777834874E+02  0.47000000000E+01 0. -1.
        -11    1    4    4    0    0  0.13047955020E+02  0.87538680691E+02 -0.52699185223E+02  0.10300715446E+03  0.00000000000E+00 0.  1.
         11    1    4    4    0    0  0.10707311385E+02 -0.12422431355E+02  0.15467268550E+02  0.22543285348E+02  0.00000000000E+00 0. -1.
<mgrwt>
<rscale>  0 0.14024362E+03</rscale>
<asrwt>0</asrwt>
<pdfrwt beam="1">  1        1 0.15548525E-01 0.14776365E+03</pdfrwt>
<pdfrwt beam="2">  1       -1 0.27278876E-01 0.14776365E+03</pdfrwt>
<totfact> 0.41133319E+03</totfact>
</mgrwt>
</event>
<event>
 8    1  0.1646661E-005  0.1158336E+03  0.7546771E-02  0.1262758E+00
          2   -1    0    0  501    0  0.00000000000E+00  0.00000000000E+00  0.36693648164E+03  0.36693648164E+03  0.00000000000E+00 0. -1.
         -2   -1    0    0    0  501 -0.00000000000E+00 -0.00000000000E+00 -0.28969410674E+02  0.28969410674E+02  0.00000000000E+00 0.  1.
         23    2    1    2    0    0 -0.60403653951E+01  0.87196064842E+01  0.18321588680E+03  0.21676136672E+03  0.11534691748E+03 0.  0.
         23    2    1    2    0    0  0.60403653951E+01 -0.87196064842E+01  0.15475118416E+03  0.17914452560E+03  0.89623180596E+02 0.  0.
          5    1    3    3  502    0 -0.43733340487E+02  0.44148239507E+02  0.11742213421E+03  0.13293502069E+03  0.47000000000E+01 0. -1.
         -5    1    3    3    0  502  0.37692975092E+02 -0.35428633023E+02  0.65793752591E+02  0.83826346033E+02  0.47000000000E+01 0.  1.
        -11    1    4    4    0    0  0.11363459320E+02  0.38193186825E+02  0.94798299775E+02  0.10283270573E+03  0.00000000000E+00 0. -1.
         11    1    4    4    0    0 -0.53230939253E+01 -0.46912793309E+02  0.59952884390E+02  0.76311819869E+02  0.00000000000E+00 0.  1.
<mgrwt>
<rscale>  0 0.10882690E+03</rscale>
<asrwt>0</asrwt>
<pdfrwt beam="1">  1        2 0.56451763E-01 0.11583363E+03</pdfrwt>
<pdfrwt beam="2">  1       -2 0.44568327E-02 0.11583363E+03</pdfrwt>
<totfact> 0.18916996E+04</totfact>
</mgrwt>
</event>
<event>
 8    1  0.1646661E-005  0.1364715E+03  0.7546771E-02  0.1230183E+00
         -1   -1    0    0    0  501 -0.00000000000E+00  0.00000000000E+00  0.46571763660E+03  0.46571763660E+03  0.00000000000E+00 0.  1.
          1   -1    0    0  501    0  0.00000000000E+00 -0.00000000000E+00 -0.63745098462E+02  0.63745098462E+02  0.00000000000E+00 0. -1.
         23    2    1    2    0    0 -0.47806236466E+02  0.26756935482E+02  0.40064513460E+03  0.42325050585E+03  0.12499238770E+03 0.  0.
         23    2    1    2    0    0  0.47806236466E+02 -0.26756935482E+02  0.13274035410E+01  0.10621222921E+03  0.90982997275E+02 0.  0.
          5    1    3    3  502    0 -0.44300007155E+02 -0.45262432694E+02  0.20899626325E+03  0.21843238428E+03  0.47000000000E+01 0.  1.
         -5    1    3    3    0  502 -0.35062293111E+01  0.72019368175E+02  0.19164887135E+03  0.20481812157E+03  0.47000000000E+01 0.  1.
        -11    1    4    4    0    0  0.66393584172E+02 -0.10991240000E+02  0.25422973916E+02  0.71939161648E+02  0.00000000000E+00 0.  1.
         11    1    4    4    0    0 -0.18587347705E+02 -0.15765695481E+02 -0.24095570375E+02  0.34273067566E+02  0.00000000000E+00 0. -1.
<mgrwt>
<rscale>  0 0.12817892E+03</rscale>
<asrwt>0</asrwt>
<pdfrwt beam="2">  1        1 0.98069385E-02 0.13647149E+03</pdfrwt>
<pdfrwt beam="1">  1       -1 0.71648865E-01 0.13647149E+03</pdfrwt>
<totfact> 0.13212163E+03</totfact>
</mgrwt>
</event>
<event>
 8    1  0.1646661E-005  0.1779410E+03  0.7546771E-02  0.1175587E+00
         -1   -1    0    0    0  501 -0.00000000000E+00  0.00000000000E+00  0.36452052582E+02  0.36452052582E+02  0.00000000000E+00 0.  1.
          1   -1    0    0  501    0  0.00000000000E+00 -0.00000000000E+00 -0.76718869581E+03  0.76718869581E+03  0.00000000000E+00 0. -1.
         23    2    1    2    0    0  0.12653286508E+03  0.54684393624E+01 -0.36730064709E+03  0.40813325857E+03  0.12499008610E+03 0.  0.
         23    2    1    2    0    0 -0.12653286508E+03 -0.54684393624E+01 -0.36343599613E+03  0.39550748982E+03  0.91104233958E+02 0.  0.
          5    1    3    3  502    0  0.55746503602E+02 -0.58327962295E+02 -0.19688501741E+03  0.21282768601E+03  0.47000000000E+01 0.  1.
         -5    1    3    3    0  502  0.70786361474E+02  0.63796401657E+02 -0.17041562968E+03  0.19530557256E+03  0.47000000000E+01 0.  1.
        -11    1    4    4    0    0 -0.99782967155E+00 -0.24643475402E+02 -0.10090445745E+03  0.10387495404E+03  0.00000000000E+00 0. -1.
         11    1    4    4    0    0 -0.12553503540E+03  0.19175036040E+02 -0.26253153869E+03  0.29163253578E+03  0.00000000000E+00 0.  1.
<mgrwt>
<rscale>  0 0.17218609E+03</rscale>
<asrwt>0</asrwt>
<pdfrwt beam="2">  1        1 0.11802904E+00 0.17794098E+03</pdfrwt>
<pdfrwt beam="1">  1       -1 0.56080078E-02 0.17794098E+03</pdfrwt>
<totfact> 0.35862633E+03</totfact>
</mgrwt>
</event>
<event>
 8    1  0.1646661E-005  0.1327412E+03  0.7546771E-02  0.1236472E+00
         -1   -1    0    0    0  501 -0.00000000000E+00  0.00000000000E+00  0.67312819613E+03  0.67312819613E+03  0.00000000000E+00 0.  1.
          1   -1    0    0  501    0  0.00000000000E+00 -0.00000000000E+00 -0.23970813976E+02  0.23970813976E+02  0.00000000000E+00 0. -1.
         23    2    1    2    0    0  0.59380876142E+01  0.44269276108E+02  0.49558604540E+03  0.51305530835E+03  0.12500076533E+03 0.  0.
         23    2    1    2    0    0 -0.59380876142E+01 -0.44269276108E+02  0.15357133675E+03  0.18404370176E+03  0.91065355618E+02 0.  0.
          5    1    3    3  502    0 -0.40638474638E+02  0.68233424555E+02  0.27418383306E+03  0.28549281980E+03  0.47000000000E+01 0.  1.
         -5    1    3    3    0  502  0.46576562252E+02 -0.23964148447E+02  0.22140221234E+03  0.22756248855E+03  0.47000000000E+01 0.  1.
        -11    1    4    4    0    0  0.13179684175E+02 -0.63502937464E+02  0.13870162010E+03  0.15311585992E+03  0.00000000000E+00 0. -1.
         11    1    4    4    0    0 -0.19117771790E+02  0.19233661356E+02  0.14869716651E+02  0.30927841836E+02  0.00000000000E+00 0.  1.
<mgrwt>
<rscale>  0 0.12410671E+03</rscale>
<asrwt>0</asrwt>
<pdfrwt beam="2">  1        1 0.36878181E-02 0.13274118E+03</pdfrwt>
<pdfrwt beam="1">  1       -1 0.10355817E+00 0.13274118E+03</pdfrwt>
<totfact> 0.22960918E+03</totfact>
</mgrwt>
</event>
<event>
 8    1  0.1646661E-005  0.1738902E+03  0.7546771E-02  0.1179511E+00
          2   -1    0    0  501    0  0.00000000000E+00  0.00000000000E+00  0.65993337308E+03  0.65993337308E+03  0.00000000000E+00 0. -1.
         -2   -1    0    0    0  501 -0.00000000000E+00 -0.00000000000E+00 -0.68588982590E+02  0.68588982590E+02  0.00000000000E+00 0.  1.
         23    2    1    2    0    0  0.11914031632E+03  0.20475668183E+02  0.73917393238E+02  0.18894864106E+03  0.12499655985E+03 0.  0.
         23    2    1    2    0    0 -0.11914031632E+03 -0.20475668183E+02  0.51742699725E+03  0.53957371461E+03  0.93783943456E+02 0.  0.
          5    1    3    3  502    0  0.74935611093E+02 -0.49734704601E+02  0.29796793487E+02  0.94862139728E+02  0.47000000000E+01 0.  1.
         -5    1    3    3    0  502  0.44204705228E+02  0.70210372785E+02  0.44120599752E+02  0.94086501334E+02  0.47000000000E+01 0.  1.
        -11    1    4    4    0    0 -0.45817341376E+02 -0.31367843466E+02  0.89881334096E+02  0.10564953665E+03  0.00000000000E+00 0.  1.
         11    1    4    4    0    0 -0.73322974945E+02  0.10892175283E+02  0.42754566316E+03  0.43392417796E+03  0.00000000000E+00 0. -1.
<mgrwt>
<rscale>  0 0.16841449E+03</rscale>
<asrwt>0</asrwt>
<pdfrwt beam="1">  1        2 0.10152821E+00 0.17389022E+03</pdfrwt>
<pdfrwt beam="2">  1       -2 0.10552152E-01 0.17389022E+03</pdfrwt>
<totfact> 0.27068488E+03</totfact>
</mgrwt>
</event>
<event>
 8    1  0.1646661E-005  0.1343507E+03  0.7546771E-02  0.1234137E+00
          1   -1    0    0  501    0  0.00000000000E+00  0.00000000000E+00  0.36119340328E+03  0.36119340328E+03  0.00000000000E+00 0. -1.
         -1   -1    0    0    0  501 -0.00000000000E+00 -0.00000000000E+00 -0.10752120395E+03  0.10752120395E+03  0.00000000000E+00 0.  1.
         23    2    1    2    0    0  0.38349958444E+02 -0.30889429926E+02 -0.53685066973E+02  0.14467963142E+03  0.12500093254E+03 0.  0.
         23    2    1    2    0    0 -0.38349958444E+02  0.30889429926E+02  0.30735726630E+03  0.32403497581E+03  0.90029440780E+02 0.  0.
          5    1    3    3  502    0  0.51890329746E+02  0.31973221258E+02 -0.55475107720E+00  0.61133386521E+02  0.47000000000E+01 0.  1.
         -5    1    3    3    0  502 -0.13540371302E+02 -0.62862651184E+02 -0.53130315896E+02  0.83546244895E+02  0.47000000000E+01 0.  1.
        -11    1    4    4    0    0  0.15251319200E+02  0.36868126886E+01  0.60920466511E+01  0.16831766322E+02  0.00000000000E+00 0.  1.
         11    1    4    4    0    0 -0.53601277644E+02  0.27202617238E+02  0.30126521965E+03  0.30720320949E+03  0.00000000000E+00 0. -1.
<mgrwt>
<rscale>  0 0.12559848E+03</rscale>
<asrwt>0</asrwt>
<pdfrwt beam="1">  1        1 0.55568215E-01 0.13435070E+03</pdfrwt>
<pdfrwt beam="2">  1       -1 0.16541724E-01 0.13435070E+03</pdfrwt>
<totfact> 0.18614513E+03</totfact>
</mgrwt>
</event>
<event>
 8    1  0.1646661E-005  0.1429402E+03  0.7546771E-02  0.1220574E+00
         -2   -1    0    0    0  501 -0.00000000000E+00  0.00000000000E+00  0.78734005684E+02  0.78734005684E+02  0.00000000000E+00 0. -1.
          2   -1    0    0  501    0  0.00000000000E+00 -0.00000000000E+00 -0.42055861277E+03  0.42055861277E+03  0.00000000000E+00 0.  1.
         23    2    1    2    0    0 -0.44127236109E+02 -0.53474104129E+02 -0.38806949271E+01  0.14299282300E+03  0.12500077943E+03 0.  0.
         23    2    1    2    0    0  0.44127236109E+02  0.53474104129E+02 -0.33794391216E+03  0.35629979546E+03  0.89088516076E+02 0.  0.
          5    1    3    3  502    0  0.40956716353E+02 -0.71305216043E+00  0.82094550272E+01  0.42041006288E+02  0.47000000000E+01 0. -1.
         -5    1    3    3    0  502 -0.85083952462E+02 -0.52761051968E+02 -0.12090149954E+02  0.10095181671E+03  0.47000000000E+01 0. -1.
        -11    1    4    4    0    0  0.43582452844E+02 -0.85591744500E+01 -0.85532742946E+02  0.96377070816E+02  0.00000000000E+00 0.  1.
         11    1    4    4    0    0  0.54478326457E+00  0.62033278579E+02 -0.25241116922E+03  0.25992272464E+03  0.00000000000E+00 0. -1.
<mgrwt>
<rscale>  0 0.13474932E+03</rscale>
<asrwt>0</asrwt>
<pdfrwt beam="2">  1        2 0.64701325E-01 0.14294015E+03</pdfrwt>
<pdfrwt beam="1">  1       -2 0.12112924E-01 0.14294015E+03</pdfrwt>
<totfact> 0.35704083E+03</totfact>
</mgrwt>
</event>
<event>
 8    1  0.1646661E-005  0.1955183E+03  0.7546771E-02  0.1158064E+00
          2   -1    0    0  501    0  0.00000000000E+00  0.00000000000E+00  0.34805861516E+03  0.34805861516E+03  0.00000000000E+00 0. -1.
         -2   -1    0    0    0  501 -0.00000000000E+00 -0.00000000000E+00 -0.11228816373E+03  0.11228816373E+03  0.00000000000E+00 0.  1.
         23    2    1    2    0    0  0.51117463765E+02 -0.14137713930E+03  0.44667333811E+02  0.20055567048E+03  0.12500766230E+03 0.  0.
         23    2    1    2    0    0 -0.51117463765E+02  0.14137713930E+03  0.19110311762E+03  0.25979110841E+03  0.91490588723E+02 0.  0.
          5    1    3    3  502    0  0.57303195074E+01  0.23396805551E+02  0.57567032079E+01  0.25208663262E+02  0.47000000000E+01 0.  1.
         -5    1    3    3    0  502  0.45387144258E+02 -0.16477394485E+03  0.38910630603E+02  0.17534700722E+03  0.47000000000E+01 0.  1.
        -11    1    4    4    0    0 -0.62040107791E+02  0.46423356975E+02  0.62452143021E+02  0.99520717519E+02  0.00000000000E+00 0.  1.
         11    1    4    4    0    0  0.10922644025E+02  0.94953782329E+02  0.12865097459E+03  0.16027039089E+03  0.00000000000E+00 0. -1.
<mgrwt>
<rscale>  0 0.19044080E+03</rscale>
<asrwt>0</asrwt>
<pdfrwt beam="1">  1        2 0.53547479E-01 0.19551830E+03</pdfrwt>
<pdfrwt beam="2">  1       -2 0.17275102E-01 0.19551830E+03</pdfrwt>
<totfact> 0.24776604E+03</totfact>
</mgrwt>
</event>
<event>
 8    1  0.1646661E-005  0.1485202E+03  0.7546771E-02  0.1208733E+00
         -1   -1    0    0    0  501 -0.00000000000E+00  0.00000000000E+00  0.20974853909E+03  0.20974853909E+03  0.00000000000E+00 0.  1.
          1   -1    0    0  501    0  0.00000000000E+00 -0.00000000000E+00 -0.92041767229E+02  0.92041767229E+02  0.00000000000E+00 0. -1.
         23    2    1    2    0    0 -0.51488005863E+02 -0.75952779109E+02  0.65404125570E+02  0.16228356464E+03  0.11678363032E+03 0.  0.
         23    2    1    2    0    0  0.51488005863E+02  0.75952779109E+02  0.52302646293E+02  0.13950674168E+03  0.91141235244E+02 0.  0.
          5    1    3    3  502    0 -0.72284752175E+02 -0.15079535719E+02  0.53967980442E+01  0.74186880401E+02  0.47000000000E+01 0. -1.
         -5    1    3    3    0  502  0.20796746312E+02 -0.60873243389E+02  0.60007327526E+02  0.88096684243E+02  0.47000000000E+01 0.  1.
        -11    1    4    4    0    0  0.13940711272E+02  0.61992202589E+02  0.71016173769E+02  0.95292568174E+02  0.00000000000E+00 0.  1.
         11    1    4    4    0    0  0.37547294590E+02  0.13960576520E+02 -0.18713527476E+02  0.44214173501E+02  0.00000000000E+00 0. -1.
<mgrwt>
<rscale>  0 0.14347130E+03</rscale>
<asrwt>0</asrwt>
<pdfrwt beam="2">  1        1 0.14160272E-01 0.14852022E+03</pdfrwt>
<pdfrwt beam="1">  1       -1 0.32269006E-01 0.14852022E+03</pdfrwt>
<totfact> 0.35025744E+03</totfact>
</mgrwt>
</event>
<event>
 8    1  0.1646661E-005  0.1682319E+03  0.7546771E-02  0.1186432E+00
          1   -1    0    0  501    0  0.00000000000E+00  0.00000000000E+00  0.42564948871E+03  0.42564948871E+03  0.00000000000E+00 0. -1.
         -1   -1    0    0    0  501 -0.00000000000E+00 -0.00000000000E+00 -0.59190773470E+02  0.59190773470E+02  0.00000000000E+00 0.  1.
         23    2    1    2    0    0  0.95856831578E+02  0.59066961111E+02  0.23710284275E+03  0.29072275815E+03  0.12499810403E+03 0.  0.
         23    2    1    2    0    0 -0.95856831578E+02 -0.59066961111E+02  0.12935587249E+03  0.19411750403E+03  0.90946278475E+02 0.  0.
          5    1    3    3  502    0  0.29677413065E+02  0.72230608200E+02  0.19729409826E+03  0.21223821714E+03  0.47000000000E+01 0.  1.
         -5    1    3    3    0  502  0.66179418514E+02 -0.13163647089E+02  0.39808744490E+02  0.78484541009E+02  0.47000000000E+01 0.  1.
        -11    1    4    4    0    0 -0.68383173500E+02 -0.73519726715E+02  0.57174234223E+02  0.11554350563E+03  0.00000000000E+00 0.  1.
         11    1    4    4    0    0 -0.27473658079E+02  0.14452765605E+02  0.72181638267E+02  0.78573998401E+02  0.00000000000E+00 0. -1.
<mgrwt>
<rscale>  0 0.16202266E+03</rscale>
<asrwt>0</asrwt>
<pdfrwt beam="1">  1        1 0.65484535E-01 0.16823188E+03</pdfrwt>
<pdfrwt beam="2">  1       -1 0.91062731E-02 0.16823188E+03</pdfrwt>
<totfact> 0.38483008E+03</totfact>
</mgrwt>
</event>
<event>
 8    1  0.1646661E-005  0.1933521E+03  0.7546771E-02  0.1158615E+00
         -1   -1    0    0    0  501 -0.00000000000E+00  0.00000000000E+00  0.13623674136E+03  0.13623674136E+03  0.00000000000E+00 0.  1.
          1   -1    0    0  501    0  0.00000000000E+00 -0.00000000000E+00 -0.32692049366E+03  0.32692049366E+03  0.00000000000E+00 0. -1.
         23    2    1    2    0    0 -0.14220671478E+03 -0.39286546147E+02  0.10255546514E+02  0.19362392354E+03  0.12497545798E+03 0.  0.
         23    2    1    2    0    0  0.14220671478E+03  0.39286546147E+02 -0.20093929881E+03  0.26953331148E+03  0.10249595968E+03 0.  0.
          5    1    3    3  502    0 -0.62316336615E+02  0.41670595948E+02 -0.16004353869E+02  0.76798396588E+02  0.47000000000E+01 0.  1.
         -5    1    3    3    0  502 -0.79890378164E+02 -0.80957142095E+02  0.26259900383E+02  0.11682552695E+03  0.47000000000E+01 0.  1.
        -11    1    4    4    0    0  0.74583948651E+02  0.44968052210E+02 -0.41951690122E+02  0.96668688933E+02  0.00000000000E+00 0. -1.
         11    1    4    4    0    0  0.67622766128E+02 -0.56815060630E+01 -0.15898760869E+03  0.17286462254E+03  0.00000000000E+00 0.  1.
<mgrwt>
<rscale>  0 0.18982976E+03</rscale>
<asrwt>0</asrwt>
<pdfrwt beam="2">  1        1 0.50295460E-01 0.19335213E+03</pdfrwt>
<pdfrwt beam="1">  1       -1 0.20959499E-01 0.19335213E+03</pdfrwt>
<totfact> 0.14566286E+03</totfact>
</mgrwt>
</event>
<event>
 8    1  0.1646661E-005  0.2119954E+03  0.7546771E-02  0.1143686E+00
          1   -1    0    0  501    0  0.00000000000E+00  0.00000000000E+00  0.17445710913E+04  0.17445710913E+04  0.00000000000E+00 0. -1.
         -1   -1    0    0    0  501 -0.00000000000E+00 -0.00000000000E+00 -0.23776444497E+02  0.23776444497E+02  0.00000000000E+00 0.  1.
         23    2    1    2    0    0 -0.10743689172E+03 -0.13332092393E+03  0.96990556679E+03  0.99280354274E+03  0.12499964607E+03 0.  0.
         23    2    1    2    0    0  0.10743689172E+03  0.13332092393E+03  0.75088908005E+03  0.77554399310E+03  0.91197150370E+02 0.  0.
          5    1    3    3  502    0 -0.69074455873E+02 -0.46220863271E+02  0.72898569729E+03  0.73372330310E+03  0.47000000000E+01 0. -1.
         -5    1    3    3    0  502 -0.38362435847E+02 -0.87100060655E+02  0.24091986950E+03  0.25908023963E+03  0.47000000000E+01 0. -1.
        -11    1    4    4    0    0  0.44630102002E+02  0.93594480020E+02  0.57998654579E+03  0.58918262533E+03  0.00000000000E+00 0.  1.
         11    1    4    4    0    0  0.62806789718E+02  0.39726443906E+02  0.17090253427E+03  0.18636136777E+03  0.00000000000E+00 0. -1.
<mgrwt>
<rscale>  0 0.20734451E+03</rscale>
<asrwt>0</asrwt>
<pdfrwt beam="1">  1        1 0.26839545E+00 0.21199544E+03</pdfrwt>
<pdfrwt beam="2">  1       -1 0.36579159E-02 0.21199544E+03</pdfrwt>
<totfact> 0.13934783E+03</totfact>
</mgrwt>
</event>
<event>
 8    1  0.1646661E-005  0.1309039E+03  0.7546771E-02  0.1239472E+00
         -2   -1    0    0    0  501 -0.00000000000E+00  0.00000000000E+00  0.40728949155E+03  0.40728949155E+03  0.00000000000E+00 0.  1.
          2   -1    0    0  501    0  0.00000000000E+00 -0.00000000000E+00 -0.38375153866E+02  0.38375153866E+02  0.00000000000E+00 0. -1.
         23    2    1    2    0    0 -0.22408116427E+02  0.31758420794E+02  0.29170434848E+03  0.31972996724E+03  0.12500041622E+03 0.  0.
         23    2    1    2    0    0  0.22408116427E+02 -0.31758420794E+02  0.77209989202E+02  0.12593467817E+03  0.91582966545E+02 0.  0.
          5    1    3    3  502    0 -0.49048489729E+02  0.12580161199E+02  0.27997558292E+03  0.28455655296E+03  0.47000000000E+01 0. -1.
         -5    1    3    3    0  502  0.26640373302E+02  0.19178259594E+02  0.11728765563E+02  0.35173414284E+02  0.47000000000E+01 0. -1.
        -11    1    4    4    0    0 -0.24171072357E+02 -0.44712986584E+02  0.34564697129E+02  0.61467147288E+02  0.00000000000E+00 0.  1.
         11    1    4    4    0    0  0.46579188784E+02  0.12954565790E+02  0.42645292073E+02  0.64467530886E+02  0.00000000000E+00 0. -1.
<mgrwt>
<rscale>  0 0.12222462E+03</rscale>
<asrwt>0</asrwt>
<pdfrwt beam="2">  1        2 0.59038701E-02 0.13090388E+03</pdfrwt>
<pdfrwt beam="1">  1       -2 0.62659919E-01 0.13090388E+03</pdfrwt>
<totfact> 0.29092630E+03</totfact>
</mgrwt>
</event>
<event>
 8    1  0.1646661E-005  0.1795282E+03  0.7546771E-02  0.1173757E+00
          2   -1    0    0  501    0  0.00000000000E+00  0.00000000000E+00  0.53486146748E+03  0.53486146748E+03  0.00000000000E+00 0.  1.
         -2   -1    0    0    0  501 -0.00000000000E+00 -0.00000000000E+00 -0.53506003130E+02  0.53506003130E+02  0.00000000000E+00 0. -1.
         23    2    1    2    0    0 -0.84718081152E+02 -0.97022444672E+02  0.24043084098E+03  0.30006226749E+03  0.12505945399E+03 0.  0.
         23    2    1    2    0    0  0.84718081152E+02  0.97022444672E+02  0.24092462337E+03  0.28830520312E+03  0.92112474489E+02 0.  0.
          5    1    3    3  502    0  0.57451948671E+01 -0.82281276712E+02  0.78673108040E+02  0.11408226720E+03  0.47000000000E+01 0. -1.
         -5    1    3    3    0  502 -0.90463276019E+02 -0.14741167960E+02  0.16175773294E+03  0.18598000029E+03  0.47000000000E+01 0. -1.
        -11    1    4    4    0    0  0.35830585904E+02  0.62643329980E+02  0.20779856272E+03  0.21997331735E+03  0.00000000000E+00 0.  1.
         11    1    4    4    0    0  0.48887495248E+02  0.34379114692E+02  0.33126060645E+02  0.68331885767E+02  0.00000000000E+00 0. -1.
<mgrwt>
<rscale>  0 0.17398231E+03</rscale>
<asrwt>0</asrwt>
<pdfrwt beam="1">  1        2 0.82286376E-01 0.17952820E+03</pdfrwt>
<pdfrwt beam="2">  1       -2 0.82316931E-02 0.17952820E+03</pdfrwt>
<totfact> 0.50970877E+03</totfact>
</mgrwt>
</event>
<event>
 8    1  0.1646661E-005  0.1345678E+03  0.7546771E-02  0.1233465E+00
          2   -1    0    0  501    0  0.00000000000E+00  0.00000000000E+00  0.82558047413E+03  0.82558047413E+03  0.00000000000E+00 0. -1.
         -2   -1    0    0    0  501 -0.00000000000E+00 -0.00000000000E+00 -0.18266564339E+02  0.18266564339E+02  0.00000000000E+00 0.  1.
         23    2    1    2    0    0 -0.23543328980E+02 -0.43935500982E+02  0.35046533176E+03  0.37541234767E+03  0.12499546164E+03 0.  0.
         23    2    1    2    0    0  0.23543328980E+02  0.43935500982E+02  0.45684857803E+03  0.46843469080E+03  0.90751417117E+02 0.  0.
          5    1    3    3  502    0 -0.49189895760E+02 -0.69599211119E+02  0.30676855399E+03  0.31842225385E+03  0.47000000000E+01 0. -1.
         -5    1    3    3    0  502  0.25646566780E+02  0.25663710137E+02  0.43696777771E+02  0.56990093816E+02  0.47000000000E+01 0. -1.
        -11    1    4    4    0    0 -0.34935097723E+02  0.14580680349E+02  0.18344747691E+03  0.18731266395E+03  0.00000000000E+00 0. -1.
         11    1    4    4    0    0  0.58478426702E+02  0.29354820633E+02  0.27340110113E+03  0.28112202685E+03  0.00000000000E+00 0.  1.
<mgrwt>
<rscale>  0 0.12603243E+03</rscale>
<asrwt>0</asrwt>
<pdfrwt beam="1">  1        2 0.12701235E+00 0.13456776E+03</pdfrwt>
<pdfrwt beam="2">  1       -2 0.28102413E-02 0.13456776E+03</pdfrwt>
<totfact> 0.15159450E+04</totfact>
</mgrwt>
</event>
<event>
 8    1  0.1646661E-005  0.1358303E+03  0.7546771E-02  0.1233763E+00
         -1   -1    0    0    0  501 -0.00000000000E+00  0.00000000000E+00  0.58295819224E+02  0.58295819224E+02  0.00000000000E+00 0.  1.
          1   -1    0    0  501    0  0.00000000000E+00 -0.00000000000E+00 -0.24677355367E+03  0.24677355367E+03  0.00000000000E+00 0. -1.
         23    2    1    2    0    0  0.52971826770E+02  0.41823070186E+01 -0.80665740559E+02  0.15797729835E+03  0.12500543576E+03 0.  0.
         23    2    1    2    0    0 -0.52971826770E+02 -0.41823070186E+01 -0.10781199388E+03  0.14709207454E+03  0.84788833253E+02 0.  0.
          5    1    3    3  502    0  0.36497712074E+02  0.28003916729E+02 -0.10824482341E+03  0.11770868334E+03  0.47000000000E+01 0.  1.
         -5    1    3    3    0  502  0.16474114696E+02 -0.23821609710E+02  0.27579082848E+02  0.40268615012E+02  0.47000000000E+01 0.  1.
        -11    1    4    4    0    0 -0.16450141202E+02  0.37159382029E+02 -0.67426047118E+02  0.78725463786E+02  0.00000000000E+00 0. -1.
         11    1    4    4    0    0 -0.36521685568E+02 -0.41341689047E+02 -0.40385946764E+02  0.68366610754E+02  0.00000000000E+00 0.  1.
<mgrwt>
<rscale>  0 0.12583924E+03</rscale>
<asrwt>0</asrwt>
<pdfrwt beam="2">  1        1 0.37965162E-01 0.13583028E+03</pdfrwt>
<pdfrwt beam="1">  1       -1 0.89685877E-02 0.13583028E+03</pdfrwt>
<totfact> 0.76912319E+03</totfact>
</mgrwt>
</event>
<event>
 8    1  0.1646661E-005  0.1321829E+03  0.7546771E-02  0.1236891E+00
         -1   -1    0    0    0  501 -0.00000000000E+00  0.00000000000E+00  0.59219725257E+02  0.59219725257E+02  0.00000000000E+00 0.  1.
          1   -1    0    0  501    0  0.00000000000E+00 -0.00000000000E+00 -0.24923523758E+03  0.24923523758E+03  0.00000000000E+00 0. -1.
         23    2    1    2    0    0 -0.34367442427E+02  0.25785266304E+02 -0.65281503236E+02  0.14742450785E+03  0.12500523906E+03 0.  0.
         23    2    1    2    0    0  0.34367442427E+02 -0.25785266304E+02 -0.12473400909E+03  0.16103045499E+03  0.92337605303E+02 0.  0.
          5    1    3    3  502    0 -0.12995657231E+02  0.11861578941E+02  0.37356886343E+02  0.41559729536E+02  0.47000000000E+01 0.  1.
         -5    1    3    3    0  502 -0.21371785196E+02  0.13923687363E+02 -0.10263838958E+03  0.10586477831E+03  0.47000000000E+01 0.  1.
        -11    1    4    4    0    0  0.19570012508E+02 -0.35207647321E+01  0.10976004770E+02  0.22712416309E+02  0.00000000000E+00 0.  1.
         11    1    4    4    0    0  0.14797429919E+02 -0.22264501572E+02 -0.13571001386E+03  0.13831803868E+03  0.00000000000E+00 0. -1.
<mgrwt>
<rscale>  0 0.12384128E+03</rscale>
<asrwt>0</asrwt>
<pdfrwt beam="2">  1        1 0.38343883E-01 0.13218287E+03</pdfrwt>
<pdfrwt beam="1">  1       -1 0.91107269E-02 0.13218287E+03</pdfrwt>
<totfact> 0.74044518E+03</totfact>
</mgrwt>
</event>
<event>
 8    1  0.1646661E-005  0.1599825E+03  0.7546771E-02  0.1196537E+00
         -2   -1    0    0    0  501 -0.00000000000E+00  0.00000000000E+00  0.44159180996E+02  0.44159180996E+02  0.00000000000E+00 0.  1.
          2   -1    0    0  501    0  0.00000000000E+00 -0.00000000000E+00 -0.54465932343E+03  0.54465932343E+03  0.00000000000E+00 0. -1.
         23    2    1    2    0    0  0.94038415271E+02  0.33546473688E+02 -0.17806403138E+03  0.23937670613E+03  0.12500327484E+03 0.  0.
         23    2    1    2    0    0 -0.94038415271E+02 -0.33546473688E+02 -0.32243611106E+03  0.34944179830E+03  0.90420878366E+02 0.  0.
          5    1    3    3  502    0  0.30060442344E+02  0.14576218754E+02 -0.16844725978E+03  0.17179250762E+03  0.47000000000E+01 0.  1.
         -5    1    3    3    0  502  0.63977972927E+02  0.18970254934E+02 -0.96167716042E+01  0.67584198509E+02  0.47000000000E+01 0.  1.
        -11    1    4    4    0    0 -0.10625248644E+03 -0.46363395494E+02 -0.26280575242E+03  0.28723860956E+03  0.00000000000E+00 0.  1.
         11    1    4    4    0    0  0.12214071165E+02  0.12816921806E+02 -0.59630358631E+02  0.62203188740E+02  0.00000000000E+00 0. -1.
<mgrwt>
<rscale>  0 0.15324899E+03</rscale>
<asrwt>0</asrwt>
<pdfrwt beam="2">  1        2 0.83793740E-01 0.15998252E+03</pdfrwt>
<pdfrwt beam="1">  1       -2 0.67937204E-02 0.15998252E+03</pdfrwt>
<totfact> 0.66819702E+03</totfact>
</mgrwt>
</event>
<event>
 7    1  0.1646661E-005  0.2426130E+03  0.7546771E-02  0.1150873E+00
         -2   -1    0    0    0  501 -0.00000000000E+00  0.00000000000E+00  0.19558528053E+03  0.19558528053E+03  0.00000000000E+00 0.  1.
          2   -1    0    0  501    0  0.00000000000E+00 -0.00000000000E+00 -0.21972751917E+03  0.21972751917E+03  0.00000000000E+00 0. -1.
         23    2    1    2    0    0 -0.51500790767E+02 -0.33510548623E+02 -0.11289248318E+03  0.15697644615E+03  0.90119939906E+02 0.  0.
          5    1    1    2  502    0  0.37145789989E+02  0.13339603628E+02 -0.79142566663E+02  0.88562918859E+02  0.47000000000E+01 0. -1.
         -5    1    1    2    0  502  0.14355000778E+02  0.20170944996E+02  0.16789281121E+03  0.16977343469E+03  0.47000000000E+01 0.  1.
        -11    1    3    3    0    0 -0.43423824946E+02  0.10686234916E+02 -0.11649082917E+02  0.46211744421E+02  0.00000000000E+00 0. -1.
         11    1    3    3    0    0 -0.80769658211E+01 -0.44196783540E+02 -0.10124340027E+03  0.11076470173E+03  0.00000000000E+00 0.  1.
<mgrwt>
<rscale>  0 0.19866197E+03</rscale>
<asrwt>0</asrwt>
<pdfrwt beam="2">  1        2 0.33804234E-01 0.24261300E+03</pdfrwt>
<pdfrwt beam="1">  1       -2 0.30090043E-01 0.24261300E+03</pdfrwt>
<totfact> 0.15568079E+03</totfact>
</mgrwt>
</event>
<event>
 8    1  0.1646661E-005  0.1709786E+03  0.7546771E-02  0.1183417E+00
         -2   -1    0    0    0  501 -0.00000000000E+00  0.00000000000E+00  0.12789535186E+03  0.12789535186E+03  0.00000000000E+00 0. -1.
          2   -1    0    0  501    0  0.00000000000E+00 -0.00000000000E+00 -0.30971664298E+03  0.30971664298E+03  0.00000000000E+00 0.  1.
         23    2    1    2    0    0 -0.10739343066E+03  0.45551908571E+02  0.35850798147E+02  0.17469676078E+03  0.12500141270E+03 0.  0.
         23    2    1    2    0    0  0.10739343066E+03 -0.45551908571E+02 -0.21767208926E+03  0.26291523406E+03  0.90193993896E+02 0.  0.
          5    1    3    3  502    0 -0.97161474123E+02 -0.11288411156E+02  0.56648795777E+02  0.11313247254E+03  0.47000000000E+01 0.  1.
         -5    1    3    3    0  502 -0.10231956538E+02  0.56840319726E+02 -0.20797997630E+02  0.61564288241E+02  0.47000000000E+01 0.  1.
        -11    1    4    4    0    0  0.30580829983E+02  0.55779092410E+01 -0.55290300836E+01  0.31573254625E+02  0.00000000000E+00 0.  1.
         11    1    4    4    0    0  0.76812600678E+02 -0.51129817812E+02 -0.21214305918E+03  0.23134197944E+03  0.00000000000E+00 0. -1.
<mgrwt>
<rscale>  0 0.16476765E+03</rscale>
<asrwt>0</asrwt>
<pdfrwt beam="2">  1        2 0.47648714E-01 0.17097859E+03</pdfrwt>
<pdfrwt beam="1">  1       -2 0.19676208E-01 0.17097859E+03</pdfrwt>
<totfact> 0.22443739E+03</totfact>
</mgrwt>
</event>
<event>
 8    1  0.1646661E-005  0.1516380E+03  0.7546771E-02  0.1207315E+00
          2   -1    0    0  501    0  0.00000000000E+00  0.00000000000E+00  0.40561560431E+03  0.40561560431E+03  0.00000000000E+00 0. -1.
         -2   -1    0    0    0  501 -0.00000000000E+00 -0.00000000000E+00 -0.60872322962E+02  0.60872322962E+02  0.00000000000E+00 0.  1.
         23    2    1    2    0    0 -0.79192608324E+02  0.33146259038E+02  0.75203505606E+02  0.16926205789E+03  0.12499573307E+03 0.  0.
         23    2    1    2    0    0  0.79192608324E+02 -0.33146259038E+02  0.26953977574E+03  0.29722586938E+03  0.91221614872E+02 0.  0.
          5    1    3    3  502    0 -0.48468341220E+02  0.53334042289E+02 -0.13188220908E+02  0.73414707915E+02  0.47000000000E+01 0. -1.
         -5    1    3    3    0  502 -0.30724267104E+02 -0.20187783251E+02  0.88391726514E+02  0.95847349978E+02  0.47000000000E+01 0. -1.
        -11    1    4    4    0    0  0.67961398261E+02  0.81623091697E+01  0.92429566495E+02  0.11501564984E+03  0.00000000000E+00 0.  1.
         11    1    4    4    0    0  0.11231210063E+02 -0.41308568208E+02  0.17711020924E+03  0.18221021954E+03  0.00000000000E+00 0. -1.
<mgrwt>
<rscale>  0 0.14456533E+03</rscale>
<asrwt>0</asrwt>
<pdfrwt beam="1">  1        2 0.62402399E-01 0.15163798E+03</pdfrwt>
<pdfrwt beam="2">  1       -2 0.93649730E-02 0.15163798E+03</pdfrwt>
<totfact> 0.55946468E+03</totfact>
</mgrwt>
</event>
<event>
 7    1  0.1646661E-005  0.1434664E+03  0.7546771E-02  0.1225668E+00
          2   -1    0    0  501    0  0.00000000000E+00  0.00000000000E+00  0.17195903762E+03  0.17195903762E+03  0.00000000000E+00 0.  1.
         -2   -1    0    0    0  501 -0.00000000000E+00 -0.00000000000E+00 -0.12821041111E+03  0.12821041111E+03  0.00000000000E+00 0. -1.
         23    2    1    2    0    0 -0.60706831803E+01  0.50303053330E+02  0.10402113044E+03  0.14455655430E+03  0.86654206164E+02 0.  0.
          5    1    1    2  502    0 -0.43173571457E+02  0.55804282193E+01 -0.67684974925E+02  0.80612928752E+02  0.47000000000E+01 0. -1.
         -5    1    1    2    0  502  0.49244254638E+02 -0.55883481549E+02  0.74124710013E+01  0.74999965675E+02  0.47000000000E+01 0.  1.
        -11    1    3    3    0    0  0.28067764028E+02  0.27003685099E+01  0.73031263911E+02  0.78285738651E+02  0.00000000000E+00 0.  1.
         11    1    3    3    0    0 -0.34138447208E+02  0.47602684820E+02  0.30989866524E+02  0.66270815651E+02  0.00000000000E+00 0. -1.
<mgrwt>
<rscale>  0 0.13121234E+03</rscale>
<asrwt>0</asrwt>
<pdfrwt beam="1">  1        2 0.26455237E-01 0.14346637E+03</pdfrwt>
<pdfrwt beam="2">  1       -2 0.19724679E-01 0.14346637E+03</pdfrwt>
<totfact> 0.41789966E+03</totfact>
</mgrwt>
</event>
<event>
 8    1  0.1646661E-005  0.3420644E+03  0.7546771E-02  0.1067184E+00
         -1   -1    0    0    0  501 -0.00000000000E+00  0.00000000000E+00  0.14067464438E+03  0.14067464438E+03  0.00000000000E+00 0.  1.
          1   -1    0    0  501    0  0.00000000000E+00 -0.00000000000E+00 -0.96050104876E+03  0.96050104876E+03  0.00000000000E+00 0. -1.
         23    2    1    2    0    0 -0.21376316825E+03 -0.23598481751E+03 -0.19329542141E+03  0.39290096120E+03  0.12499807672E+03 0.  0.
         23    2    1    2    0    0  0.21376316825E+03  0.23598481751E+03 -0.62653098297E+03  0.70827473193E+03  0.87911871105E+02 0.  0.
          5    1    3    3  502    0 -0.12913921189E+03 -0.21675819156E+03 -0.12105031068E+03  0.27988625792E+03  0.47000000000E+01 0.  1.
         -5    1    3    3    0  502 -0.84623956355E+02 -0.19226625951E+02 -0.72245110727E+02  0.11301470329E+03  0.47000000000E+01 0.  1.
        -11    1    4    4    0    0  0.16437826030E+03  0.15564605664E+03 -0.35700813154E+03  0.42273007155E+03  0.00000000000E+00 0.  1.
         11    1    4    4    0    0  0.49384907947E+02  0.80338760864E+02 -0.26952285143E+03  0.28554466038E+03  0.00000000000E+00 0. -1.
<mgrwt>
<rscale>  0 0.33908999E+03</rscale>
<asrwt>0</asrwt>
<pdfrwt beam="2">  1        1 0.14776939E+00 0.34206439E+03</pdfrwt>
<pdfrwt beam="1">  1       -1 0.21642253E-01 0.34206439E+03</pdfrwt>
<totfact> 0.30312942E+02</totfact>
</mgrwt>
</event>
<event>
 8    1  0.1646661E-005  0.1897758E+03  0.7546771E-02  0.1163509E+00
          3   -1    0    0  501    0  0.00000000000E+00  0.00000000000E+00  0.25638215236E+02  0.25638215236E+02  0.00000000000E+00 0. -1.
         -3   -1    0    0    0  501 -0.00000000000E+00 -0.00000000000E+00 -0.13458733746E+04  0.13458733746E+04  0.00000000000E+00 0.  1.
         23    2    1    2    0    0 -0.14165451509E+03 -0.17832742530E+02 -0.86866187097E+03  0.88915032562E+03  0.12502338628E+03 0.  0.
         23    2    1    2    0    0  0.14165451509E+03  0.17832742530E+02 -0.45157328838E+03  0.48236126421E+03  0.91487409398E+02 0.  0.
          5    1    3    3  502    0 -0.16384375931E+03 -0.17053338580E+02 -0.71004565470E+03  0.72891873044E+03  0.47000000000E+01 0. -1.
         -5    1    3    3    0  502  0.22189244229E+02 -0.77940395026E+00 -0.15861621627E+03  0.16023159518E+03  0.47000000000E+01 0. -1.
        -11    1    4    4    0    0  0.71511097200E+02  0.33373849373E+01 -0.35488273297E+03  0.36203139273E+03  0.00000000000E+00 0.  1.
         11    1    4    4    0    0  0.70143417886E+02  0.14495357592E+02 -0.96690555412E+02  0.12032987148E+03  0.00000000000E+00 0. -1.
<mgrwt>
<rscale>  0 0.18450912E+03</rscale>
<asrwt>0</asrwt>
<pdfrwt beam="1">  1        3 0.39443410E-02 0.18977580E+03</pdfrwt>
<pdfrwt beam="2">  1       -3 0.20705743E+00 0.18977580E+03</pdfrwt>
<totfact> 0.11729741E+02</totfact>
</mgrwt>
</event>
<event>
 8    1  0.1646661E-005  0.1914631E+03  0.7546771E-02  0.1159078E+00
          2   -1    0    0  501    0  0.00000000000E+00  0.00000000000E+00  0.12088251067E+04  0.12088251067E+04  0.00000000000E+00 0. -1.
         -2   -1    0    0    0  501 -0.00000000000E+00 -0.00000000000E+00 -0.32844691957E+02  0.32844691957E+02  0.00000000000E+00 0.  1.
         23    2    1    2    0    0  0.99117438137E+02 -0.10585331834E+03  0.38742907801E+03  0.43215668059E+03  0.12501565720E+03 0.  0.
         23    2    1    2    0    0 -0.99117438137E+02  0.10585331834E+03  0.78855133677E+03  0.80951311810E+03  0.11166506218E+03 0.  0.
          5    1    3    3  502    0  0.93950872973E+01  0.28169601205E+02  0.64394264672E+02  0.71066908052E+02  0.47000000000E+01 0.  1.
         -5    1    3    3    0  502  0.89722350840E+02 -0.13402291955E+03  0.32303481334E+03  0.36108977254E+03  0.47000000000E+01 0.  1.
        -11    1    4    4    0    0 -0.36654193347E+02  0.13856003467E+00  0.57276723075E+02  0.68001265392E+02  0.00000000000E+00 0.  1.
         11    1    4    4    0    0 -0.62463244790E+02  0.10571475831E+03  0.73127461370E+03  0.74151185271E+03  0.00000000000E+00 0. -1.
<mgrwt>
<rscale>  0 0.18931785E+03</rscale>
<asrwt>0</asrwt>
<pdfrwt beam="1">  1        2 0.18597306E+00 0.19146307E+03</pdfrwt>
<pdfrwt beam="2">  1       -2 0.50530304E-02 0.19146307E+03</pdfrwt>
<totfact> 0.37792546E+03</totfact>
</mgrwt>
</event>
<event>
 8    1  0.1646661E-005  0.1445431E+03  0.7546771E-02  0.1216841E+00
          4   -1    0    0  501    0  0.00000000000E+00  0.00000000000E+00  0.33520716168E+02  0.33520716168E+02  0.00000000000E+00 0. -1.
         -4   -1    0    0    0  501 -0.00000000000E+00 -0.00000000000E+00 -0.55849316259E+03  0.55849316259E+03  0.00000000000E+00 0.  1.
         23    2    1    2    0    0  0.47749903880E+01 -0.72419194295E+02 -0.36957569217E+03  0.39683610191E+03  0.12500143719E+03 0.  0.
         23    2    1    2    0    0 -0.47749903880E+01  0.72419194295E+02 -0.15539675425E+03  0.19517777685E+03  0.93160469664E+02 0.  0.
          5    1    3    3  502    0  0.54518201932E+02  0.20854520374E+01 -0.14635639573E+03  0.15626537691E+03  0.47000000000E+01 0. -1.
         -5    1    3    3    0  502 -0.49743211544E+02 -0.74504646332E+02 -0.22321929644E+03  0.24057072499E+03  0.47000000000E+01 0. -1.
        -11    1    4    4    0    0  0.24241642745E+02  0.83322002774E+02 -0.12062552989E+03  0.14859586754E+03  0.00000000000E+00 0. -1.
         11    1    4    4    0    0 -0.29016633133E+02 -0.10902808479E+02 -0.34771224366E+02  0.46581909310E+02  0.00000000000E+00 0.  1.
<mgrwt>
<rscale>  0 0.13742160E+03</rscale>
<asrwt>0</asrwt>
<pdfrwt beam="1">  1        4 0.51570334E-02 0.14454307E+03</pdfrwt>
<pdfrwt beam="2">  1       -4 0.85922023E-01 0.14454307E+03</pdfrwt>
<totfact> 0.46273111E+02</totfact>
</mgrwt>
</event>
<event>
 8    1  0.1646661E-005  0.1717503E+03  0.7546771E-02  0.1182190E+00
         -1   -1    0    0    0  501 -0.00000000000E+00  0.00000000000E+00  0.12100423230E+03  0.12100423230E+03  0.00000000000E+00 0.  1.
          1   -1    0    0  501    0  0.00000000000E+00 -0.00000000000E+00 -0.24338455159E+03  0.24338455159E+03  0.00000000000E+00 0. -1.
         23    2    1    2    0    0  0.63535744840E+02 -0.99178794738E+02 -0.92853337308E+00  0.17175284459E+03  0.12499981301E+03 0.  0.
         23    2    1    2    0    0 -0.63535744840E+02  0.99178794738E+02 -0.12145178592E+03  0.19263593930E+03  0.92113216253E+02 0.  0.
          5    1    3    3  502    0  0.71170491415E+02 -0.42632813210E+02 -0.49457560496E+02  0.96700237335E+02  0.47000000000E+01 0.  1.
         -5    1    3    3    0  502 -0.76347465748E+01 -0.56545981528E+02  0.48529027123E+02  0.75052607255E+02  0.47000000000E+01 0.  1.
        -11    1    4    4    0    0 -0.23816827096E+02  0.93300949488E+02 -0.11804786204E+03  0.15234042852E+03  0.00000000000E+00 0. -1.
         11    1    4    4    0    0 -0.39718917744E+02  0.58778452497E+01 -0.34039238814E+01  0.40295510784E+02  0.00000000000E+00 0.  1.
<mgrwt>
<rscale>  0 0.16590233E+03</rscale>
<asrwt>0</asrwt>
<pdfrwt beam="2">  1        1 0.37443777E-01 0.17175033E+03</pdfrwt>
<pdfrwt beam="1">  1       -1 0.18616036E-01 0.17175033E+03</pdfrwt>
<totfact> 0.25413880E+03</totfact>
</mgrwt>
</event>
<event>
 8    1  0.1646661E-005  0.1530922E+03  0.7546771E-02  0.1205399E+00
          2   -1    0    0  501    0  0.00000000000E+00  0.00000000000E+00  0.75667499892E+02  0.75667499892E+02  0.00000000000E+00 0. -1.
         -2   -1    0    0    0  501 -0.00000000000E+00 -0.00000000000E+00 -0.26946079304E+03  0.26946079304E+03  0.00000000000E+00 0.  1.
         23    2    1    2    0    0  0.80849523876E+02  0.35729060915E+02 -0.13962921063E+03  0.20720406427E+03  0.12499598587E+03 0.  0.
         23    2    1    2    0    0 -0.80849523876E+02 -0.35729060915E+02 -0.54164082519E+02  0.13792422866E+03  0.90973258229E+02 0.  0.
          5    1    3    3  502    0 -0.28706178643E+02 -0.12033106748E+02 -0.43822774144E+02  0.53957074457E+02  0.47000000000E+01 0. -1.
         -5    1    3    3    0  502  0.10955570252E+03  0.47762167663E+02 -0.95806436486E+02  0.15324698981E+03  0.47000000000E+01 0. -1.
        -11    1    4    4    0    0 -0.42776542739E+02 -0.61833018110E+02 -0.52554022312E+02  0.91733745146E+02  0.00000000000E+00 0.  1.
         11    1    4    4    0    0 -0.38072981137E+02  0.26103957195E+02 -0.16100602071E+01  0.46190483519E+02  0.00000000000E+00 0. -1.
<mgrwt>
<rscale>  0 0.14606024E+03</rscale>
<asrwt>0</asrwt>
<pdfrwt beam="1">  1        2 0.11641154E-01 0.15309215E+03</pdfrwt>
<pdfrwt beam="2">  1       -2 0.41455506E-01 0.15309215E+03</pdfrwt>
<totfact> 0.28550295E+03</totfact>
</mgrwt>
</event>
<event>
 8    1  0.1646661E-005  0.1439343E+03  0.7546771E-02  0.1217543E+00
          3   -1    0    0  501    0  0.00000000000E+00  0.00000000000E+00  0.80689182215E+02  0.80689182215E+02  0.00000000000E+00 0. -1.
         -3   -1    0    0    0  501 -0.00000000000E+00 -0.00000000000E+00 -0.21233695463E+03  0.21233695463E+03  0.00000000000E+00 0.  1.
         23    2    1    2    0    0 -0.42814005416E+02  0.57086056538E+02 -0.73834328022E+02  0.16176710648E+03  0.12500092733E+03 0.  0.
         23    2    1    2    0    0  0.42814005416E+02 -0.57086056538E+02 -0.57813444389E+02  0.13125903036E+03  0.93779964748E+02 0.  0.
          5    1    3    3  502    0  0.21550514933E+02  0.28950139045E+02  0.22244683754E+02  0.42655025494E+02  0.47000000000E+01 0.  1.
         -5    1    3    3    0  502 -0.64364520350E+02  0.28135917494E+02 -0.96079011775E+02  0.11911208099E+03  0.47000000000E+01 0.  1.
        -11    1    4    4    0    0  0.47289651690E+02 -0.69160182952E+02 -0.73157908781E+02  0.11122734232E+03  0.00000000000E+00 0.  1.
         11    1    4    4    0    0 -0.44756462742E+01  0.12074126413E+02  0.15344464391E+02  0.20031688039E+02  0.00000000000E+00 0. -1.
<mgrwt>
<rscale>  0 0.13691389E+03</rscale>
<asrwt>0</asrwt>
<pdfrwt beam="1">  1        3 0.12413720E-01 0.14393432E+03</pdfrwt>
<pdfrwt beam="2">  1       -3 0.32667224E-01 0.14393432E+03</pdfrwt>
<totfact> 0.10917584E+03</totfact>
</mgrwt>
</event>
<event>
 8    1  0.1646661E-005  0.1402083E+03  0.7546771E-02  0.1224016E+00
          2   -1    0    0  501    0  0.00000000000E+00  0.00000000000E+00  0.66808124041E+02  0.66808124041E+02  0.00000000000E+00 0. -1.
         -2   -1    0    0    0  501 -0.00000000000E+00 -0.00000000000E+00 -0.24364662549E+03  0.24364662549E+03  0.00000000000E+00 0.  1.
         23    2    1    2    0    0  0.62561465713E+02  0.11004254833E+02 -0.12429061243E+03  0.18736732914E+03  0.12499331612E+03 0.  0.
         23    2    1    2    0    0 -0.62561465713E+02 -0.11004254833E+02 -0.52547889011E+02  0.12308742039E+03  0.91401322753E+02 0.  0.
          5    1    3    3  502    0  0.59657608166E+02  0.14084583533E+02 -0.14935722563E+03  0.16151494220E+03  0.47000000000E+01 0. -1.
         -5    1    3    3    0  502  0.29038575478E+01 -0.30803287002E+01  0.25066613196E+02  0.25852386944E+02  0.47000000000E+01 0. -1.
        -11    1    4    4    0    0  0.20996440617E+02 -0.83327786488E+01  0.28932143912E+01  0.22774029247E+02  0.00000000000E+00 0.  1.
         11    1    4    4    0    0 -0.83557906331E+02 -0.26714761841E+01 -0.55441103402E+02  0.10031339114E+03  0.00000000000E+00 0. -1.
<mgrwt>
<rscale>  0 0.13234599E+03</rscale>
<asrwt>0</asrwt>
<pdfrwt beam="1">  1        2 0.10278173E-01 0.14020827E+03</pdfrwt>
<pdfrwt beam="2">  1       -2 0.37484096E-01 0.14020827E+03</pdfrwt>
<totfact> 0.39979638E+03</totfact>
</mgrwt>
</event>
<event>
 8    1  0.1646661E-005  0.2074929E+03  0.7546771E-02  0.1147264E+00
          1   -1    0    0  501    0  0.00000000000E+00  0.00000000000E+00  0.99633491094E+03  0.99633491094E+03  0.00000000000E+00 0. -1.
         -1   -1    0    0    0  501 -0.00000000000E+00 -0.00000000000E+00 -0.39641756416E+02  0.39641756416E+02  0.00000000000E+00 0.  1.
         23    2    1    2    0    0  0.18442009356E+02  0.16457393990E+03  0.50553019590E+03  0.54645592147E+03  0.12501442212E+03 0.  0.
         23    2    1    2    0    0 -0.18442009356E+02 -0.16457393990E+03  0.45116295863E+03  0.48952074589E+03  0.93047600791E+02 0.  0.
          5    1    3    3  502    0  0.53328223680E+02  0.44478718920E+02  0.28009224026E+03  0.28861047959E+03  0.47000000000E+01 0. -1.
         -5    1    3    3    0  502 -0.34886214324E+02  0.12009522098E+03  0.22543795564E+03  0.25784544188E+03  0.47000000000E+01 0. -1.
        -11    1    4    4    0    0  0.15296987941E+02 -0.85042443337E+01  0.95733022218E+01  0.19949138507E+02  0.00000000000E+00 0.  1.
         11    1    4    4    0    0 -0.33738997297E+02 -0.15606969557E+03  0.44158965641E+03  0.46957160738E+03  0.00000000000E+00 0. -1.
<mgrwt>
<rscale>  0 0.20296191E+03</rscale>
<asrwt>0</asrwt>
<pdfrwt beam="1">  1        1 0.15328228E+00 0.20749288E+03</pdfrwt>
<pdfrwt beam="2">  1       -1 0.60987325E-02 0.20749288E+03</pdfrwt>
<totfact> 0.20913542E+03</totfact>
</mgrwt>
</event>
<event>
 8    1  0.1646661E-005  0.2656840E+03  0.7546771E-02  0.1106045E+00
          2   -1    0    0  501    0  0.00000000000E+00  0.00000000000E+00  0.12237307589E+04  0.12237307589E+04  0.00000000000E+00 0.  1.
         -2   -1    0    0    0  501 -0.00000000000E+00 -0.00000000000E+00 -0.69672243569E+02  0.69672243569E+02  0.00000000000E+00 0. -1.
         23    2    1    2    0    0  0.17173870327E+03  0.15958956552E+03  0.28809898029E+03  0.39190436634E+03  0.12499999315E+03 0.  0.
         23    2    1    2    0    0 -0.17173870327E+03 -0.15958956552E+03  0.86595953505E+03  0.90149863614E+03  0.88605095769E+02 0.  0.
          5    1    3    3  502    0  0.11356516541E+03  0.14382034792E+03  0.27426486853E+03  0.32988580960E+03  0.47000000000E+01 0. -1.
         -5    1    3    3    0  502  0.58173537865E+02  0.15769217597E+02  0.13834111765E+02  0.62018556737E+02  0.47000000000E+01 0. -1.
        -11    1    4    4    0    0 -0.57496694607E+02 -0.64022922979E+02  0.17941973082E+03  0.19898805081E+03  0.00000000000E+00 0. -1.
         11    1    4    4    0    0 -0.11424200866E+03 -0.95566642538E+02  0.68653980423E+03  0.70251058533E+03  0.00000000000E+00 0.  1.
<mgrwt>
<rscale>  0 0.26183702E+03</rscale>
<asrwt>0</asrwt>
<pdfrwt beam="1">  1        2 0.18826625E+00 0.26568404E+03</pdfrwt>
<pdfrwt beam="2">  1       -2 0.10718808E-01 0.26568404E+03</pdfrwt>
<totfact> 0.11515048E+03</totfact>
</mgrwt>
</event>
<event>
 8    1  0.1646661E-005  0.1263273E+03  0.7546771E-02  0.1247662E+00
          2   -1    0    0  501    0  0.00000000000E+00  0.00000000000E+00  0.18864184868E+03  0.18864184868E+03  0.00000000000E+00 0. -1.
         -2   -1    0    0    0  501 -0.00000000000E+00 -0.00000000000E+00 -0.75700855219E+02  0.75700855219E+02  0.00000000000E+00 0.  1.
         23    2    1    2    0    0 -0.17959460643E+02 -0.32429184929E+01  0.12578199810E+02  0.12695199356E+03  0.12500215523E+03 0.  0.
         23    2    1    2    0    0  0.17959460643E+02  0.32429184929E+01  0.10036279365E+03  0.13739071034E+03  0.92035092170E+02 0.  0.
          5    1    3    3  502    0 -0.10260324617E+02 -0.90993606772E+01  0.68493974561E+02  0.70011336061E+02  0.47000000000E+01 0.  1.
         -5    1    3    3    0  502 -0.76991360262E+01  0.58564421843E+01 -0.55915774751E+02  0.56940657501E+02  0.47000000000E+01 0.  1.
        -11    1    4    4    0    0  0.49204361270E+02  0.13165771201E+02  0.28412357371E+02  0.58323826612E+02  0.00000000000E+00 0.  1.
         11    1    4    4    0    0 -0.31244900627E+02 -0.99228527080E+01  0.71950436284E+02  0.79066883728E+02  0.00000000000E+00 0. -1.
<mgrwt>
<rscale>  0 0.11727489E+03</rscale>
<asrwt>0</asrwt>
<pdfrwt beam="1">  1        2 0.29021823E-01 0.12632734E+03</pdfrwt>
<pdfrwt beam="2">  1       -2 0.11646285E-01 0.12632734E+03</pdfrwt>
<totfact> 0.88734849E+03</totfact>
</mgrwt>
</event>
<event>
 8    1  0.1646661E-005  0.2031006E+03  0.7546771E-02  0.1151544E+00
          2   -1    0    0  501    0  0.00000000000E+00  0.00000000000E+00  0.39069339193E+03  0.39069339193E+03  0.00000000000E+00 0.  1.
         -2   -1    0    0    0  501 -0.00000000000E+00 -0.00000000000E+00 -0.95418815855E+02  0.95418815855E+02  0.00000000000E+00 0. -1.
         23    2    1    2    0    0  0.15968564788E+03 -0.11195110211E+02  0.15980003265E+03  0.25842971148E+03  0.12500011484E+03 0.  0.
         23    2    1    2    0    0 -0.15968564788E+03  0.11195110211E+02  0.13547454343E+03  0.22768249631E+03  0.88663016961E+02 0.  0.
          5    1    3    3  502    0  0.62640382179E+02  0.52990538461E+02  0.40136352798E+02  0.91459452556E+02  0.47000000000E+01 0.  1.
         -5    1    3    3    0  502  0.97045265697E+02 -0.64185648672E+02  0.11966367985E+03  0.16697025892E+03  0.47000000000E+01 0.  1.
        -11    1    4    4    0    0 -0.54315277144E+02  0.44242933637E+02  0.34681883546E+02  0.78169172660E+02  0.00000000000E+00 0. -1.
         11    1    4    4    0    0 -0.10537037073E+03 -0.33047823426E+02  0.10079265988E+03  0.14951332364E+03  0.00000000000E+00 0.  1.
<mgrwt>
<rscale>  0 0.19787517E+03</rscale>
<asrwt>0</asrwt>
<pdfrwt beam="1">  1        2 0.60106675E-01 0.20310063E+03</pdfrwt>
<pdfrwt beam="2">  1       -2 0.14679818E-01 0.20310063E+03</pdfrwt>
<totfact> 0.28693688E+03</totfact>
</mgrwt>
</event>
<event>
 8    1  0.1646661E-005  0.1338686E+03  0.7546771E-02  0.1234573E+00
         -1   -1    0    0    0  501 -0.00000000000E+00  0.00000000000E+00  0.29809377439E+03  0.29809377439E+03  0.00000000000E+00 0.  1.
          1   -1    0    0  501    0  0.00000000000E+00 -0.00000000000E+00 -0.47057715319E+02  0.47057715319E+02  0.00000000000E+00 0. -1.
         23    2    1    2    0    0  0.25713992015E+02 -0.40424484336E+02  0.13489730204E+03  0.19004757553E+03  0.12500180218E+03 0.  0.
         23    2    1    2    0    0 -0.25713992015E+02  0.40424484336E+02  0.11613875703E+03  0.15510391418E+03  0.90959688822E+02 0.  0.
          5    1    3    3  502    0 -0.42860566425E+02 -0.20206655124E+02  0.99119389273E+02  0.10996399590E+03  0.47000000000E+01 0. -1.
         -5    1    3    3    0  502  0.68574558440E+02 -0.20217829213E+02  0.35777912771E+02  0.80083579625E+02  0.47000000000E+01 0. -1.
        -11    1    4    4    0    0  0.16837344821E+02  0.28716324832E+02  0.27177303509E+01  0.33399244763E+02  0.00000000000E+00 0. -1.
         11    1    4    4    0    0 -0.42551336836E+02  0.11708159504E+02  0.11342102667E+03  0.12170466942E+03  0.00000000000E+00 0.  1.
<mgrwt>
<rscale>  0 0.12531796E+03</rscale>
<asrwt>0</asrwt>
<pdfrwt beam="2">  1        1 0.72396487E-02 0.13386859E+03</pdfrwt>
<pdfrwt beam="1">  1       -1 0.45860580E-01 0.13386859E+03</pdfrwt>
<totfact> 0.45886043E+03</totfact>
</mgrwt>
</event>
<event>
 8    1  0.1646661E-005  0.1515399E+03  0.7546771E-02  0.1202702E+00
          1   -1    0    0  501    0  0.00000000000E+00  0.00000000000E+00  0.10538082459E+04  0.10538082459E+04  0.00000000000E+00 0. -1.
         -1   -1    0    0    0  501 -0.00000000000E+00 -0.00000000000E+00 -0.20101113125E+02  0.20101113125E+02  0.00000000000E+00 0.  1.
         23    2    1    2    0    0  0.59669253710E+01 -0.85460768666E+02  0.49687572881E+03  0.51947072608E+03  0.12500079274E+03 0.  0.
         23    2    1    2    0    0 -0.59669253710E+01  0.85460768666E+02  0.53683140391E+03  0.55443863290E+03  0.10897290602E+03 0.  0.
          5    1    3    3  502    0  0.30762416825E+02 -0.65995367804E+02  0.11451996502E+03  0.13578890694E+03  0.47000000000E+01 0. -1.
         -5    1    3    3    0  502 -0.24795491454E+02 -0.19465400862E+02  0.38235576380E+03  0.38368181914E+03  0.47000000000E+01 0. -1.
        -11    1    4    4    0    0 -0.50219956371E+02  0.19913452124E+02  0.29787994845E+03  0.30273924966E+03  0.00000000000E+00 0.  1.
         11    1    4    4    0    0  0.44253031000E+02  0.65547316542E+02  0.23895145546E+03  0.25169938324E+03  0.00000000000E+00 0. -1.
<mgrwt>
<rscale>  0 0.14819999E+03</rscale>
<asrwt>0</asrwt>
<pdfrwt beam="1">  1        1 0.16212430E+00 0.15153991E+03</pdfrwt>
<pdfrwt beam="2">  1       -1 0.30924798E-02 0.15153991E+03</pdfrwt>
<totfact> 0.51572397E+03</totfact>
</mgrwt>
</event>
<event>
 8    1  0.1646661E-005  0.1384650E+03  0.7546771E-02  0.1226252E+00
         -1   -1    0    0    0  501 -0.00000000000E+00  0.00000000000E+00  0.34938064047E+03  0.34938064047E+03  0.00000000000E+00 0.  1.
          1   -1    0    0  501    0  0.00000000000E+00 -0.00000000000E+00 -0.56491981110E+02  0.56491981110E+02  0.00000000000E+00 0. -1.
         23    2    1    2    0    0  0.45706251522E+02  0.38202798872E+02  0.25330245005E+03  0.28867749733E+03  0.12499620390E+03 0.  0.
         23    2    1    2    0    0 -0.45706251522E+02 -0.38202798872E+02  0.39586209304E+02  0.11719512425E+03  0.92839183060E+02 0.  0.
          5    1    3    3  502    0  0.71599294118E+02  0.50756870740E+01  0.22867949781E+03  0.23972614425E+03  0.47000000000E+01 0. -1.
         -5    1    3    3    0  502 -0.25893042596E+02  0.33127111798E+02  0.24622952242E+02  0.48951353077E+02  0.47000000000E+01 0. -1.
        -11    1    4    4    0    0 -0.70445333064E+02 -0.44928369256E+02  0.23000944717E+02  0.86661102996E+02  0.00000000000E+00 0. -1.
         11    1    4    4    0    0  0.24739081542E+02  0.67255703842E+01  0.16585264587E+02  0.30534021255E+02  0.00000000000E+00 0.  1.
<mgrwt>
<rscale>  0 0.13081449E+03</rscale>
<asrwt>0</asrwt>
<pdfrwt beam="2">  1        1 0.86910742E-02 0.13846504E+03</pdfrwt>
<pdfrwt beam="1">  1       -1 0.53750867E-01 0.13846504E+03</pdfrwt>
<totfact> 0.26936123E+03</totfact>
</mgrwt>
</event>
<event>
 8    1  0.1646661E-005  0.1727889E+03  0.7546771E-02  0.1181111E+00
          2   -1    0    0  501    0  0.00000000000E+00  0.00000000000E+00  0.11151544453E+03  0.11151544453E+03  0.00000000000E+00 0. -1.
         -2   -1    0    0    0  501 -0.00000000000E+00 -0.00000000000E+00 -0.44112626866E+03  0.44112626866E+03  0.00000000000E+00 0.  1.
         23    2    1    2    0    0  0.11212334221E+03  0.40748856627E+02 -0.35985636824E+03  0.39918992752E+03  0.12499551706E+03 0.  0.
         23    2    1    2    0    0 -0.11212334221E+03 -0.40748856627E+02  0.30245544111E+02  0.15345178568E+03  0.91654483820E+02 0.  0.
          5    1    3    3  502    0  0.79231233452E+02 -0.33633253222E+02 -0.13650195096E+03  0.16144242532E+03  0.47000000000E+01 0. -1.
         -5    1    3    3    0  502  0.32892108760E+02  0.74382109849E+02 -0.22335441728E+03  0.23774750220E+03  0.47000000000E+01 0. -1.
        -11    1    4    4    0    0 -0.26483348251E+02  0.29442283935E+02  0.53765132170E+01  0.39964017719E+02  0.00000000000E+00 0.  1.
         11    1    4    4    0    0 -0.85639993961E+02 -0.70191140561E+02  0.24869030894E+02  0.11348776796E+03  0.00000000000E+00 0. -1.
<mgrwt>
<rscale>  0 0.16690862E+03</rscale>
<asrwt>0</asrwt>
<pdfrwt beam="1">  1        2 0.17156222E-01 0.17278887E+03</pdfrwt>
<pdfrwt beam="2">  1       -2 0.67865581E-01 0.17278887E+03</pdfrwt>
<totfact> 0.67242038E+02</totfact>
</mgrwt>
</event>
<event>
 8    1  0.1646661E-005  0.1934513E+03  0.7546771E-02  0.1159911E+00
         -1   -1    0    0    0  501 -0.00000000000E+00  0.00000000000E+00  0.16080390987E+04  0.16080390987E+04  0.00000000000E+00 0.  1.
          1   -1    0    0  501    0  0.00000000000E+00 -0.00000000000E+00 -0.22034166752E+02  0.22034166752E+02  0.00000000000E+00 0. -1.
         23    2    1    2    0    0 -0.32161521387E+02  0.14410322718E+03  0.10097190331E+04  0.10280836136E+04  0.12499314827E+03 0.  0.
         23    2    1    2    0    0  0.32161521387E+02 -0.14410322718E+03  0.57628589883E+03  0.60198965188E+03  0.92119488931E+02 0.  0.
          5    1    3    3  502    0 -0.44026995235E+00 -0.56198720379E+01  0.54503589852E+00  0.73596102807E+01  0.47000000000E+01 0. -1.
         -5    1    3    3    0  502 -0.31721251435E+02  0.14972309921E+03  0.10091739972E+04  0.10207240033E+04  0.47000000000E+01 0. -1.
        -11    1    4    4    0    0  0.58501007642E+02 -0.66418128651E+02  0.23870544738E+03  0.25458599002E+03  0.00000000000E+00 0. -1.
         11    1    4    4    0    0 -0.26339486255E+02 -0.77685098525E+02  0.33758045146E+03  0.34740366186E+03  0.00000000000E+00 0.  1.
<mgrwt>
<rscale>  0 0.18840139E+03</rscale>
<asrwt>0</asrwt>
<pdfrwt beam="2">  1        1 0.33898731E-02 0.19345126E+03</pdfrwt>
<pdfrwt beam="1">  1       -1 0.24739054E+00 0.19345126E+03</pdfrwt>
<totfact> 0.23732859E+02</totfact>
</mgrwt>
</event>
<event>
 8    1  0.1646661E-005  0.1107826E+03  0.7546771E-02  0.1268833E+00
          2   -1    0    0  501    0  0.00000000000E+00  0.00000000000E+00  0.36617407906E+03  0.36617407906E+03  0.00000000000E+00 0. -1.
         -2   -1    0    0    0  501 -0.00000000000E+00 -0.00000000000E+00 -0.35493079318E+02  0.35493079318E+02  0.00000000000E+00 0.  1.
         23    2    1    2    0    0 -0.11301421509E+02 -0.63073854783E+00  0.85575477885E+02  0.13998554031E+03  0.11020285441E+03 0.  0.
         23    2    1    2    0    0  0.11301421509E+02  0.63073854783E+00  0.24510552186E+03  0.26168161807E+03  0.90952913265E+02 0.  0.
          5    1    3    3  502    0  0.22311531449E+02  0.47032871559E+02  0.40737985258E+02  0.66268913418E+02  0.47000000000E+01 0. -1.
         -5    1    3    3    0  502 -0.33612952958E+02 -0.47663610107E+02  0.44837492627E+02  0.73716626890E+02  0.47000000000E+01 0.  1.
        -11    1    4    4    0    0 -0.25621850044E+02 -0.20859806479E+02  0.38627103541E+02  0.50829753629E+02  0.00000000000E+00 0.  1.
         11    1    4    4    0    0  0.36923271553E+02  0.21490545027E+02  0.20647841831E+03  0.21085186444E+03  0.00000000000E+00 0. -1.
<mgrwt>
<rscale>  0 0.10565552E+03</rscale>
<asrwt>0</asrwt>
<pdfrwt beam="1">  1        2 0.56334471E-01 0.11078262E+03</pdfrwt>
<pdfrwt beam="2">  1       -2 0.54604740E-02 0.11078262E+03</pdfrwt>
<totfact> 0.13942648E+04</totfact>
</mgrwt>
</event>
<event>
 8    1  0.1646661E-005  0.1511260E+03  0.7546771E-02  0.1206353E+00
         -2   -1    0    0    0  501 -0.00000000000E+00  0.00000000000E+00  0.40183077897E+02  0.40183077897E+02  0.00000000000E+00 0.  1.
          2   -1    0    0  501    0  0.00000000000E+00 -0.00000000000E+00 -0.54384087767E+03  0.54384087767E+03  0.00000000000E+00 0. -1.
         23    2    1    2    0    0  0.65394067524E+02 -0.54129022769E+02 -0.17694419586E+03  0.23269791512E+03  0.12503094048E+03 0.  0.
         23    2    1    2    0    0 -0.65394067524E+02  0.54129022769E+02 -0.32671360391E+03  0.35132604045E+03  0.97374907160E+02 0.  0.
          5    1    3    3  502    0  0.84239706068E+02 -0.73276948471E+02 -0.96136608627E+02  0.14741158969E+03  0.47000000000E+01 0.  1.
         -5    1    3    3    0  502 -0.18845638544E+02  0.19147925702E+02 -0.80807587236E+02  0.85286325432E+02  0.47000000000E+01 0.  1.
        -11    1    4    4    0    0  0.66388996847E+01  0.49055737245E+02 -0.78355055325E+02  0.92682549817E+02  0.00000000000E+00 0.  1.
         11    1    4    4    0    0 -0.72032967208E+02  0.50732855240E+01 -0.24835854858E+03  0.25864349063E+03  0.00000000000E+00 0. -1.
<mgrwt>
<rscale>  0 0.14531339E+03</rscale>
<asrwt>0</asrwt>
<pdfrwt beam="2">  1        2 0.83667829E-01 0.15112601E+03</pdfrwt>
<pdfrwt beam="1">  1       -2 0.61820119E-02 0.15112601E+03</pdfrwt>
<totfact> 0.77064771E+03</totfact>
</mgrwt>
</event>
<event>
 7    1  0.1646661E-005  0.1595802E+03  0.7546771E-02  0.1197221E+00
          1   -1    0    0  501    0  0.00000000000E+00  0.00000000000E+00  0.16555542606E+03  0.16555542606E+03  0.00000000000E+00 0. -1.
         -1   -1    0    0    0  501 -0.00000000000E+00 -0.00000000000E+00 -0.14376153473E+03  0.14376153473E+03  0.00000000000E+00 0.  1.
         23    2    1    2    0    0  0.20314344263E+02 -0.42902129502E+02 -0.37834415219E+02  0.13896032687E+03  0.12500105667E+03 0.  0.
          5    1    3    3  502    0  0.66905897869E+02  0.38773199894E+01 -0.23989738746E+02  0.71337439995E+02  0.47000000000E+01 0.  1.
         -5    1    3    3    0  502 -0.46591553605E+02 -0.46779449492E+02 -0.13844676472E+02  0.67622886871E+02  0.47000000000E+01 0.  1.
        -11    1    1    2    0    0 -0.50206465357E+02  0.75201727750E+02 -0.67958541335E+01  0.90676196731E+02  0.00000000000E+00 0.  1.
         11    1    1    2    0    0  0.29892121093E+02 -0.32299598248E+02  0.66424160682E+02  0.79680437203E+02  0.00000000000E+00 0. -1.
<mgrwt>
<rscale>  0 0.15267776E+03</rscale>
<asrwt>0</asrwt>
<pdfrwt beam="1">  1        1 0.25470066E-01 0.15958022E+03</pdfrwt>
<pdfrwt beam="2">  1       -1 0.22117159E-01 0.15958022E+03</pdfrwt>
<totfact> 0.31057865E+03</totfact>
</mgrwt>
</event>
<event>
 8    1  0.1646661E-005  0.1599540E+03  0.7546771E-02  0.1196631E+00
         -2   -1    0    0    0  501 -0.00000000000E+00  0.00000000000E+00  0.62213054062E+02  0.62213054062E+02  0.00000000000E+00 0.  1.
          2   -1    0    0  501    0  0.00000000000E+00 -0.00000000000E+00 -0.34874378620E+03  0.34874378620E+03  0.00000000000E+00 0. -1.
         23    2    1    2    0    0  0.99476076182E+02 -0.84921419687E+01 -0.16202191662E+03  0.22767605206E+03  0.12497070461E+03 0.  0.
         23    2    1    2    0    0 -0.99476076182E+02  0.84921419687E+01 -0.12450881552E+03  0.18328078820E+03  0.90121007388E+02 0.  0.
          5    1    3    3  502    0  0.39574200468E+00 -0.44008576002E+01  0.19631756376E+02  0.20664462677E+02  0.47000000000E+01 0.  1.
         -5    1    3    3    0  502  0.99080334177E+02 -0.40912843685E+01 -0.18165367299E+03  0.20701158939E+03  0.47000000000E+01 0.  1.
        -11    1    4    4    0    0 -0.20564378308E+02 -0.34969535268E+02 -0.19772720481E+02  0.45130062345E+02  0.00000000000E+00 0.  1.
         11    1    4    4    0    0 -0.78911697874E+02  0.43461677237E+02 -0.10473609504E+03  0.13815072586E+03  0.00000000000E+00 0. -1.
<mgrwt>
<rscale>  0 0.15317023E+03</rscale>
<asrwt>0</asrwt>
<pdfrwt beam="2">  1        2 0.53652891E-01 0.15995400E+03</pdfrwt>
<pdfrwt beam="1">  1       -2 0.95712389E-02 0.15995400E+03</pdfrwt>
<totfact> 0.63751030E+03</totfact>
</mgrwt>
</event>
<event>
 8    1  0.1646661E-005  0.1714205E+03  0.7546771E-02  0.1183616E+00
          2   -1    0    0  501    0  0.00000000000E+00  0.00000000000E+00  0.17490555047E+03  0.17490555047E+03  0.00000000000E+00 0. -1.
         -2   -1    0    0    0  501 -0.00000000000E+00 -0.00000000000E+00 -0.14521870271E+03  0.14521870271E+03  0.00000000000E+00 0.  1.
         23    2    1    2    0    0  0.10001992131E+03 -0.61287815867E+02 -0.19963759924E+00  0.17142064653E+03  0.12499926868E+03 0.  0.
         23    2    1    2    0    0 -0.10001992131E+03  0.61287815867E+02  0.29886485358E+02  0.14870360664E+03  0.86367699911E+02 0.  0.
          5    1    3    3  502    0  0.74780148480E+02 -0.94217337133E+02 -0.24871373702E+02  0.12292132627E+03  0.47000000000E+01 0. -1.
         -5    1    3    3    0  502  0.25239772830E+02  0.32929521265E+02  0.24671736103E+02  0.48499320259E+02  0.47000000000E+01 0. -1.
        -11    1    4    4    0    0 -0.83182457167E+02  0.83121680017E+02  0.28997376166E+02  0.12111722707E+03  0.00000000000E+00 0.  1.
         11    1    4    4    0    0 -0.16837464143E+02 -0.21833864150E+02  0.88910919157E+00  0.27586379567E+02  0.00000000000E+00 0. -1.
<mgrwt>
<rscale>  0 0.16458459E+03</rscale>
<asrwt>0</asrwt>
<pdfrwt beam="1">  1        2 0.26908546E-01 0.17142053E+03</pdfrwt>
<pdfrwt beam="2">  1       -2 0.22341339E-01 0.17142053E+03</pdfrwt>
<totfact> 0.33461814E+03</totfact>
</mgrwt>
</event>
<event>
 8    1  0.1646661E-005  0.1287301E+03  0.7546771E-02  0.1243392E+00
         -3   -1    0    0    0  501 -0.00000000000E+00  0.00000000000E+00  0.87649109061E+02  0.87649109061E+02  0.00000000000E+00 0.  1.
          3   -1    0    0  501    0  0.00000000000E+00 -0.00000000000E+00 -0.15327925240E+03  0.15327925240E+03  0.00000000000E+00 0. -1.
         23    2    1    2    0    0 -0.27438238040E+02  0.13930913770E+02 -0.92646565628E+01  0.12906310129E+03  0.12499809194E+03 0.  0.
         23    2    1    2    0    0  0.27438238040E+02 -0.13930913770E+02 -0.56365486775E+02  0.11186526017E+03  0.91596075620E+02 0.  0.
          5    1    3    3  502    0 -0.41711406306E+02 -0.48685250428E+02 -0.64971240683E+01  0.64609578596E+02  0.47000000000E+01 0. -1.
         -5    1    3    3    0  502  0.14273168266E+02  0.62616164198E+02 -0.27675324944E+01  0.64453522691E+02  0.47000000000E+01 0. -1.
        -11    1    4    4    0    0 -0.10258525485E+02  0.16062175640E+02 -0.60581056269E+02  0.63508229467E+02  0.00000000000E+00 0. -1.
         11    1    4    4    0    0  0.37696763525E+02 -0.29993089410E+02  0.42155694932E+01  0.48357030706E+02  0.00000000000E+00 0.  1.
<mgrwt>
<rscale>  0 0.11982150E+03</rscale>
<asrwt>0</asrwt>
<pdfrwt beam="2">  1        3 0.23581423E-01 0.12873015E+03</pdfrwt>
<pdfrwt beam="1">  1       -3 0.13484478E-01 0.12873015E+03</pdfrwt>
<totfact> 0.16934598E+03</totfact>
</mgrwt>
</event>
<event>
 8    1  0.1646661E-005  0.1640647E+03  0.7546771E-02  0.1191468E+00
         -3   -1    0    0    0  501 -0.00000000000E+00  0.00000000000E+00  0.57582662635E+03  0.57582662635E+03  0.00000000000E+00 0.  1.
          3   -1    0    0  501    0  0.00000000000E+00 -0.00000000000E+00 -0.51043100320E+02  0.51043100320E+02  0.00000000000E+00 0. -1.
         23    2    1    2    0    0  0.96866867481E+02  0.43690824356E+02  0.42418997995E+03  0.45481246335E+03  0.12500063833E+03 0.  0.
         23    2    1    2    0    0 -0.96866867481E+02 -0.43690824356E+02  0.10059354608E+03  0.17205726332E+03  0.90512773675E+02 0.  0.
          5    1    3    3  502    0  0.89658668069E+02  0.79241103952E+02  0.37403557072E+03  0.39273722446E+03  0.47000000000E+01 0.  1.
         -5    1    3    3    0  502  0.72081994129E+01 -0.35550279596E+02  0.50154409227E+02  0.62075238888E+02  0.47000000000E+01 0.  1.
        -11    1    4    4    0    0 -0.56162037202E+02  0.20300581200E+01  0.95270947387E+02  0.11061125157E+03  0.00000000000E+00 0.  1.
         11    1    4    4    0    0 -0.40704830279E+02 -0.45720882476E+02  0.53225986968E+01  0.61446011745E+02  0.00000000000E+00 0. -1.
<mgrwt>
<rscale>  0 0.15756980E+03</rscale>
<asrwt>0</asrwt>
<pdfrwt beam="2">  1        3 0.78527850E-02 0.16406474E+03</pdfrwt>
<pdfrwt beam="1">  1       -3 0.88588707E-01 0.16406474E+03</pdfrwt>
<totfact> 0.31228475E+02</totfact>
</mgrwt>
</event>
<event>
 8    1  0.1646661E-005  0.1273122E+03  0.7546771E-02  0.1245147E+00
          1   -1    0    0  501    0  0.00000000000E+00  0.00000000000E+00  0.39227552300E+03  0.39227552300E+03  0.00000000000E+00 0. -1.
         -1   -1    0    0    0  501 -0.00000000000E+00 -0.00000000000E+00 -0.41284168260E+02  0.41284168260E+02  0.00000000000E+00 0.  1.
         23    2    1    2    0    0  0.31629883835E+01  0.19429710783E+02  0.91635075595E+02  0.15686104944E+03  0.12578109394E+03 0.  0.
         23    2    1    2    0    0 -0.31629883835E+01 -0.19429710783E+02  0.25935627914E+03  0.27669864182E+03  0.94387185037E+02 0.  0.
          5    1    3    3  502    0  0.55121300577E+00  0.13480808844E+02  0.12333646237E+03  0.12416122178E+03  0.47000000000E+01 0. -1.
         -5    1    3    3    0  502  0.26117753777E+01  0.59489019384E+01 -0.31701386780E+02  0.32699827655E+02  0.47000000000E+01 0.  1.
        -11    1    4    4    0    0  0.16939336482E+02 -0.44666504077E+02  0.70845033597E+02  0.85446219883E+02  0.00000000000E+00 0. -1.
         11    1    4    4    0    0 -0.20102324866E+02  0.25236793294E+02  0.18851124554E+03  0.19125242194E+03  0.00000000000E+00 0.  1.
<mgrwt>
<rscale>  0 0.11876604E+03</rscale>
<asrwt>0</asrwt>
<pdfrwt beam="1">  1        1 0.60350078E-01 0.12731222E+03</pdfrwt>
<pdfrwt beam="2">  1       -1 0.63514107E-02 0.12731222E+03</pdfrwt>
<totfact> 0.72377287E+03</totfact>
</mgrwt>
</event>
<event>
 8    1  0.1646661E-005  0.1268260E+03  0.7546771E-02  0.1243698E+00
          1   -1    0    0  501    0  0.00000000000E+00  0.00000000000E+00  0.23892533717E+03  0.23892533717E+03  0.00000000000E+00 0. -1.
         -1   -1    0    0    0  501 -0.00000000000E+00 -0.00000000000E+00 -0.56792529142E+02  0.56792529142E+02  0.00000000000E+00 0.  1.
         23    2    1    2    0    0  0.73676077617E+01  0.20138789453E+02  0.68765567151E+02  0.14426893451E+03  0.12499987901E+03 0.  0.
         23    2    1    2    0    0 -0.73676077617E+01 -0.20138789453E+02  0.11336724088E+03  0.15144893181E+03  0.98106040367E+02 0.  0.
          5    1    3    3  502    0  0.65359986658E+02  0.47671178432E+01  0.44650800700E+02  0.79438260754E+02  0.47000000000E+01 0.  1.
         -5    1    3    3    0  502 -0.57992378897E+02  0.15371671610E+02  0.24114766450E+02  0.64830673752E+02  0.47000000000E+01 0.  1.
        -11    1    4    4    0    0 -0.31091123714E+02 -0.24352881875E+02  0.12010351157E+03  0.12643011635E+03  0.00000000000E+00 0. -1.
         11    1    4    4    0    0  0.23723515953E+02  0.42140924219E+01 -0.67362706887E+01  0.25018815457E+02  0.00000000000E+00 0.  1.
<mgrwt>
<rscale>  0 0.11963650E+03</rscale>
<asrwt>0</asrwt>
<pdfrwt beam="1">  1        1 0.36757744E-01 0.12682595E+03</pdfrwt>
<pdfrwt beam="2">  1       -1 0.87373123E-02 0.12682595E+03</pdfrwt>
<totfact> 0.82866017E+03</totfact>
</mgrwt>
</event>
<event>
 8    1  0.1646661E-005  0.1681047E+03  0.7546771E-02  0.1186350E+00
         -3   -1    0    0    0  501 -0.00000000000E+00  0.00000000000E+00  0.11681822254E+04  0.11681822254E+04  0.00000000000E+00 0.  1.
          3   -1    0    0  501    0  0.00000000000E+00 -0.00000000000E+00 -0.30469370632E+02  0.30469370632E+02  0.00000000000E+00 0. -1.
         23    2    1    2    0    0 -0.79145301475E+02 -0.79807740815E+02  0.93044567855E+03  0.94550956811E+03  0.12500371363E+03 0.  0.
         23    2    1    2    0    0  0.79145301475E+02  0.79807740815E+02  0.20726717626E+03  0.25314202797E+03  0.92130069612E+02 0.  0.
          5    1    3    3  502    0 -0.54433383594E+02 -0.85138087518E+02  0.34566072646E+03  0.36015956882E+03  0.47000000000E+01 0. -1.
         -5    1    3    3    0  502 -0.24711917881E+02  0.53303467030E+01  0.58478495210E+03  0.58534999930E+03  0.47000000000E+01 0. -1.
        -11    1    4    4    0    0 -0.40306044874E+01  0.27971029471E+02  0.54419307443E+01  0.28779139536E+02  0.00000000000E+00 0. -1.
         11    1    4    4    0    0  0.83175905962E+02  0.51836711344E+02  0.20182524552E+03  0.22436288843E+03  0.00000000000E+00 0.  1.
<mgrwt>
<rscale>  0 0.16209689E+03</rscale>
<asrwt>0</asrwt>
<pdfrwt beam="2">  1        3 0.46875964E-02 0.16810468E+03</pdfrwt>
<pdfrwt beam="1">  1       -3 0.17972031E+00 0.16810468E+03</pdfrwt>
<totfact> 0.13024583E+02</totfact>
</mgrwt>
</event>
<event>
 8    1  0.1646661E-005  0.1294647E+03  0.7546771E-02  0.1241509E+00
          1   -1    0    0  501    0  0.00000000000E+00  0.00000000000E+00  0.56064956977E+02  0.56064956977E+02  0.00000000000E+00 0. -1.
         -1   -1    0    0    0  501 -0.00000000000E+00 -0.00000000000E+00 -0.25523848793E+03  0.25523848793E+03  0.00000000000E+00 0.  1.
         23    2    1    2    0    0  0.13799845157E+02 -0.30526302596E+02 -0.15828758148E+03  0.20448980059E+03  0.12505530463E+03 0.  0.
         23    2    1    2    0    0 -0.13799845157E+02  0.30526302596E+02 -0.40885949474E+02  0.10681364433E+03  0.92818117160E+02 0.  0.
          5    1    3    3  502    0  0.25027983847E+01 -0.67153340846E+01  0.21278255636E+02  0.22939352095E+02  0.47000000000E+01 0.  1.
         -5    1    3    3    0  502  0.11297046772E+02 -0.23810968511E+02 -0.17956583712E+03  0.18155044849E+03  0.47000000000E+01 0.  1.
        -11    1    4    4    0    0 -0.26452763953E+02  0.65437035320E+01 -0.65028751040E+02  0.70507497747E+02  0.00000000000E+00 0.  1.
         11    1    4    4    0    0  0.12652918796E+02  0.23982599064E+02  0.24142801567E+02  0.36306146579E+02  0.00000000000E+00 0. -1.
<mgrwt>
<rscale>  0 0.12096773E+03</rscale>
<asrwt>0</asrwt>
<pdfrwt beam="1">  1        1 0.86253781E-02 0.12946474E+03</pdfrwt>
<pdfrwt beam="2">  1       -1 0.39267459E-01 0.12946474E+03</pdfrwt>
<totfact> 0.47647350E+03</totfact>
</mgrwt>
</event>
<event>
 8    1  0.1646661E-005  0.1272775E+03  0.7546771E-02  0.1241289E+00
          1   -1    0    0  501    0  0.00000000000E+00  0.00000000000E+00  0.15970219182E+03  0.15970219182E+03  0.00000000000E+00 0. -1.
         -1   -1    0    0    0  501 -0.00000000000E+00 -0.00000000000E+00 -0.39940779930E+03  0.39940779930E+03  0.00000000000E+00 0.  1.
         23    2    1    2    0    0  0.43073506862E+02  0.14658795765E+02 -0.37053303259E+03  0.39178347833E+03  0.11886697760E+03 0.  0.
         23    2    1    2    0    0 -0.43073506862E+02 -0.14658795765E+02  0.13082742511E+03  0.16732651280E+03  0.93872996317E+02 0.  0.
          5    1    3    3  502    0 -0.29345042981E+02 -0.29090097676E+02 -0.10041626921E+03  0.10868708503E+03  0.47000000000E+01 0. -1.
         -5    1    3    3    0  502  0.72418549844E+02  0.43748893441E+02 -0.27011676339E+03  0.28309639330E+03  0.47000000000E+01 0.  1.
        -11    1    4    4    0    0  0.14058211153E+02 -0.34456699062E+02  0.23130313463E+02  0.43816764052E+02  0.00000000000E+00 0.  1.
         11    1    4    4    0    0 -0.57131718015E+02  0.19797903297E+02  0.10769711165E+03  0.12350974875E+03  0.00000000000E+00 0. -1.
<mgrwt>
<rscale>  0 0.12110277E+03</rscale>
<asrwt>0</asrwt>
<pdfrwt beam="1">  1        1 0.24569568E-01 0.12727751E+03</pdfrwt>
<pdfrwt beam="2">  1       -1 0.61447353E-01 0.12727751E+03</pdfrwt>
<totfact> 0.54380573E+02</totfact>
</mgrwt>
</event>
<event>
 8    1  0.1646661E-005  0.1458196E+03  0.7546771E-02  0.1215920E+00
         -2   -1    0    0    0  501 -0.00000000000E+00  0.00000000000E+00  0.65792882121E+02  0.65792882121E+02  0.00000000000E+00 0.  1.
          2   -1    0    0  501    0  0.00000000000E+00 -0.00000000000E+00 -0.27429651348E+03  0.27429651348E+03  0.00000000000E+00 0. -1.
         23    2    1    2    0    0 -0.50625796917E+02 -0.55413324485E+02 -0.80823721001E+02  0.16672083590E+03  0.12501902017E+03 0.  0.
         23    2    1    2    0    0  0.50625796917E+02  0.55413324485E+02 -0.12767991036E+03  0.17336855970E+03  0.90115981596E+02 0.  0.
          5    1    3    3  502    0 -0.21163390195E+01  0.27831697462E+01 -0.90062004645E+02  0.90252310804E+02  0.47000000000E+01 0. -1.
         -5    1    3    3    0  502 -0.48509457897E+02 -0.58196494231E+02  0.92382836439E+01  0.76468525100E+02  0.47000000000E+01 0. -1.
        -11    1    4    4    0    0  0.58479857269E+02  0.83237970894E+01 -0.10509090522E+03  0.12055404458E+03  0.00000000000E+00 0. -1.
         11    1    4    4    0    0 -0.78540603527E+01  0.47089527395E+02 -0.22589005140E+02  0.52814515122E+02  0.00000000000E+00 0.  1.
<mgrwt>
<rscale>  0 0.13809170E+03</rscale>
<asrwt>0</asrwt>
<pdfrwt beam="2">  1        2 0.42199465E-01 0.14581963E+03</pdfrwt>
<pdfrwt beam="1">  1       -2 0.10121982E-01 0.14581963E+03</pdfrwt>
<totfact> 0.74937343E+03</totfact>
</mgrwt>
</event>
<event>
 8    1  0.1646661E-005  0.4971709E+03  0.7546771E-02  0.1015028E+00
          1   -1    0    0  501    0  0.00000000000E+00  0.00000000000E+00  0.23139565868E+04  0.23139565868E+04  0.00000000000E+00 0. -1.
         -1   -1    0    0    0  501 -0.00000000000E+00 -0.00000000000E+00 -0.18194690785E+03  0.18194690785E+03  0.00000000000E+00 0.  1.
         23    2    1    2    0    0  0.44183816769E+03 -0.19061082840E+03  0.26019350962E+03  0.56114135099E+03  0.12500199602E+03 0.  0.
         23    2    1    2    0    0 -0.44183816769E+03  0.19061082840E+03  0.18718161693E+04  0.19347621436E+04  0.89751470558E+02 0.  0.
          5    1    3    3  502    0  0.38960649649E+03 -0.14123842457E+03  0.17579382029E+03  0.45018559721E+03  0.47000000000E+01 0. -1.
         -5    1    3    3    0  502  0.52231671191E+02 -0.49372403835E+02  0.84399689335E+02  0.11095575377E+03  0.47000000000E+01 0. -1.
        -11    1    4    4    0    0 -0.14142768712E+03  0.19244161443E+02  0.60210768471E+03  0.61879382061E+03  0.00000000000E+00 0.  1.
         11    1    4    4    0    0 -0.30041048057E+03  0.17136666696E+03  0.12697084846E+04  0.13159683230E+04  0.00000000000E+00 0. -1.
<mgrwt>
<rscale>  0 0.49524164E+03</rscale>
<asrwt>0</asrwt>
<pdfrwt beam="1">  1        1 0.35599330E+00 0.49717095E+03</pdfrwt>
<pdfrwt beam="2">  1       -1 0.27991834E-01 0.49717095E+03</pdfrwt>
<totfact> 0.22886372E+01</totfact>
</mgrwt>
</event>
<event>
 8    1  0.1646661E-005  0.1782924E+03  0.7546771E-02  0.1174949E+00
         -1   -1    0    0    0  501 -0.00000000000E+00  0.00000000000E+00  0.51469893586E+02  0.51469893586E+02  0.00000000000E+00 0.  1.
          1   -1    0    0  501    0  0.00000000000E+00 -0.00000000000E+00 -0.55217259085E+03  0.55217259085E+03  0.00000000000E+00 0. -1.
         23    2    1    2    0    0 -0.58480057754E+02  0.11285677258E+03 -0.29442584640E+03  0.34420161619E+03  0.12502641836E+03 0.  0.
         23    2    1    2    0    0  0.58480057754E+02 -0.11285677258E+03 -0.20627685086E+03  0.25944086824E+03  0.92751585661E+02 0.  0.
          5    1    3    3  502    0 -0.30267187782E+02  0.12492521433E+03 -0.28346007679E+03  0.31127819867E+03  0.47000000000E+01 0.  1.
         -5    1    3    3    0  502 -0.28212869972E+02 -0.12068441750E+02 -0.10965769609E+02  0.32923417524E+02  0.47000000000E+01 0.  1.
        -11    1    4    4    0    0  0.81182832404E+02 -0.82530840627E+02 -0.12868259758E+03  0.17309304681E+03  0.00000000000E+00 0.  1.
         11    1    4    4    0    0 -0.22702774650E+02 -0.30325931949E+02 -0.77594253274E+02  0.86347821435E+02  0.00000000000E+00 0. -1.
<mgrwt>
<rscale>  0 0.17280932E+03</rscale>
<asrwt>0</asrwt>
<pdfrwt beam="2">  1        1 0.84949635E-01 0.17829238E+03</pdfrwt>
<pdfrwt beam="1">  1       -1 0.79184447E-02 0.17829238E+03</pdfrwt>
<totfact> 0.33938192E+03</totfact>
</mgrwt>
</event>
<event>
 8    1  0.1646661E-005  0.1274666E+03  0.7546771E-02  0.1246082E+00
          1   -1    0    0  501    0  0.00000000000E+00  0.00000000000E+00  0.11365391901E+02  0.11365391901E+02  0.00000000000E+00 0. -1.
         -1   -1    0    0    0  501 -0.00000000000E+00 -0.00000000000E+00 -0.12283705337E+04  0.12283705337E+04  0.00000000000E+00 0.  1.
         23    2    1    2    0    0  0.99435140470E+01  0.22859699471E+02 -0.90085184928E+03  0.90982513618E+03  0.12500513880E+03 0.  0.
         23    2    1    2    0    0 -0.99435140470E+01 -0.22859699471E+02 -0.31615329247E+03  0.32991078938E+03  0.90921863588E+02 0.  0.
          5    1    3    3  502    0 -0.25525924973E+02  0.57219603834E+02 -0.27850626813E+03  0.28550566946E+03  0.47000000000E+01 0.  1.
         -5    1    3    3    0  502  0.35469439020E+02 -0.34359904363E+02 -0.62234558116E+03  0.62431946671E+03  0.47000000000E+01 0.  1.
        -11    1    4    4    0    0  0.37595640703E+02  0.66153903883E+01 -0.13804092038E+03  0.14322182546E+03  0.00000000000E+00 0. -1.
         11    1    4    4    0    0 -0.47539154750E+02 -0.29475089859E+02 -0.17811237209E+03  0.18668896392E+03  0.00000000000E+00 0.  1.
<mgrwt>
<rscale>  0 0.11820860E+03</rscale>
<asrwt>0</asrwt>
<pdfrwt beam="1">  1        1 0.17485215E-02 0.12746656E+03</pdfrwt>
<pdfrwt beam="2">  1       -1 0.18898012E+00 0.12746656E+03</pdfrwt>
<totfact> 0.14112734E+03</totfact>
</mgrwt>
</event>
<event>
 8    1  0.1646661E-005  0.1255026E+03  0.7546771E-02  0.1249681E+00
         -3   -1    0    0    0  501 -0.00000000000E+00  0.00000000000E+00  0.24703698870E+03  0.24703698870E+03  0.00000000000E+00 0.  1.
          3   -1    0    0  501    0  0.00000000000E+00 -0.00000000000E+00 -0.47869856684E+02  0.47869856684E+02  0.00000000000E+00 0. -1.
         23    2    1    2    0    0 -0.64517474957E+01  0.91884375786E+01  0.11919956396E+03  0.17308792063E+03  0.12499935916E+03 0.  0.
         23    2    1    2    0    0  0.64517474957E+01 -0.91884375786E+01  0.79967568060E+02  0.12181892475E+03  0.91208475788E+02 0.  0.
          5    1    3    3  502    0  0.57302288710E+02 -0.10480391257E+02  0.51025001631E+02  0.77582418652E+02  0.47000000000E+01 0.  1.
         -5    1    3    3    0  502 -0.63754036206E+02  0.19668828836E+02  0.68174562325E+02  0.95505501980E+02  0.47000000000E+01 0.  1.
        -11    1    4    4    0    0  0.13017086585E+02 -0.40732075262E+02  0.78708848819E+02  0.89574713958E+02  0.00000000000E+00 0.  1.
         11    1    4    4    0    0 -0.65653390890E+01  0.31543637683E+02  0.12587192417E+01  0.32244210795E+02  0.00000000000E+00 0. -1.
<mgrwt>
<rscale>  0 0.11609530E+03</rscale>
<asrwt>0</asrwt>
<pdfrwt beam="2">  1        3 0.73645935E-02 0.12550256E+03</pdfrwt>
<pdfrwt beam="1">  1       -3 0.38005690E-01 0.12550256E+03</pdfrwt>
<totfact> 0.18945977E+03</totfact>
</mgrwt>
</event>
<event>
 8    1  0.1646661E-005  0.1458191E+03  0.7546771E-02  0.1215877E+00
          4   -1    0    0  501    0  0.00000000000E+00  0.00000000000E+00  0.36874828324E+03  0.36874828324E+03  0.00000000000E+00 0. -1.
         -4   -1    0    0    0  501 -0.00000000000E+00 -0.00000000000E+00 -0.51927332771E+02  0.51927332771E+02  0.00000000000E+00 0.  1.
         23    2    1    2    0    0  0.50790041377E+02  0.55291645491E+02  0.10922913970E+03  0.18219278141E+03  0.12500564097E+03 0.  0.
         23    2    1    2    0    0 -0.50790041377E+02 -0.55291645491E+02  0.20759181078E+03  0.23848283461E+03  0.90238063677E+02 0.  0.
          5    1    3    3  502    0  0.20752213556E+01  0.27643378916E+01 -0.27311550291E+02  0.27927744036E+02  0.47000000000E+01 0.  1.
         -5    1    3    3    0  502  0.48714820021E+02  0.52527307599E+02  0.13654068999E+03  0.15426503737E+03  0.47000000000E+01 0.  1.
        -11    1    4    4    0    0 -0.27357534111E+02  0.19964445004E+02  0.96495317080E+02  0.10226612320E+03  0.00000000000E+00 0. -1.
         11    1    4    4    0    0 -0.23432507265E+02 -0.75256090495E+02  0.11109649370E+03  0.13621671140E+03  0.00000000000E+00 0.  1.
<mgrwt>
<rscale>  0 0.13812292E+03</rscale>
<asrwt>0</asrwt>
<pdfrwt beam="1">  1        4 0.56730504E-01 0.14581908E+03</pdfrwt>
<pdfrwt beam="2">  1       -4 0.79888207E-02 0.14581908E+03</pdfrwt>
<totfact> 0.55572701E+02</totfact>
</mgrwt>
</event>
<event>
 8    1  0.1646661E-005  0.1565680E+03  0.7546771E-02  0.1200803E+00
          2   -1    0    0  501    0  0.00000000000E+00  0.00000000000E+00  0.12471263988E+03  0.12471263988E+03  0.00000000000E+00 0. -1.
         -2   -1    0    0    0  501 -0.00000000000E+00 -0.00000000000E+00 -0.16574320472E+03  0.16574320472E+03  0.00000000000E+00 0.  1.
         23    2    1    2    0    0 -0.71059919796E+02 -0.61959261778E+02 -0.21044705361E+02  0.15797596427E+03  0.12500025337E+03 0.  0.
         23    2    1    2    0    0  0.71059919796E+02  0.61959261778E+02 -0.19985859476E+02  0.13247988034E+03  0.90901164972E+02 0.  0.
          5    1    3    3  502    0  0.24385937543E+02 -0.47141247093E+02 -0.29498889765E+02  0.60903576452E+02  0.47000000000E+01 0. -1.
         -5    1    3    3    0  502 -0.95445857340E+02 -0.14818014685E+02  0.84541844035E+01  0.97072387817E+02  0.47000000000E+01 0. -1.
        -11    1    4    4    0    0  0.70595299065E+02  0.32700848604E+01 -0.21180483538E+02  0.73776707625E+02  0.00000000000E+00 0. -1.
         11    1    4    4    0    0  0.46462073188E+00  0.58689176918E+02  0.11946240622E+01  0.58703172711E+02  0.00000000000E+00 0.  1.
<mgrwt>
<rscale>  0 0.14973209E+03</rscale>
<asrwt>0</asrwt>
<pdfrwt beam="1">  1        2 0.19186560E-01 0.15656796E+03</pdfrwt>
<pdfrwt beam="2">  1       -2 0.25498954E-01 0.15656796E+03</pdfrwt>
<totfact> 0.38653517E+03</totfact>
</mgrwt>
</event>
<event>
 8    1  0.1646661E-005  0.2031925E+03  0.7546771E-02  0.1151492E+00
          1   -1    0    0  501    0  0.00000000000E+00  0.00000000000E+00  0.13444210056E+03  0.13444210056E+03  0.00000000000E+00 0. -1.
         -1   -1    0    0    0  501 -0.00000000000E+00 -0.00000000000E+00 -0.28999520105E+03  0.28999520105E+03  0.00000000000E+00 0.  1.
         23    2    1    2    0    0  0.21702466025E+02 -0.15871686725E+03 -0.12602644176E+03  0.23910218820E+03  0.12500060560E+03 0.  0.
         23    2    1    2    0    0 -0.21702466025E+02  0.15871686725E+03 -0.29526658726E+02  0.18533511341E+03  0.88403844410E+02 0.  0.
          5    1    3    3  502    0  0.73888624567E+02 -0.84618776443E+02 -0.70442198290E+02  0.13268029042E+03  0.47000000000E+01 0. -1.
         -5    1    3    3    0  502 -0.52186158542E+02 -0.74098090809E+02 -0.55584243471E+02  0.10642189778E+03  0.47000000000E+01 0. -1.
        -11    1    4    4    0    0 -0.24775453549E+02  0.80546770853E+02 -0.57760189075E+02  0.10216577135E+03  0.00000000000E+00 0.  1.
         11    1    4    4    0    0  0.30729875236E+01  0.78170096399E+02  0.28233530349E+02  0.83169342064E+02  0.00000000000E+00 0. -1.
<mgrwt>
<rscale>  0 0.19793588E+03</rscale>
<asrwt>0</asrwt>
<pdfrwt beam="1">  1        1 0.20683400E-01 0.20319250E+03</pdfrwt>
<pdfrwt beam="2">  1       -1 0.44614646E-01 0.20319250E+03</pdfrwt>
<totfact> 0.12316867E+03</totfact>
</mgrwt>
</event>
<event>
 8    1  0.1646661E-005  0.1511311E+03  0.7546771E-02  0.1207773E+00
          2   -1    0    0  501    0  0.00000000000E+00  0.00000000000E+00  0.16202048209E+03  0.16202048209E+03  0.00000000000E+00 0.  1.
         -2   -1    0    0    0  501 -0.00000000000E+00 -0.00000000000E+00 -0.15074354263E+03  0.15074354263E+03  0.00000000000E+00 0. -1.
         23    2    1    2    0    0 -0.71814698212E+01 -0.84643949329E+02 -0.66691948546E+02  0.16519210354E+03  0.12499777359E+03 0.  0.
         23    2    1    2    0    0  0.71814698212E+01  0.84643949329E+02  0.77968888003E+02  0.14757192119E+03  0.92098603460E+02 0.  0.
          5    1    3    3  502    0  0.36084967049E+02 -0.42537360148E+02 -0.85134629616E+02  0.10188987690E+03  0.47000000000E+01 0. -1.
         -5    1    3    3    0  502 -0.43266436870E+02 -0.42106589181E+02  0.18442681070E+02  0.63302226635E+02  0.47000000000E+01 0. -1.
        -11    1    4    4    0    0  0.42488575395E+02  0.11640886334E+02  0.30872862980E+02  0.53795194417E+02  0.00000000000E+00 0.  1.
         11    1    4    4    0    0 -0.35307105574E+02  0.73003062994E+02  0.47096025022E+02  0.93776726769E+02  0.00000000000E+00 0. -1.
<mgrwt>
<rscale>  0 0.14421057E+03</rscale>
<asrwt>0</asrwt>
<pdfrwt beam="1">  1        2 0.24926228E-01 0.15113112E+03</pdfrwt>
<pdfrwt beam="2">  1       -2 0.23191314E-01 0.15113112E+03</pdfrwt>
<totfact> 0.33924176E+03</totfact>
</mgrwt>
</event>
<event>
 7    1  0.1646661E-005  0.3103210E+03  0.7546771E-02  0.1091065E+00
          2   -1    0    0  501    0  0.00000000000E+00  0.00000000000E+00  0.48861440483E+03  0.48861440483E+03  0.00000000000E+00 0. -1.
         -2   -1    0    0    0  501 -0.00000000000E+00 -0.00000000000E+00 -0.15268220034E+03  0.15268220034E+03  0.00000000000E+00 0.  1.
         23    2    1    2    0    0 -0.19194449570E+03  0.94446331141E+02  0.18101860619E+03  0.29445750598E+03  0.90413982039E+02 0.  0.
          5    1    1    2  502    0  0.77018614387E+02 -0.14127860342E+03  0.15380685603E+03  0.22264354854E+03  0.47000000000E+01 0. -1.
         -5    1    1    2    0  502  0.11492588131E+03  0.46832272276E+02  0.11067422699E+01  0.12419555065E+03  0.47000000000E+01 0.  1.
        -11    1    3    3    0    0 -0.76226281343E+02  0.87808095052E+02  0.87379885240E+02  0.14545085723E+03  0.00000000000E+00 0.  1.
         11    1    3    3    0    0 -0.11571821436E+03  0.66382360887E+01  0.93638720949E+02  0.14900664875E+03  0.00000000000E+00 0. -1.
<mgrwt>
<rscale>  0 0.28863217E+03</rscale>
<asrwt>0</asrwt>
<pdfrwt beam="1">  1        2 0.75171446E-01 0.31032102E+03</pdfrwt>
<pdfrwt beam="2">  1       -2 0.23489569E-01 0.31032102E+03</pdfrwt>
<totfact> 0.10165809E+03</totfact>
</mgrwt>
</event>
<event>
 8    1  0.1646661E-005  0.1770877E+03  0.7546771E-02  0.1176988E+00
         -2   -1    0    0    0  501 -0.00000000000E+00  0.00000000000E+00  0.42523872961E+03  0.42523872961E+03  0.00000000000E+00 0. -1.
          2   -1    0    0  501    0  0.00000000000E+00 -0.00000000000E+00 -0.71536309089E+02  0.71536309089E+02  0.00000000000E+00 0.  1.
         23    2    1    2    0    0 -0.99638497970E+02 -0.76200989269E+02  0.26766984893E+03  0.32094733478E+03  0.12500249051E+03 0.  0.
         23    2    1    2    0    0  0.99638497970E+02  0.76200989269E+02  0.86032571590E+02  0.17582770392E+03  0.88200663530E+02 0.  0.
          5    1    3    3  502    0 -0.32331174813E+02 -0.38922607457E+02  0.97359568983E+01  0.51741212711E+02  0.47000000000E+01 0.  1.
         -5    1    3    3    0  502 -0.67307323157E+02 -0.37278381812E+02  0.25793389204E+03  0.26920612207E+03  0.47000000000E+01 0.  1.
        -11    1    4    4    0    0  0.52862428716E+02  0.46788236276E+02 -0.34292406395E+01  0.70677684703E+02  0.00000000000E+00 0.  1.
         11    1    4    4    0    0  0.46776069253E+02  0.29412752994E+02  0.89461812229E+02  0.10515001921E+03  0.00000000000E+00 0. -1.
<mgrwt>
<rscale>  0 0.17082701E+03</rscale>
<asrwt>0</asrwt>
<pdfrwt beam="2">  1        2 0.11005586E-01 0.17708767E+03</pdfrwt>
<pdfrwt beam="1">  1       -2 0.65421342E-01 0.17708767E+03</pdfrwt>
<totfact> 0.12339679E+03</totfact>
</mgrwt>
</event>
<event>
 8    1  0.1646661E-005  0.1270352E+03  0.7546771E-02  0.1247453E+00
         -2   -1    0    0    0  501 -0.00000000000E+00  0.00000000000E+00  0.13775032005E+03  0.13775032005E+03  0.00000000000E+00 0. -1.
          2   -1    0    0  501    0  0.00000000000E+00 -0.00000000000E+00 -0.10738620435E+03  0.10738620435E+03  0.00000000000E+00 0.  1.
         23    2    1    2    0    0  0.37305233075E+01 -0.22287469001E+02  0.69215075626E+02  0.14466746076E+03  0.12500919739E+03 0.  0.
         23    2    1    2    0    0 -0.37305233075E+01  0.22287469001E+02 -0.38850959923E+02  0.10046906364E+03  0.89855370358E+02 0.  0.
          5    1    3    3  502    0  0.19691744570E+00  0.44071924059E+02  0.63993636709E+02  0.77843746095E+02  0.47000000000E+01 0.  1.
         -5    1    3    3    0  502  0.35336058618E+01 -0.66359393060E+02  0.52214389161E+01  0.66823714668E+02  0.47000000000E+01 0.  1.
        -11    1    4    4    0    0 -0.21363812859E+02 -0.78142835165E+01 -0.56836289229E+02  0.61219598986E+02  0.00000000000E+00 0.  1.
         11    1    4    4    0    0  0.17633289551E+02  0.30101752518E+02  0.17985329305E+02  0.39249464649E+02  0.00000000000E+00 0. -1.
<mgrwt>
<rscale>  0 0.11739736E+03</rscale>
<asrwt>0</asrwt>
<pdfrwt beam="2">  1        2 0.16520954E-01 0.12703522E+03</pdfrwt>
<pdfrwt beam="1">  1       -2 0.21192357E-01 0.12703522E+03</pdfrwt>
<totfact> 0.62359154E+03</totfact>
</mgrwt>
</event>
<event>
 8    1  0.1646661E-005  0.1270580E+03  0.7546771E-02  0.1246624E+00
          2   -1    0    0  501    0  0.00000000000E+00  0.00000000000E+00  0.25659425104E+02  0.25659425104E+02  0.00000000000E+00 0. -1.
         -2   -1    0    0    0  501 -0.00000000000E+00 -0.00000000000E+00 -0.48679146769E+03  0.48679146769E+03  0.00000000000E+00 0.  1.
         23    2    1    2    0    0  0.17557677320E+02 -0.14517979872E+02 -0.30048354130E+03  0.32624239391E+03  0.12499878886E+03 0.  0.
         23    2    1    2    0    0 -0.17557677320E+02  0.14517979872E+02 -0.16064850128E+03  0.18620849889E+03  0.91359839758E+02 0.  0.
          5    1    3    3  502    0  0.49107271972E+02  0.26600990645E+02 -0.23997551805E+03  0.24643351259E+03  0.47000000000E+01 0.  1.
         -5    1    3    3    0  502 -0.31549594652E+02 -0.41118970517E+02 -0.60508023251E+02  0.79808881316E+02  0.47000000000E+01 0.  1.
        -11    1    4    4    0    0  0.74369749473E+01  0.49528371320E+02 -0.10015764400E+03  0.11198179233E+03  0.00000000000E+00 0.  1.
         11    1    4    4    0    0 -0.24994652267E+02 -0.35010391447E+02 -0.60490857280E+02  0.74226706553E+02  0.00000000000E+00 0. -1.
<mgrwt>
<rscale>  0 0.11788688E+03</rscale>
<asrwt>0</asrwt>
<pdfrwt beam="1">  1        2 0.39476036E-02 0.12705802E+03</pdfrwt>
<pdfrwt beam="2">  1       -2 0.74891001E-01 0.12705802E+03</pdfrwt>
<totfact> 0.33698219E+03</totfact>
</mgrwt>
</event>
<event>
 8    1  0.1646661E-005  0.1907586E+03  0.7546771E-02  0.1162808E+00
         -1   -1    0    0    0  501 -0.00000000000E+00  0.00000000000E+00  0.49289233991E+02  0.49289233991E+02  0.00000000000E+00 0.  1.
          1   -1    0    0  501    0  0.00000000000E+00 -0.00000000000E+00 -0.67023209995E+03  0.67023209995E+03  0.00000000000E+00 0. -1.
         23    2    1    2    0    0 -0.88354822496E+02 -0.11383342249E+03 -0.28182218704E+03  0.34031248906E+03  0.12499688943E+03 0.  0.
         23    2    1    2    0    0  0.88354822496E+02  0.11383342249E+03 -0.33912067892E+03  0.37920884488E+03  0.89620814725E+02 0.  0.
          5    1    3    3  502    0 -0.97787061243E+02 -0.11338175962E+03 -0.16437937473E+03  0.22239694601E+03  0.47000000000E+01 0. -1.
         -5    1    3    3    0  502  0.94322387470E+01 -0.45166287060E+00 -0.11744281232E+03  0.11791554305E+03  0.47000000000E+01 0. -1.
        -11    1    4    4    0    0  0.40996713956E+02  0.10420276026E+03 -0.28729771402E+03  0.30834870241E+03  0.00000000000E+00 0.  1.
         11    1    4    4    0    0  0.47358108540E+02  0.96306622329E+01 -0.51822964905E+02  0.70860142471E+02  0.00000000000E+00 0. -1.
<mgrwt>
<rscale>  0 0.18525954E+03</rscale>
<asrwt>0</asrwt>
<pdfrwt beam="2">  1        1 0.10311263E+00 0.19075860E+03</pdfrwt>
<pdfrwt beam="1">  1       -1 0.75829589E-02 0.19075860E+03</pdfrwt>
<totfact> 0.27781504E+03</totfact>
</mgrwt>
</event>
<event>
 7    1  0.1646661E-005  0.1014756E+04  0.7546771E-02  0.9840674E-01
          2   -1    0    0  501    0  0.00000000000E+00  0.00000000000E+00  0.17607018390E+04  0.17607018390E+04  0.00000000000E+00 0. -1.
         -2   -1    0    0    0  501 -0.00000000000E+00 -0.00000000000E+00 -0.20333703028E+03  0.20333703028E+03  0.00000000000E+00 0.  1.
         23    2    1    2    0    0 -0.73202061451E+02  0.98897796842E+02  0.38059808164E+03  0.41016974696E+03  0.90802012943E+02 0.  0.
          5    1    1    2  502    0  0.23705919058E+03 -0.27959421435E+03  0.12471773722E+04  0.12999397956E+04  0.47000000000E+01 0. -1.
         -5    1    1    2    0  502 -0.16385712913E+03  0.18069641751E+03 -0.70410645024E+02  0.25392932678E+03  0.47000000000E+01 0.  1.
        -11    1    3    3    0    0 -0.88542084686E+02  0.10362182102E+03  0.32844989088E+03  0.35560724595E+03  0.00000000000E+00 0.  1.
         11    1    3    3    0    0  0.15340023235E+02 -0.47240241795E+01  0.52148190759E+02  0.54562501013E+02  0.00000000000E+00 0. -1.
<mgrwt>
<rscale>  0 0.63224696E+03</rscale>
<asrwt>0</asrwt>
<pdfrwt beam="1">  1        2 0.27087720E+00 0.10147558E+04</pdfrwt>
<pdfrwt beam="2">  1       -2 0.31282621E-01 0.10147558E+04</pdfrwt>
<totfact> 0.85965288E+01</totfact>
</mgrwt>
</event>
<event>
 8    1  0.1646661E-005  0.1509640E+03  0.7546771E-02  0.1208536E+00
         -2   -1    0    0    0  501 -0.00000000000E+00  0.00000000000E+00  0.89359355489E+02  0.89359355489E+02  0.00000000000E+00 0.  1.
          2   -1    0    0  501    0  0.00000000000E+00 -0.00000000000E+00 -0.21188534075E+03  0.21188534075E+03  0.00000000000E+00 0. -1.
         23    2    1    2    0    0 -0.28089872714E+00 -0.84571362738E+02 -0.76935495432E+02  0.16943792104E+03  0.12505096693E+03 0.  0.
         23    2    1    2    0    0  0.28089872714E+00  0.84571362738E+02 -0.45590489825E+02  0.13180677520E+03  0.90233801457E+02 0.  0.
          5    1    3    3  502    0 -0.43915062715E+02 -0.33811012008E+02 -0.85283524447E+02  0.10181889220E+03  0.47000000000E+01 0.  1.
         -5    1    3    3    0  502  0.43634163988E+02 -0.50760350730E+02  0.83480290146E+01  0.67619028843E+02  0.47000000000E+01 0.  1.
        -11    1    4    4    0    0  0.33658405843E+02  0.51110258021E+02 -0.56512047682E+02  0.83299209433E+02  0.00000000000E+00 0. -1.
         11    1    4    4    0    0 -0.33377507116E+02  0.33461104717E+02  0.10921557856E+02  0.48507565763E+02  0.00000000000E+00 0.  1.
<mgrwt>
<rscale>  0 0.14362239E+03</rscale>
<asrwt>0</asrwt>
<pdfrwt beam="2">  1        2 0.32597744E-01 0.15096403E+03</pdfrwt>
<pdfrwt beam="1">  1       -2 0.13747593E-01 0.15096403E+03</pdfrwt>
<totfact> 0.60706645E+03</totfact>
</mgrwt>
</event>
<event>
 7    1  0.1646661E-005  0.1849117E+03  0.7546771E-02  0.1173255E+00
         -2   -1    0    0    0  501 -0.00000000000E+00  0.00000000000E+00  0.39265363200E+02  0.39265363200E+02  0.00000000000E+00 0.  1.
          2   -1    0    0  501    0  0.00000000000E+00 -0.00000000000E+00 -0.88077996769E+03  0.88077996769E+03  0.00000000000E+00 0. -1.
         23    2    1    2    0    0  0.11308882185E+03  0.18565530367E+02 -0.58960945631E+03  0.60755764887E+03  0.91395980175E+02 0.  0.
          5    1    1    2  502    0  0.89133020076E-01 -0.59676170213E+02 -0.11818770034E+03  0.13248273754E+03  0.47000000000E+01 0. -1.
         -5    1    1    2    0  502 -0.11317795487E+03  0.41110639846E+02 -0.13371744785E+03  0.18000494448E+03  0.47000000000E+01 0.  1.
        -11    1    3    3    0    0  0.26139436296E+02  0.45826101038E+02 -0.27513133839E+03  0.28014381133E+03  0.00000000000E+00 0.  1.
         11    1    3    3    0    0  0.86949385552E+02 -0.27260570671E+02 -0.31447811792E+03  0.32741383754E+03  0.00000000000E+00 0. -1.
<mgrwt>
<rscale>  0 0.17447985E+03</rscale>
<asrwt>0</asrwt>
<pdfrwt beam="2">  1        2 0.13550459E+00 0.18491173E+03</pdfrwt>
<pdfrwt beam="1">  1       -2 0.60408260E-02 0.18491173E+03</pdfrwt>
<totfact> 0.45169661E+03</totfact>
</mgrwt>
</event>
<event>
 8    1  0.1646661E-005  0.3225741E+03  0.7546771E-02  0.1075907E+00
         -2   -1    0    0    0  501 -0.00000000000E+00  0.00000000000E+00  0.70946858937E+02  0.70946858937E+02  0.00000000000E+00 0.  1.
          2   -1    0    0  501    0  0.00000000000E+00 -0.00000000000E+00 -0.15034416728E+04  0.15034416728E+04  0.00000000000E+00 0. -1.
         23    2    1    2    0    0 -0.29182295033E+03 -0.57178281353E+02 -0.53422118209E+03  0.62405632903E+03  0.12499616077E+03 0.  0.
         23    2    1    2    0    0  0.29182295033E+03  0.57178281353E+02 -0.89827363179E+03  0.95033220272E+03  0.88350369397E+02 0.  0.
          5    1    3    3  502    0 -0.21180629687E+03  0.13870275745E+02 -0.31224081430E+03  0.37758536526E+03  0.47000000000E+01 0.  1.
         -5    1    3    3    0  502 -0.80016653458E+02 -0.71048557098E+02 -0.22198036779E+03  0.24647096377E+03  0.47000000000E+01 0.  1.
        -11    1    4    4    0    0  0.22904691090E+03  0.46569858961E+02 -0.57212570927E+03  0.61802837020E+03  0.00000000000E+00 0. -1.
         11    1    4    4    0    0  0.62776039428E+02  0.10608422392E+02 -0.32614792251E+03  0.33230383253E+03  0.00000000000E+00 0.  1.
<mgrwt>
<rscale>  0 0.31943990E+03</rscale>
<asrwt>0</asrwt>
<pdfrwt beam="2">  1        2 0.23129871E+00 0.32257407E+03</pdfrwt>
<pdfrwt beam="1">  1       -2 0.10914902E-01 0.32257407E+03</pdfrwt>
<totfact> 0.78133464E+02</totfact>
</mgrwt>
</event>
<event>
 7    1  0.1646661E-005  0.1651514E+03  0.7546771E-02  0.1208005E+00
          2   -1    0    0  501    0  0.00000000000E+00  0.00000000000E+00  0.41731431116E+02  0.41731431116E+02  0.00000000000E+00 0. -1.
         -2   -1    0    0    0  501 -0.00000000000E+00 -0.00000000000E+00 -0.48437171503E+03  0.48437171503E+03  0.00000000000E+00 0.  1.
         23    2    1    2    0    0  0.16979949707E+02  0.21655552312E+02 -0.69791997311E+02  0.11831542501E+03  0.91489536390E+02 0.  0.
          5    1    1    2  502    0  0.56386320425E+02 -0.59447038710E+02 -0.20029390125E+03  0.21645577937E+03  0.47000000000E+01 0. -1.
         -5    1    1    2    0  502 -0.73366270132E+02  0.37791486398E+02 -0.17255438536E+03  0.19133194177E+03  0.47000000000E+01 0.  1.
        -11    1    3    3    0    0  0.13903991164E+01  0.23448052458E+02 -0.89837893088E+02  0.92857909777E+02  0.00000000000E+00 0.  1.
         11    1    3    3    0    0  0.15589550591E+02 -0.17925001464E+01  0.20045895776E+02  0.25457515234E+02  0.00000000000E+00 0. -1.
<mgrwt>
<rscale>  0 0.14403112E+03</rscale>
<asrwt>0</asrwt>
<pdfrwt beam="1">  1        2 0.64202200E-02 0.16515139E+03</pdfrwt>
<pdfrwt beam="2">  1       -2 0.74518727E-01 0.16515139E+03</pdfrwt>
<totfact> 0.18347966E+03</totfact>
</mgrwt>
</event>
<event>
 8    1  0.1646661E-005  0.2695751E+03  0.7546771E-02  0.1104091E+00
         -2   -1    0    0    0  501 -0.00000000000E+00  0.00000000000E+00  0.46408881304E+02  0.46408881304E+02  0.00000000000E+00 0.  1.
          2   -1    0    0  501    0  0.00000000000E+00 -0.00000000000E+00 -0.15445827594E+04  0.15445827594E+04  0.00000000000E+00 0. -1.
         23    2    1    2    0    0 -0.18256268999E+03 -0.15400176297E+03 -0.59452940252E+03  0.65279088459E+03  0.12500019907E+03 0.  0.
         23    2    1    2    0    0  0.18256268999E+03  0.15400176297E+03 -0.90364447555E+03  0.93820075609E+03  0.81250487713E+02 0.  0.
          5    1    3    3  502    0 -0.10703432906E+02 -0.14498808437E+02 -0.19606916288E+03  0.19695173407E+03  0.47000000000E+01 0. -1.
         -5    1    3    3    0  502 -0.17185925709E+03 -0.13950295454E+03 -0.39846023964E+03  0.45583915052E+03  0.47000000000E+01 0. -1.
        -11    1    4    4    0    0  0.11491180953E+03  0.79692894920E+02 -0.65988453262E+03  0.67453930787E+03  0.00000000000E+00 0.  1.
         11    1    4    4    0    0  0.67650880465E+02  0.74308868053E+02 -0.24375994293E+03  0.26366144822E+03  0.00000000000E+00 0. -1.
<mgrwt>
<rscale>  0 0.26514432E+03</rscale>
<asrwt>0</asrwt>
<pdfrwt beam="2">  1        2 0.23762808E+00 0.26957509E+03</pdfrwt>
<pdfrwt beam="1">  1       -2 0.71398290E-02 0.26957509E+03</pdfrwt>
<totfact> 0.14603821E+03</totfact>
</mgrwt>
</event>
<event>
 8    1  0.1646661E-005  0.2468603E+03  0.7546771E-02  0.1116507E+00
         -2   -1    0    0    0  501 -0.00000000000E+00  0.00000000000E+00  0.10935965462E+03  0.10935965462E+03  0.00000000000E+00 0.  1.
          2   -1    0    0  501    0  0.00000000000E+00 -0.00000000000E+00 -0.54996059210E+03  0.54996059210E+03  0.00000000000E+00 0. -1.
         23    2    1    2    0    0  0.29378219356E+02  0.21797303599E+03 -0.18092246551E+03  0.30606036548E+03  0.11209230394E+03 0.  0.
         23    2    1    2    0    0 -0.29378219356E+02 -0.21797303599E+03 -0.25967847198E+03  0.35325988123E+03  0.94785603813E+02 0.  0.
          5    1    3    3  502    0 -0.41743973846E+01  0.41234183903E+02 -0.10076865263E+03  0.10906005166E+03  0.47000000000E+01 0. -1.
         -5    1    3    3    0  502  0.33552616741E+02  0.17673885209E+03 -0.80153812879E+02  0.19700031382E+03  0.47000000000E+01 0.  1.
        -11    1    4    4    0    0 -0.29744337929E+02 -0.21547123011E+02 -0.15460524500E+02  0.39850118779E+02  0.00000000000E+00 0.  1.
         11    1    4    4    0    0  0.36611857287E+00 -0.19642591298E+03 -0.24421794748E+03  0.31340976246E+03  0.00000000000E+00 0. -1.
<mgrwt>
<rscale>  0 0.24499896E+03</rscale>
<asrwt>0</asrwt>
<pdfrwt beam="2">  1        2 0.84609323E-01 0.24686030E+03</pdfrwt>
<pdfrwt beam="1">  1       -2 0.16824562E-01 0.24686030E+03</pdfrwt>
<totfact> 0.15739002E+03</totfact>
</mgrwt>
</event>
<event>
 8    1  0.1646661E-005  0.1481382E+03  0.7546771E-02  0.1210826E+00
         -3   -1    0    0    0  501 -0.00000000000E+00  0.00000000000E+00  0.58955360067E+03  0.58955360067E+03  0.00000000000E+00 0. -1.
          3   -1    0    0  501    0  0.00000000000E+00 -0.00000000000E+00 -0.33663914498E+02  0.33663914498E+02  0.00000000000E+00 0.  1.
         23    2    1    2    0    0  0.75605498461E+02 -0.24612582515E+02  0.37817549428E+03  0.40615467493E+03  0.12499177927E+03 0.  0.
         23    2    1    2    0    0 -0.75605498461E+02  0.24612582515E+02  0.17771419190E+03  0.21706284023E+03  0.95979018509E+02 0.  0.
          5    1    3    3  502    0  0.42067056411E+02 -0.32577234809E+01  0.22149630677E+02  0.47884717149E+02  0.47000000000E+01 0. -1.
         -5    1    3    3    0  502  0.33538442050E+02 -0.21354859034E+02  0.35602586360E+03  0.35826995778E+03  0.47000000000E+01 0. -1.
        -11    1    4    4    0    0 -0.63114380855E+02 -0.24554141508E+01  0.36949248992E+02  0.73175823401E+02  0.00000000000E+00 0.  1.
         11    1    4    4    0    0 -0.12491117606E+02  0.27067996666E+02  0.14076494290E+03  0.14388701683E+03  0.00000000000E+00 0. -1.
<mgrwt>
<rscale>  0 0.14187649E+03</rscale>
<asrwt>0</asrwt>
<pdfrwt beam="2">  1        3 0.51790642E-02 0.14813816E+03</pdfrwt>
<pdfrwt beam="1">  1       -3 0.90700547E-01 0.14813816E+03</pdfrwt>
<totfact> 0.57110437E+02</totfact>
</mgrwt>
</event>
<event>
 7    1  0.1646661E-005  0.3831545E+03  0.7546771E-02  0.1049774E+00
          1   -1    0    0  501    0  0.00000000000E+00  0.00000000000E+00  0.38841690913E+03  0.38841690913E+03  0.00000000000E+00 0. -1.
         -1   -1    0    0    0  501 -0.00000000000E+00 -0.00000000000E+00 -0.94490828956E+02  0.94490828956E+02  0.00000000000E+00 0.  1.
         23    2    1    2    0    0  0.60553007223E+02  0.10664437656E+03  0.10115723951E+03  0.18343969244E+03  0.91529470240E+02 0.  0.
          5    1    1    2  502    0 -0.11796079034E+03 -0.11004072882E+03  0.98890165118E+02  0.18927510352E+03  0.47000000000E+01 0. -1.
         -5    1    1    2    0  502  0.57407783116E+02  0.33963522644E+01  0.93878675542E+02  0.11019294212E+03  0.47000000000E+01 0.  1.
        -11    1    3    3    0    0  0.40967911633E+02  0.11158102841E+03  0.50952836943E+02  0.12932473575E+03  0.00000000000E+00 0.  1.
         11    1    3    3    0    0  0.19585095590E+02 -0.49366518482E+01  0.50204402568E+02  0.54114956694E+02  0.00000000000E+00 0. -1.
<mgrwt>
<rscale>  0 0.38315446E+03</rscale>
<asrwt>0</asrwt>
<pdfrwt beam="1">  1        1 0.59756447E-01 0.38315446E+03</pdfrwt>
<pdfrwt beam="2">  1       -1 0.14537051E-01 0.38315446E+03</pdfrwt>
<totfact> 0.21359895E+03</totfact>
</mgrwt>
</event>
<event>
 8    1  0.1646661E-005  0.2332841E+03  0.7546771E-02  0.1127227E+00
          2   -1    0    0  501    0  0.00000000000E+00  0.00000000000E+00  0.93774991352E+03  0.93774991352E+03  0.00000000000E+00 0. -1.
         -2   -1    0    0    0  501 -0.00000000000E+00 -0.00000000000E+00 -0.62062752751E+02  0.62062752751E+02  0.00000000000E+00 0.  1.
         23    2    1    2    0    0  0.17728303870E+03 -0.85828257693E+02  0.27262022799E+03  0.35880810585E+03  0.12500280990E+03 0.  0.
         23    2    1    2    0    0 -0.17728303870E+03  0.85828257693E+02  0.60306693278E+03  0.64100456043E+03  0.91658908147E+02 0.  0.
          5    1    3    3  502    0  0.69581214451E+02 -0.91125124042E+02  0.19355394566E+03  0.22501234081E+03  0.47000000000E+01 0. -1.
         -5    1    3    3    0  502  0.10770182425E+03  0.52968663485E+01  0.79066282325E+02  0.13379576503E+03  0.47000000000E+01 0. -1.
        -11    1    4    4    0    0 -0.39549679224E+02 -0.31856120403E+01  0.23123448458E+03  0.23461396401E+03  0.00000000000E+00 0. -1.
         11    1    4    4    0    0 -0.13773335948E+03  0.89013869734E+02  0.37183244821E+03  0.40639059642E+03  0.00000000000E+00 0.  1.
<mgrwt>
<rscale>  0 0.22916764E+03</rscale>
<asrwt>0</asrwt>
<pdfrwt beam="1">  1        2 0.14426921E+00 0.23328409E+03</pdfrwt>
<pdfrwt beam="2">  1       -2 0.95481165E-02 0.23328409E+03</pdfrwt>
<totfact> 0.20480632E+03</totfact>
</mgrwt>
</event>
<event>
 8    1  0.1646661E-005  0.1672017E+03  0.7546771E-02  0.1188329E+00
          1   -1    0    0  501    0  0.00000000000E+00  0.00000000000E+00  0.34837093952E+02  0.34837093952E+02  0.00000000000E+00 0. -1.
         -1   -1    0    0    0  501 -0.00000000000E+00 -0.00000000000E+00 -0.73728487843E+03  0.73728487843E+03  0.00000000000E+00 0.  1.
         23    2    1    2    0    0  0.10333714136E+03  0.40621740692E+02 -0.48270785049E+03  0.51084566031E+03  0.12501091602E+03 0.  0.
         23    2    1    2    0    0 -0.10333714136E+03 -0.40621740692E+02 -0.21973993399E+03  0.26127631208E+03  0.87469892324E+02 0.  0.
          5    1    3    3  502    0 -0.70033849376E+01  0.95412597402E+01 -0.26009751317E+03  0.26040908086E+03  0.47000000000E+01 0.  1.
         -5    1    3    3    0  502  0.11034052630E+03  0.31080480952E+02 -0.22261033732E+03  0.25043657944E+03  0.47000000000E+01 0.  1.
        -11    1    4    4    0    0 -0.74253257842E+02  0.15038687121E+02 -0.14545335865E+03  0.16400118278E+03  0.00000000000E+00 0.  1.
         11    1    4    4    0    0 -0.29083883520E+02 -0.55660427813E+02 -0.74286575338E+02  0.97275129301E+02  0.00000000000E+00 0. -1.
<mgrwt>
<rscale>  0 0.16032606E+03</rscale>
<asrwt>0</asrwt>
<pdfrwt beam="1">  1        1 0.53595524E-02 0.16720173E+03</pdfrwt>
<pdfrwt beam="2">  1       -1 0.11342845E+00 0.16720173E+03</pdfrwt>
<totfact> 0.11273597E+03</totfact>
</mgrwt>
</event>
<event>
 8    1  0.1703231E-005  0.1713254E+03  0.7546771E-02  0.1182779E+00
         -2   -1    0    0    0  501 -0.00000000000E+00  0.00000000000E+00  0.71945458529E+02  0.71945458529E+02  0.00000000000E+00 0.  1.
          2   -1    0    0  501    0  0.00000000000E+00 -0.00000000000E+00 -0.52745018016E+03  0.52745018016E+03  0.00000000000E+00 0. -1.
         23    2    1    2    0    0 -0.50175388490E+02 -0.10587785778E+03 -0.67957299761E+02  0.18431114717E+03  0.12499885600E+03 0.  0.
         23    2    1    2    0    0  0.50175388490E+02  0.10587785778E+03 -0.38754742187E+03  0.41508449153E+03  0.91511969309E+02 0.  0.
          5    1    3    3  502    0  0.82428944461E+01 -0.13953324388E+02  0.32146148437E+02  0.36305721721E+02  0.47000000000E+01 0. -1.
         -5    1    3    3    0  502 -0.58418282936E+02 -0.91924533391E+02 -0.10010344820E+03  0.14800542545E+03  0.47000000000E+01 0. -1.
        -11    1    4    4    0    0  0.51528936890E+02  0.50864111519E+02 -0.31934089922E+03  0.32744617740E+03  0.00000000000E+00 0.  1.
         11    1    4    4    0    0 -0.13535483999E+01  0.55013746260E+02 -0.68206522653E+02  0.87638314128E+02  0.00000000000E+00 0. -1.
<mgrwt>
<rscale>  0 0.16535626E+03</rscale>
<asrwt>0</asrwt>
<pdfrwt beam="2">  1        2 0.81146179E-01 0.17132543E+03</pdfrwt>
<pdfrwt beam="1">  1       -2 0.11068532E-01 0.17132543E+03</pdfrwt>
<totfact> 0.32412974E+03</totfact>
</mgrwt>
</event>
<event>
 8    1  0.1646661E-005  0.1553791E+03  0.7546771E-02  0.1202761E+00
         -1   -1    0    0    0  501 -0.00000000000E+00  0.00000000000E+00  0.15861467969E+03  0.15861467969E+03  0.00000000000E+00 0.  1.
          1   -1    0    0  501    0  0.00000000000E+00 -0.00000000000E+00 -0.14234897501E+03  0.14234897501E+03  0.00000000000E+00 0. -1.
         23    2    1    2    0    0  0.74571769322E+02  0.54366158047E+02  0.58109241827E+02  0.16588960308E+03  0.12500419395E+03 0.  0.
         23    2    1    2    0    0 -0.74571769322E+02 -0.54366158047E+02 -0.41843537149E+02  0.13507405161E+03  0.89316795156E+02 0.  0.
          5    1    3    3  502    0  0.10445136294E+03  0.28592006930E+02  0.63749336787E+02  0.12575236786E+03  0.47000000000E+01 0.  1.
         -5    1    3    3    0  502 -0.29879593618E+02  0.25774151118E+02 -0.56400949605E+01  0.40137235228E+02  0.47000000000E+01 0.  1.
        -11    1    4    4    0    0 -0.34717205020E+02 -0.32117368715E+02  0.25490964465E+02  0.53727078526E+02  0.00000000000E+00 0.  1.
         11    1    4    4    0    0 -0.39854564302E+02 -0.22248789332E+02 -0.67334501614E+02  0.81346973085E+02  0.00000000000E+00 0. -1.
<mgrwt>
<rscale>  0 0.14815307E+03</rscale>
<asrwt>0</asrwt>
<pdfrwt beam="2">  1        1 0.21899842E-01 0.15537914E+03</pdfrwt>
<pdfrwt beam="1">  1       -1 0.24402258E-01 0.15537914E+03</pdfrwt>
<totfact> 0.31966722E+03</totfact>
</mgrwt>
</event>
<event>
 8    1  0.1646661E-005  0.1251360E+03  0.7546771E-02  0.1251288E+00
         -2   -1    0    0    0  501 -0.00000000000E+00  0.00000000000E+00  0.23318140348E+03  0.23318140348E+03  0.00000000000E+00 0.  1.
          2   -1    0    0  501    0  0.00000000000E+00 -0.00000000000E+00 -0.70236256134E+02  0.70236256134E+02  0.00000000000E+00 0. -1.
         23    2    1    2    0    0 -0.47251173147E+01 -0.44700864070E+01  0.17252295602E+03  0.21312714362E+03  0.12496679795E+03 0.  0.
         23    2    1    2    0    0  0.47251173147E+01  0.44700864070E+01 -0.95778086745E+01  0.90290515990E+02  0.89545153150E+02 0.  0.
          5    1    3    3  502    0  0.14263350020E+02  0.41759866856E+02  0.13525276033E+02  0.46393455631E+02  0.47000000000E+01 0. -1.
         -5    1    3    3    0  502 -0.18988467334E+02 -0.46229953263E+02  0.15899767998E+03  0.16673368799E+03  0.47000000000E+01 0. -1.
        -11    1    4    4    0    0 -0.30703273898E+02 -0.24805835902E+02  0.93862804557E+01  0.40572438719E+02  0.00000000000E+00 0.  1.
         11    1    4    4    0    0  0.35428391212E+02  0.29275922309E+02 -0.18964089130E+02  0.49718077271E+02  0.00000000000E+00 0. -1.
<mgrwt>
<rscale>  0 0.11516826E+03</rscale>
<asrwt>0</asrwt>
<pdfrwt beam="2">  1        2 0.10805578E-01 0.12513596E+03</pdfrwt>
<pdfrwt beam="1">  1       -2 0.35874062E-01 0.12513596E+03</pdfrwt>
<totfact> 0.40511439E+03</totfact>
</mgrwt>
</event>
<event>
 8    1  0.2413062E-005  0.1646425E+03  0.7546771E-02  0.1189642E+00
          2   -1    0    0  501    0  0.00000000000E+00  0.00000000000E+00  0.67648391814E+02  0.67648391814E+02  0.00000000000E+00 0. -1.
         -2   -1    0    0    0  501 -0.00000000000E+00 -0.00000000000E+00 -0.35630325309E+03  0.35630325309E+03  0.00000000000E+00 0.  1.
         23    2    1    2    0    0  0.51385301374E+02  0.94027013222E+02 -0.17825475369E+03  0.24265596442E+03  0.12500252574E+03 0.  0.
         23    2    1    2    0    0 -0.51385301374E+02 -0.94027013222E+02 -0.11040010759E+03  0.18129568049E+03  0.95908349976E+02 0.  0.
          5    1    3    3  502    0 -0.52558866071E+01 -0.17059267519E+02 -0.84725609014E+02  0.86713100366E+02  0.47000000000E+01 0.  1.
         -5    1    3    3    0  502  0.56641187981E+02  0.11108628074E+03 -0.93529144677E+02  0.15594286405E+03  0.47000000000E+01 0.  1.
        -11    1    4    4    0    0  0.13078375500E+02 -0.53875707934E+02 -0.84483617063E+02  0.10105007354E+03  0.00000000000E+00 0.  1.
         11    1    4    4    0    0 -0.64463676875E+02 -0.40151305289E+02 -0.25916490523E+02  0.80245606943E+02  0.00000000000E+00 0. -1.
<mgrwt>
<rscale>  0 0.15916595E+03</rscale>
<asrwt>0</asrwt>
<pdfrwt beam="1">  1        2 0.10407445E-01 0.16464252E+03</pdfrwt>
<pdfrwt beam="2">  1       -2 0.54815885E-01 0.16464252E+03</pdfrwt>
<totfact> 0.18972667E+03</totfact>
</mgrwt>
</event>
<event>
 8    1  0.1646661E-005  0.2992918E+03  0.7546771E-02  0.1087935E+00
         -1   -1    0    0    0  501 -0.00000000000E+00  0.00000000000E+00  0.26769465573E+03  0.26769465573E+03  0.00000000000E+00 0.  1.
          1   -1    0    0  501    0  0.00000000000E+00 -0.00000000000E+00 -0.32102816237E+03  0.32102816237E+03  0.00000000000E+00 0. -1.
         23    2    1    2    0    0  0.22418536001E+03  0.15392034155E+03 -0.68672320649E+02  0.30706912515E+03  0.12500005124E+03 0.  0.
         23    2    1    2    0    0 -0.22418536001E+03 -0.15392034155E+03  0.15338814012E+02  0.28165369294E+03  0.71714547649E+02 0.  0.
          5    1    3    3  502    0  0.23277860409E+02  0.79766954562E+01  0.30645418032E+02  0.39581790029E+02  0.47000000000E+01 0.  1.
         -5    1    3    3    0  502  0.20090749960E+03  0.14594364610E+03 -0.99317738680E+02  0.26748733512E+03  0.47000000000E+01 0.  1.
        -11    1    4    4    0    0 -0.11986730754E+03 -0.94771276323E+02 -0.25604445598E+02  0.15493661242E+03  0.00000000000E+00 0. -1.
         11    1    4    4    0    0 -0.10431805247E+03 -0.59149065231E+02  0.40943259610E+02  0.12671708052E+03  0.00000000000E+00 0.  1.
<mgrwt>
<rscale>  0 0.29467188E+03</rscale>
<asrwt>0</asrwt>
<pdfrwt beam="2">  1        1 0.49388948E-01 0.29929176E+03</pdfrwt>
<pdfrwt beam="1">  1       -1 0.41183793E-01 0.29929176E+03</pdfrwt>
<totfact> 0.47284893E+02</totfact>
</mgrwt>
</event>
<event>
 8    1  0.1646661E-005  0.1385431E+03  0.7546771E-02  0.1231209E+00
         -1   -1    0    0    0  501 -0.00000000000E+00  0.00000000000E+00  0.28083611900E+03  0.28083611900E+03  0.00000000000E+00 0.  1.
          1   -1    0    0  501    0  0.00000000000E+00 -0.00000000000E+00 -0.50421315349E+02  0.50421315349E+02  0.00000000000E+00 0. -1.
         23    2    1    2    0    0 -0.55003958649E+02 -0.23172025573E+02  0.13791661523E+03  0.19548703344E+03  0.12502723403E+03 0.  0.
         23    2    1    2    0    0  0.55003958649E+02  0.23172025573E+02  0.92498188417E+02  0.13577040091E+03  0.79468916356E+02 0.  0.
          5    1    3    3  502    0  0.27323877390E+02 -0.44731649734E+02  0.43391638344E+02  0.68208790062E+02  0.47000000000E+01 0.  1.
         -5    1    3    3    0  502 -0.82327836039E+02  0.21559624161E+02  0.94524976887E+02  0.12727824337E+03  0.47000000000E+01 0.  1.
        -11    1    4    4    0    0  0.39675383718E+02  0.27664724281E+02  0.10492220019E+03  0.11553415571E+03  0.00000000000E+00 0.  1.
         11    1    4    4    0    0  0.15328574931E+02 -0.44926987086E+01 -0.12424011776E+02  0.20236245198E+02  0.00000000000E+00 0. -1.
<mgrwt>
<rscale>  0 0.12750305E+03</rscale>
<asrwt>0</asrwt>
<pdfrwt beam="2">  1        1 0.77571256E-02 0.13854309E+03</pdfrwt>
<pdfrwt beam="1">  1       -1 0.43205556E-01 0.13854309E+03</pdfrwt>
<totfact> 0.46618033E+03</totfact>
</mgrwt>
</event>
<event>
 8    1  0.1646661E-005  0.1732500E+03  0.7546771E-02  0.1180423E+00
          2   -1    0    0  501    0  0.00000000000E+00  0.00000000000E+00  0.61932974855E+03  0.61932974855E+03  0.00000000000E+00 0. -1.
         -2   -1    0    0    0  501 -0.00000000000E+00 -0.00000000000E+00 -0.42670724130E+02  0.42670724130E+02  0.00000000000E+00 0.  1.
         23    2    1    2    0    0  0.71045391466E+02  0.96638447292E+02  0.29300220289E+03  0.34039072658E+03  0.12501647373E+03 0.  0.
         23    2    1    2    0    0 -0.71045391466E+02 -0.96638447292E+02  0.28365682153E+03  0.32160974610E+03  0.92656350239E+02 0.  0.
          5    1    3    3  502    0 -0.76280629433E+01  0.29532564267E+02  0.19638057334E+03  0.19879079275E+03  0.47000000000E+01 0. -1.
         -5    1    3    3    0  502  0.78673454409E+02  0.67105883025E+02  0.96621629547E+02  0.14159993383E+03  0.47000000000E+01 0. -1.
        -11    1    4    4    0    0 -0.13721344774E+02 -0.12870760829E+02 -0.15519714466E+01  0.18876980747E+02  0.00000000000E+00 0.  1.
         11    1    4    4    0    0 -0.57324046691E+02 -0.83767686463E+02  0.28520879298E+03  0.30273276535E+03  0.00000000000E+00 0. -1.
<mgrwt>
<rscale>  0 0.16755365E+03</rscale>
<asrwt>0</asrwt>
<pdfrwt beam="1">  1        2 0.95281493E-01 0.17324998E+03</pdfrwt>
<pdfrwt beam="2">  1       -2 0.65647272E-02 0.17324998E+03</pdfrwt>
<totfact> 0.61085272E+03</totfact>
</mgrwt>
</event>
<event>
 7    1  0.1646661E-005  0.3145811E+03  0.7546771E-02  0.1095080E+00
          2   -1    0    0  501    0  0.00000000000E+00  0.00000000000E+00  0.25791088102E+03  0.25791088102E+03  0.00000000000E+00 0. -1.
         -2   -1    0    0    0  501 -0.00000000000E+00 -0.00000000000E+00 -0.41358865137E+03  0.41358865137E+03  0.00000000000E+00 0.  1.
         23    2    1    2    0    0 -0.17713345359E+03 -0.21267679504E+02  0.13611036679E+03  0.24242890683E+03  0.91745127097E+02 0.  0.
          5    1    1    2  502    0 -0.35584221831E+02 -0.73283271439E+02 -0.81555861314E+02  0.11536950737E+03  0.47000000000E+01 0. -1.
         -5    1    1    2    0  502  0.21271767542E+03  0.94550950943E+02 -0.21023227582E+03  0.31370111820E+03  0.47000000000E+01 0.  1.
        -11    1    3    3    0    0 -0.36196786661E+02  0.18765528492E+02 -0.23538773996E+01  0.40839847735E+02  0.00000000000E+00 0.  1.
         11    1    3    3    0    0 -0.14093666693E+03 -0.40033207996E+02  0.13846424419E+03  0.20158905909E+03  0.00000000000E+00 0. -1.
<mgrwt>
<rscale>  0 0.28111854E+03</rscale>
<asrwt>0</asrwt>
<pdfrwt beam="1">  1        2 0.39678597E-01 0.31458113E+03</pdfrwt>
<pdfrwt beam="2">  1       -2 0.63629023E-01 0.31458113E+03</pdfrwt>
<totfact> 0.30270985E+02</totfact>
</mgrwt>
</event>
<event>
 8    1  0.1646661E-005  0.1718892E+03  0.7546771E-02  0.1179943E+00
          2   -1    0    0  501    0  0.00000000000E+00  0.00000000000E+00  0.54140315990E+03  0.54140315990E+03  0.00000000000E+00 0. -1.
         -2   -1    0    0    0  501 -0.00000000000E+00 -0.00000000000E+00 -0.51104739367E+02  0.51104739367E+02  0.00000000000E+00 0.  1.
         23    2    1    2    0    0  0.11549805808E+03 -0.24204232329E+02  0.21083717675E+03  0.27202610670E+03  0.12498096392E+03 0.  0.
         23    2    1    2    0    0 -0.11549805808E+03  0.24204232329E+02  0.27946124378E+03  0.32048179256E+03  0.10336511166E+03 0.  0.
          5    1    3    3  502    0  0.23464689810E+00  0.86928685811E+01  0.12287904375E+03  0.12327599286E+03  0.47000000000E+01 0.  1.
         -5    1    3    3    0  502  0.11526341118E+03 -0.32897100910E+02  0.87958133010E+02  0.14875011384E+03  0.47000000000E+01 0.  1.
        -11    1    4    4    0    0 -0.53776439362E+02 -0.14588199699E+02  0.21837511356E+03  0.22537171789E+03  0.00000000000E+00 0. -1.
         11    1    4    4    0    0 -0.61721618721E+02  0.38792432029E+02  0.61086130216E+02  0.95110074677E+02  0.00000000000E+00 0.  1.
<mgrwt>
<rscale>  0 0.16800621E+03</rscale>
<asrwt>0</asrwt>
<pdfrwt beam="1">  1        2 0.83292790E-01 0.17188917E+03</pdfrwt>
<pdfrwt beam="2">  1       -2 0.78622679E-02 0.17188917E+03</pdfrwt>
<totfact> 0.53891553E+03</totfact>
</mgrwt>
</event>
<event>
 8    1  0.1646661E-005  0.1375330E+03  0.7546771E-02  0.1226059E+00
         -3   -1    0    0    0  501 -0.00000000000E+00  0.00000000000E+00  0.31146409537E+03  0.31146409537E+03  0.00000000000E+00 0.  1.
          3   -1    0    0  501    0  0.00000000000E+00 -0.00000000000E+00 -0.53989189885E+02  0.53989189885E+02  0.00000000000E+00 0. -1.
         23    2    1    2    0    0 -0.35808224550E+02 -0.44817986165E+02  0.18748036537E+03  0.23251710793E+03  0.12499774899E+03 0.  0.
         23    2    1    2    0    0  0.35808224550E+02  0.44817986165E+02  0.69994540118E+02  0.13293617732E+03  0.97375103420E+02 0.  0.
          5    1    3    3  502    0 -0.27187406423E+02 -0.12625844194E+02  0.19556387875E+03  0.19790373337E+03  0.47000000000E+01 0. -1.
         -5    1    3    3    0  502 -0.86208181268E+01 -0.32192141971E+02 -0.80835133831E+01  0.34613374561E+02  0.47000000000E+01 0. -1.
        -11    1    4    4    0    0  0.41349575624E+02  0.35823407035E+02  0.92843147537E+02  0.10776341652E+03  0.00000000000E+00 0.  1.
         11    1    4    4    0    0 -0.55413510740E+01  0.89945791300E+01 -0.22848607419E+02  0.25172760803E+02  0.00000000000E+00 0. -1.
<mgrwt>
<rscale>  0 0.13094558E+03</rscale>
<asrwt>0</asrwt>
<pdfrwt beam="2">  1        3 0.83060294E-02 0.13753297E+03</pdfrwt>
<pdfrwt beam="1">  1       -3 0.47917552E-01 0.13753297E+03</pdfrwt>
<totfact> 0.10085299E+03</totfact>
</mgrwt>
</event>
<event>
 8    1  0.1646661E-005  0.1391264E+03  0.7546771E-02  0.1225240E+00
         -2   -1    0    0    0  501 -0.00000000000E+00  0.00000000000E+00  0.37921777204E+02  0.37921777204E+02  0.00000000000E+00 0. -1.
          2   -1    0    0  501    0  0.00000000000E+00 -0.00000000000E+00 -0.41399372003E+03  0.41399372003E+03  0.00000000000E+00 0.  1.
         23    2    1    2    0    0  0.50733742115E+02  0.34030895875E+02 -0.19616785285E+03  0.24049529189E+03  0.12499657782E+03 0.  0.
         23    2    1    2    0    0 -0.50733742115E+02 -0.34030895875E+02 -0.17990408997E+03  0.21142020534E+03  0.92741615117E+02 0.  0.
          5    1    3    3  502    0  0.59986551527E+02  0.11514760691E+02 -0.20516831851E+03  0.21411937091E+03  0.47000000000E+01 0.  1.
         -5    1    3    3    0  502 -0.92528094122E+01  0.22516135184E+02  0.90004656581E+01  0.26375920983E+02  0.47000000000E+01 0.  1.
        -11    1    4    4    0    0 -0.21790780147E+02  0.19451869575E+02 -0.98597491123E+01  0.30829012017E+02  0.00000000000E+00 0. -1.
         11    1    4    4    0    0 -0.28942961967E+02 -0.53482765450E+02 -0.17004434086E+03  0.18059119332E+03  0.00000000000E+00 0.  1.
<mgrwt>
<rscale>  0 0.13150458E+03</rscale>
<asrwt>0</asrwt>
<pdfrwt beam="2">  1        2 0.63691338E-01 0.13912641E+03</pdfrwt>
<pdfrwt beam="1">  1       -2 0.58341199E-02 0.13912641E+03</pdfrwt>
<totfact> 0.11277789E+04</totfact>
</mgrwt>
</event>
<event>
 8    1  0.1646661E-005  0.1302751E+03  0.7546771E-02  0.1240118E+00
         -1   -1    0    0    0  501 -0.00000000000E+00  0.00000000000E+00  0.52863524647E+02  0.52863524647E+02  0.00000000000E+00 0.  1.
          1   -1    0    0  501    0  0.00000000000E+00 -0.00000000000E+00 -0.28513738296E+03  0.28513738296E+03  0.00000000000E+00 0. -1.
         23    2    1    2    0    0  0.36083347939E+02 -0.66369544126E+01 -0.70804089302E+02  0.14827279460E+03  0.12500218156E+03 0.  0.
         23    2    1    2    0    0 -0.36083347939E+02  0.66369544126E+01 -0.16146976901E+03  0.18972811301E+03  0.92618644979E+02 0.  0.
          5    1    3    3  502    0  0.32734988614E+02 -0.60937224481E+02 -0.61902673797E+02  0.92945983400E+02  0.47000000000E+01 0.  1.
         -5    1    3    3    0  502  0.33483593257E+01  0.54300270069E+02 -0.89014155054E+01  0.55326811201E+02  0.47000000000E+01 0.  1.
        -11    1    4    4    0    0  0.27368665560E+02  0.13283206842E+01 -0.89663468338E+02  0.93756844256E+02  0.00000000000E+00 0. -1.
         11    1    4    4    0    0 -0.63452013499E+02  0.53086337284E+01 -0.71806300676E+02  0.95971268752E+02  0.00000000000E+00 0.  1.
<mgrwt>
<rscale>  0 0.12182415E+03</rscale>
<asrwt>0</asrwt>
<pdfrwt beam="2">  1        1 0.43867290E-01 0.13027510E+03</pdfrwt>
<pdfrwt beam="1">  1       -1 0.81328498E-02 0.13027510E+03</pdfrwt>
<totfact> 0.74385770E+03</totfact>
</mgrwt>
</event>
<event>
 8    1  0.1646661E-005  0.1412491E+03  0.7546771E-02  0.1222711E+00
         -2   -1    0    0    0  501 -0.00000000000E+00  0.00000000000E+00  0.15208732225E+03  0.15208732225E+03  0.00000000000E+00 0.  1.
          2   -1    0    0  501    0  0.00000000000E+00 -0.00000000000E+00 -0.10700959711E+03  0.10700959711E+03  0.00000000000E+00 0. -1.
         23    2    1    2    0    0  0.39327846301E+02 -0.52723699282E+02  0.89253434474E+01  0.14153076093E+03  0.12499930629E+03 0.  0.
         23    2    1    2    0    0 -0.39327846301E+02  0.52723699282E+02  0.36152381693E+02  0.11756615843E+03  0.90489441069E+02 0.  0.
          5    1    3    3  502    0 -0.33687776866E+02  0.18270113389E+02 -0.37743924889E+01  0.38794321648E+02  0.47000000000E+01 0. -1.
         -5    1    3    3    0  502  0.73015623167E+02 -0.70993812671E+02  0.12699735936E+02  0.10273643928E+03  0.47000000000E+01 0. -1.
        -11    1    4    4    0    0 -0.20156909366E+02 -0.24807670717E+02  0.89390225404E+01  0.33190776514E+02  0.00000000000E+00 0.  1.
         11    1    4    4    0    0 -0.19170936934E+02  0.77531369999E+02  0.27213359152E+02  0.84375381914E+02  0.00000000000E+00 0. -1.
<mgrwt>
<rscale>  0 0.13324999E+03</rscale>
<asrwt>0</asrwt>
<pdfrwt beam="2">  1        2 0.16463015E-01 0.14124905E+03</pdfrwt>
<pdfrwt beam="1">  1       -2 0.23398050E-01 0.14124905E+03</pdfrwt>
<totfact> 0.53214748E+03</totfact>
</mgrwt>
</event>
<event>
 8    1  0.1646661E-005  0.1272325E+03  0.7546771E-02  0.1241725E+00
         -1   -1    0    0    0  501 -0.00000000000E+00  0.00000000000E+00  0.14078544867E+03  0.14078544867E+03  0.00000000000E+00 0.  1.
          1   -1    0    0  501    0  0.00000000000E+00 -0.00000000000E+00 -0.94990480047E+02  0.94990480047E+02  0.00000000000E+00 0. -1.
         23    2    1    2    0    0 -0.17753572920E+02  0.15844747321E+02  0.33263517508E+02  0.13150886748E+03  0.12498750041E+03 0.  0.
         23    2    1    2    0    0  0.17753572920E+02 -0.15844747321E+02  0.12531451114E+02  0.10426706124E+03  0.10073895683E+03 0.  0.
          5    1    3    3  502    0  0.47159253183E+01 -0.62913332754E+01  0.76909912399E+02  0.77453505094E+02  0.47000000000E+01 0.  1.
         -5    1    3    3    0  502 -0.22469498238E+02  0.22136080596E+02 -0.43646394892E+02  0.54055362382E+02  0.47000000000E+01 0.  1.
        -11    1    4    4    0    0 -0.24971911017E+02 -0.35041852587E+02  0.31916441203E+02  0.53574126140E+02  0.00000000000E+00 0.  1.
         11    1    4    4    0    0  0.42725483937E+02  0.19197105266E+02 -0.19384990089E+02  0.50692935099E+02  0.00000000000E+00 0. -1.
<mgrwt>
<rscale>  0 0.12083579E+03</rscale>
<asrwt>0</asrwt>
<pdfrwt beam="2">  1        1 0.14613920E-01 0.12723255E+03</pdfrwt>
<pdfrwt beam="1">  1       -1 0.21659300E-01 0.12723255E+03</pdfrwt>
<totfact> 0.64416967E+03</totfact>
</mgrwt>
</event>
<event>
 7    1  0.1646661E-005  0.1427252E+03  0.7546771E-02  0.1228247E+00
          2   -1    0    0  501    0  0.00000000000E+00  0.00000000000E+00  0.38827393654E+03  0.38827393654E+03  0.00000000000E+00 0. -1.
         -2   -1    0    0    0  501 -0.00000000000E+00 -0.00000000000E+00 -0.59443102081E+02  0.59443102081E+02  0.00000000000E+00 0.  1.
         23    2    1    2    0    0  0.31766627153E+02 -0.69316088381E+01  0.28105905561E+03  0.29720915686E+03  0.91005078843E+02 0.  0.
          5    1    1    2  502    0 -0.62248639410E+02 -0.40530222789E+02  0.56223177399E+02  0.93277691569E+02  0.47000000000E+01 0. -1.
         -5    1    1    2    0  502  0.30482012256E+02  0.47461831627E+02 -0.84513985516E+01  0.57230190197E+02  0.47000000000E+01 0.  1.
        -11    1    3    3    0    0 -0.22580020183E+02  0.23916906363E+02  0.12077516327E+03  0.12517394211E+03  0.00000000000E+00 0.  1.
         11    1    3    3    0    0  0.54346647336E+02 -0.30848515201E+02  0.16028389234E+03  0.17203521474E+03  0.00000000000E+00 0. -1.
<mgrwt>
<rscale>  0 0.12946833E+03</rscale>
<asrwt>0</asrwt>
<pdfrwt beam="1">  1        2 0.59734450E-01 0.14272519E+03</pdfrwt>
<pdfrwt beam="2">  1       -2 0.91450929E-02 0.14272519E+03</pdfrwt>
<totfact> 0.60639260E+03</totfact>
</mgrwt>
</event>
<event>
 8    1  0.1646661E-005  0.1343400E+03  0.7546771E-02  0.1232932E+00
         -2   -1    0    0    0  501 -0.00000000000E+00  0.00000000000E+00  0.33965784037E+03  0.33965784037E+03  0.00000000000E+00 0.  1.
          2   -1    0    0  501    0  0.00000000000E+00 -0.00000000000E+00 -0.58354328801E+02  0.58354328801E+02  0.00000000000E+00 0. -1.
         23    2    1    2    0    0  0.12198859519E+02 -0.47664077775E+02  0.25705553366E+03  0.29004272741E+03  0.12500623928E+03 0.  0.
         23    2    1    2    0    0 -0.12198859519E+02  0.47664077775E+02  0.24247977915E+02  0.10796944176E+03  0.92998706643E+02 0.  0.
          5    1    3    3  502    0 -0.46198240326E+02 -0.46148868863E+02  0.79062304362E+02  0.10264956638E+03  0.47000000000E+01 0.  1.
         -5    1    3    3    0  502  0.58397099845E+02 -0.15152089124E+01  0.17799322930E+03  0.18739316104E+03  0.47000000000E+01 0.  1.
        -11    1    4    4    0    0 -0.32625938536E+02 -0.17414434106E+02  0.75290648505E+01  0.37741240018E+02  0.00000000000E+00 0. -1.
         11    1    4    4    0    0  0.20427079017E+02  0.65078511881E+02  0.16718913065E+02  0.70228201742E+02  0.00000000000E+00 0.  1.
<mgrwt>
<rscale>  0 0.12637748E+03</rscale>
<asrwt>0</asrwt>
<pdfrwt beam="2">  1        2 0.89775893E-02 0.13434000E+03</pdfrwt>
<pdfrwt beam="1">  1       -2 0.52255051E-01 0.13434000E+03</pdfrwt>
<totfact> 0.24803960E+03</totfact>
</mgrwt>
</event>
<event>
 8    1  0.1646661E-005  0.1267706E+03  0.7546771E-02  0.1247740E+00
         -2   -1    0    0    0  501 -0.00000000000E+00  0.00000000000E+00  0.49442849210E+02  0.49442849210E+02  0.00000000000E+00 0.  1.
          2   -1    0    0  501    0  0.00000000000E+00 -0.00000000000E+00 -0.25755807425E+03  0.25755807425E+03  0.00000000000E+00 0. -1.
         23    2    1    2    0    0 -0.64779568025E+01  0.20064888236E+02 -0.83948246875E+02  0.15204635903E+03  0.12500489382E+03 0.  0.
         23    2    1    2    0    0  0.64779568025E+01 -0.20064888236E+02 -0.12416697816E+03  0.15495456443E+03  0.90271340445E+02 0.  0.
          5    1    3    3  502    0  0.35442018783E+02  0.35202288038E+02 -0.93602393321E+02  0.10620186351E+03  0.47000000000E+01 0.  1.
         -5    1    3    3    0  502 -0.41919975586E+02 -0.15137399802E+02  0.96541464456E+01  0.45844495520E+02  0.47000000000E+01 0.  1.
        -11    1    4    4    0    0 -0.18088273246E+02 -0.23015621666E+02 -0.12674157079E+03  0.13007816972E+03  0.00000000000E+00 0. -1.
         11    1    4    4    0    0  0.24566230048E+02  0.29507334296E+01  0.25745926286E+01  0.24876394710E+02  0.00000000000E+00 0.  1.
<mgrwt>
<rscale>  0 0.11722900E+03</rscale>
<asrwt>0</asrwt>
<pdfrwt beam="2">  1        2 0.39624318E-01 0.12677061E+03</pdfrwt>
<pdfrwt beam="1">  1       -2 0.76065924E-02 0.12677061E+03</pdfrwt>
<totfact> 0.12364155E+04</totfact>
</mgrwt>
</event>
<event>
 8    1  0.1646661E-005  0.1513456E+03  0.7546771E-02  0.1206712E+00
         -1   -1    0    0    0  501 -0.00000000000E+00  0.00000000000E+00  0.35416743128E+03  0.35416743128E+03  0.00000000000E+00 0.  1.
          1   -1    0    0  501    0  0.00000000000E+00 -0.00000000000E+00 -0.10685545512E+03  0.10685545512E+03  0.00000000000E+00 0. -1.
         23    2    1    2    0    0 -0.82245069768E+02 -0.22717331152E+02  0.28943750730E+03  0.32661836432E+03  0.12500062657E+03 0.  0.
         23    2    1    2    0    0  0.82245069768E+02  0.22717331152E+02 -0.42125531139E+02  0.13440452208E+03  0.94919368652E+02 0.  0.
          5    1    3    3  502    0 -0.52797284370E+01  0.14945246111E+01  0.21984683232E+03  0.21996551734E+03  0.47000000000E+01 0. -1.
         -5    1    3    3    0  502 -0.76965341331E+02 -0.24211855763E+02  0.69590674983E+02  0.10665284699E+03  0.47000000000E+01 0. -1.
        -11    1    4    4    0    0 -0.82327743817E+01  0.30236019583E+02  0.56028103824E+01  0.31833738995E+02  0.00000000000E+00 0.  1.
         11    1    4    4    0    0  0.90477844150E+02 -0.75186884309E+01 -0.47728341521E+02  0.10257078308E+03  0.00000000000E+00 0. -1.
<mgrwt>
<rscale>  0 0.14503322E+03</rscale>
<asrwt>0</asrwt>
<pdfrwt beam="2">  1        1 0.16439301E-01 0.15134558E+03</pdfrwt>
<pdfrwt beam="1">  1       -1 0.54487296E-01 0.15134558E+03</pdfrwt>
<totfact> 0.11400886E+03</totfact>
</mgrwt>
</event>
<event>
 8    1  0.1646661E-005  0.1302636E+03  0.7546771E-02  0.1245099E+00
         -3   -1    0    0    0  501 -0.00000000000E+00  0.00000000000E+00  0.61921507118E+02  0.61921507118E+02  0.00000000000E+00 0.  1.
          3   -1    0    0  501    0  0.00000000000E+00 -0.00000000000E+00 -0.23589047007E+03  0.23589047007E+03  0.00000000000E+00 0. -1.
         23    2    1    2    0    0 -0.26811687651E+02 -0.25005121760E+02 -0.39819186316E+02  0.13621366219E+03  0.12499788582E+03 0.  0.
         23    2    1    2    0    0  0.26811687651E+02  0.25005121760E+02 -0.13414977664E+03  0.16159831500E+03  0.82302673894E+02 0.  0.
          5    1    3    3  502    0 -0.14500308290E+02 -0.16852622533E+02  0.44775405967E+02  0.50211520653E+02  0.47000000000E+01 0. -1.
         -5    1    3    3    0  502 -0.12311379361E+02 -0.81524992269E+01 -0.84594592284E+02  0.86002141538E+02  0.47000000000E+01 0. -1.
        -11    1    4    4    0    0 -0.44732166291E+01  0.46958377312E+02 -0.47738390549E+02  0.67112240307E+02  0.00000000000E+00 0.  1.
         11    1    4    4    0    0  0.31284904280E+02 -0.21953255553E+02 -0.86411386089E+02  0.94486074693E+02  0.00000000000E+00 0. -1.
<mgrwt>
<rscale>  0 0.11879478E+03</rscale>
<asrwt>0</asrwt>
<pdfrwt beam="2">  1        3 0.36290842E-01 0.13026356E+03</pdfrwt>
<pdfrwt beam="1">  1       -3 0.95263857E-02 0.13026356E+03</pdfrwt>
<totfact> 0.13691737E+03</totfact>
</mgrwt>
</event>
<event>
 8    1  0.1646661E-005  0.1315173E+03  0.7546771E-02  0.1234878E+00
          2   -1    0    0  501    0  0.00000000000E+00  0.00000000000E+00  0.89508777810E+03  0.89508777810E+03  0.00000000000E+00 0. -1.
         -2   -1    0    0    0  501 -0.00000000000E+00 -0.00000000000E+00 -0.16019866935E+02  0.16019866935E+02  0.00000000000E+00 0.  1.
         23    2    1    2    0    0 -0.40848449045E+02  0.10343774061E+01  0.46318795617E+03  0.48149753919E+03  0.12500852682E+03 0.  0.
         23    2    1    2    0    0  0.40848449045E+02 -0.10343774061E+01  0.41587995500E+03  0.42961010585E+03  0.99694735827E+02 0.  0.
          5    1    3    3  502    0  0.29294676254E+02  0.16057078861E+02  0.31491437639E+03  0.31671621729E+03  0.47000000000E+01 0.  1.
         -5    1    3    3    0  502 -0.70143125299E+02 -0.15022701455E+02  0.14827357978E+03  0.16478132190E+03  0.47000000000E+01 0.  1.
        -11    1    4    4    0    0 -0.18502190612E+02  0.33396362514E+02  0.17701975079E+03  0.18109014401E+03  0.00000000000E+00 0.  1.
         11    1    4    4    0    0  0.59350639657E+02 -0.34430739921E+02  0.23886020420E+03  0.24851996183E+03  0.00000000000E+00 0. -1.
<mgrwt>
<rscale>  0 0.12512241E+03</rscale>
<asrwt>0</asrwt>
<pdfrwt beam="1">  1        2 0.13770577E+00 0.13151729E+03</pdfrwt>
<pdfrwt beam="2">  1       -2 0.24645956E-02 0.13151729E+03</pdfrwt>
<totfact> 0.16535476E+04</totfact>
</mgrwt>
</event>
<event>
 8    1  0.1646661E-005  0.1198546E+03  0.7546771E-02  0.1251944E+00
          3   -1    0    0  501    0  0.00000000000E+00  0.00000000000E+00  0.17155571405E+02  0.17155571405E+02  0.00000000000E+00 0. -1.
         -3   -1    0    0    0  501 -0.00000000000E+00 -0.00000000000E+00 -0.79944012621E+03  0.79944012621E+03  0.00000000000E+00 0.  1.
         23    2    1    2    0    0  0.39709549545E+02  0.20292366591E+02 -0.55726988771E+03  0.57001303554E+03  0.11124973918E+03 0.  0.
         23    2    1    2    0    0 -0.39709549545E+02 -0.20292366591E+02 -0.22501466710E+03  0.24658266208E+03  0.90458721871E+02 0.  0.
          5    1    3    3  502    0 -0.23944531008E+02 -0.27149267495E+02 -0.24845780022E+03  0.25112505208E+03  0.47000000000E+01 0. -1.
         -5    1    3    3    0  502  0.63654080553E+02  0.47441634085E+02 -0.30881208748E+03  0.31888798345E+03  0.47000000000E+01 0.  1.
        -11    1    4    4    0    0 -0.60631865129E+02 -0.24071555505E+01 -0.88395935118E+02  0.10721874282E+03  0.00000000000E+00 0. -1.
         11    1    4    4    0    0  0.20922315584E+02 -0.17885211040E+02 -0.13661873198E+03  0.13936391926E+03  0.00000000000E+00 0.  1.
<mgrwt>
<rscale>  0 0.11479256E+03</rscale>
<asrwt>0</asrwt>
<pdfrwt beam="1">  1        3 0.26393185E-02 0.11985463E+03</pdfrwt>
<pdfrwt beam="2">  1       -3 0.12299080E+00 0.11985463E+03</pdfrwt>
<totfact> 0.78666789E+02</totfact>
</mgrwt>
</event>
<event>
 8    1  0.1646661E-005  0.1317415E+03  0.7546771E-02  0.1238734E+00
         -2   -1    0    0    0  501 -0.00000000000E+00  0.00000000000E+00  0.49575016809E+02  0.49575016809E+02  0.00000000000E+00 0. -1.
          2   -1    0    0  501    0  0.00000000000E+00 -0.00000000000E+00 -0.29368353848E+03  0.29368353848E+03  0.00000000000E+00 0.  1.
         23    2    1    2    0    0 -0.39298265193E+02 -0.13646271318E+02 -0.88230388121E+02  0.15855728034E+03  0.12500094156E+03 0.  0.
         23    2    1    2    0    0  0.39298265193E+02  0.13646271318E+02 -0.15587813355E+03  0.18470127495E+03  0.89922155678E+02 0.  0.
          5    1    3    3  502    0 -0.80819321505E+02 -0.48207896202E+01 -0.30275861797E+02  0.86566278357E+02  0.47000000000E+01 0.  1.
         -5    1    3    3    0  502  0.41521056312E+02 -0.88254816979E+01 -0.57954526324E+02  0.71991001979E+02  0.47000000000E+01 0.  1.
        -11    1    4    4    0    0  0.57489200475E+02  0.88332254773E+00 -0.15151225003E+03  0.16205477574E+03  0.00000000000E+00 0.  1.
         11    1    4    4    0    0 -0.18190935283E+02  0.12762948770E+02 -0.43658835201E+01  0.22646499215E+02  0.00000000000E+00 0. -1.
<mgrwt>
<rscale>  0 0.12268368E+03</rscale>
<asrwt>0</asrwt>
<pdfrwt beam="2">  1        2 0.45182084E-01 0.13174145E+03</pdfrwt>
<pdfrwt beam="1">  1       -2 0.76269255E-02 0.13174145E+03</pdfrwt>
<totfact> 0.10749332E+04</totfact>
</mgrwt>
</event>
<event>
 8    1  0.1646661E-005  0.1332572E+03  0.7546771E-02  0.1235630E+00
         -3   -1    0    0    0  501 -0.00000000000E+00  0.00000000000E+00  0.82783979451E+02  0.82783979451E+02  0.00000000000E+00 0.  1.
          3   -1    0    0  501    0  0.00000000000E+00 -0.00000000000E+00 -0.16715783634E+03  0.16715783634E+03  0.00000000000E+00 0. -1.
         23    2    1    2    0    0  0.61431512054E+01 -0.45763434542E+02 -0.49234536288E+02  0.14206164423E+03  0.12500176379E+03 0.  0.
         23    2    1    2    0    0 -0.61431512054E+01  0.45763434542E+02 -0.35139320603E+02  0.10788017156E+03  0.90946848852E+02 0.  0.
          5    1    3    3  502    0  0.47024206248E+02 -0.67803513116E+02 -0.14581659122E+02  0.83924413295E+02  0.47000000000E+01 0.  1.
         -5    1    3    3    0  502 -0.40881055043E+02  0.22040078574E+02 -0.34652877166E+02  0.58137230936E+02  0.47000000000E+01 0.  1.
        -11    1    4    4    0    0 -0.24273111998E+02 -0.86870942578E+01 -0.42816927108E+02  0.49979383946E+02  0.00000000000E+00 0. -1.
         11    1    4    4    0    0  0.18129960792E+02  0.54450528800E+02  0.76776065048E+01  0.57900787616E+02  0.00000000000E+00 0.  1.
<mgrwt>
<rscale>  0 0.12464206E+03</rscale>
<asrwt>0</asrwt>
<pdfrwt beam="2">  1        3 0.25716590E-01 0.13325716E+03</pdfrwt>
<pdfrwt beam="1">  1       -3 0.12735997E-01 0.13325716E+03</pdfrwt>
<totfact> 0.16048444E+03</totfact>
</mgrwt>
</event>
<event>
 8    1  0.1646661E-005  0.1265290E+03  0.7546771E-02  0.1248631E+00
         -2   -1    0    0    0  501 -0.00000000000E+00  0.00000000000E+00  0.91212713980E+02  0.91212713980E+02  0.00000000000E+00 0.  1.
          2   -1    0    0  501    0  0.00000000000E+00 -0.00000000000E+00 -0.16701421046E+03  0.16701421046E+03  0.00000000000E+00 0. -1.
         23    2    1    2    0    0 -0.19528343219E+02 -0.22507021373E+01  0.17210915129E+02  0.12769420267E+03  0.12499268757E+03 0.  0.
         23    2    1    2    0    0  0.19528343219E+02  0.22507021373E+01 -0.93012411612E+02  0.13053272178E+03  0.89448649470E+02 0.  0.
          5    1    3    3  502    0 -0.54788549356E+02 -0.18268136069E+02  0.50152478689E+02  0.76634659617E+02  0.47000000000E+01 0. -1.
         -5    1    3    3    0  502  0.35260206136E+02  0.16017433932E+02 -0.32941563561E+02  0.51059543049E+02  0.47000000000E+01 0. -1.
        -11    1    4    4    0    0  0.42210048271E+02 -0.12772986040E+02 -0.93439100651E+02  0.10332329301E+03  0.00000000000E+00 0. -1.
         11    1    4    4    0    0 -0.22681705052E+02  0.15023688178E+02  0.42668903838E+00  0.27209428771E+02  0.00000000000E+00 0.  1.
<mgrwt>
<rscale>  0 0.11670691E+03</rscale>
<asrwt>0</asrwt>
<pdfrwt beam="2">  1        2 0.25694494E-01 0.12652902E+03</pdfrwt>
<pdfrwt beam="1">  1       -2 0.14032725E-01 0.12652902E+03</pdfrwt>
<totfact> 0.75155685E+03</totfact>
</mgrwt>
</event>
<event>
 8    1  0.1646661E-005  0.1852423E+03  0.7546771E-02  0.1168053E+00
         -1   -1    0    0    0  501 -0.00000000000E+00  0.00000000000E+00  0.31758739108E+03  0.31758739108E+03  0.00000000000E+00 0.  1.
          1   -1    0    0  501    0  0.00000000000E+00 -0.00000000000E+00 -0.14684557960E+03  0.14684557960E+03  0.00000000000E+00 0. -1.
         23    2    1    2    0    0 -0.12806091849E+03 -0.47981332748E+02  0.22505136364E+03  0.29148384863E+03  0.12495163306E+03 0.  0.
         23    2    1    2    0    0  0.12806091849E+03  0.47981332748E+02 -0.54309552157E+02  0.17294912204E+03  0.90884895462E+02 0.  0.
          5    1    3    3  502    0 -0.35163643859E+02 -0.95826465106E+01  0.17551721912E+03  0.17932287409E+03  0.47000000000E+01 0. -1.
         -5    1    3    3    0  502 -0.92897274630E+02 -0.38398686237E+02  0.49534144517E+02  0.11216097455E+03  0.47000000000E+01 0. -1.
        -11    1    4    4    0    0  0.92492548075E+02 -0.93742644695E+01 -0.13130445693E+02  0.93889066924E+02  0.00000000000E+00 0. -1.
         11    1    4    4    0    0  0.35568370414E+02  0.57355597217E+02 -0.41179106464E+02  0.79060055118E+02  0.00000000000E+00 0.  1.
<mgrwt>
<rscale>  0 0.17974173E+03</rscale>
<asrwt>0</asrwt>
<pdfrwt beam="2">  1        1 0.22591628E-01 0.18524232E+03</pdfrwt>
<pdfrwt beam="1">  1       -1 0.48859599E-01 0.18524232E+03</pdfrwt>
<totfact> 0.93128186E+02</totfact>
</mgrwt>
</event>
<event>
 8    1  0.1646661E-005  0.1274853E+03  0.7546771E-02  0.1245807E+00
         -3   -1    0    0    0  501 -0.00000000000E+00  0.00000000000E+00  0.36557310426E+02  0.36557310426E+02  0.00000000000E+00 0.  1.
          3   -1    0    0  501    0  0.00000000000E+00 -0.00000000000E+00 -0.34567993185E+03  0.34567993185E+03  0.00000000000E+00 0. -1.
         23    2    1    2    0    0 -0.15517636222E+02  0.19617909843E+02 -0.14820531848E+03  0.19549249008E+03  0.12500735112E+03 0.  0.
         23    2    1    2    0    0  0.15517636222E+02 -0.19617909843E+02 -0.16091730295E+03  0.18674475219E+03  0.91397837305E+02 0.  0.
          5    1    3    3  502    0 -0.31205583624E+02  0.45725580475E+02 -0.13321906968E+02  0.57133005911E+02  0.47000000000E+01 0.  1.
         -5    1    3    3    0  502  0.15687947402E+02 -0.26107670633E+02 -0.13488341151E+03  0.13835948417E+03  0.47000000000E+01 0.  1.
        -11    1    4    4    0    0  0.92161096743E+00  0.32964597763E+02 -0.98305333323E+02  0.10368921174E+03  0.00000000000E+00 0. -1.
         11    1    4    4    0    0  0.14596025255E+02 -0.52582507605E+02 -0.62611969623E+02  0.83055540450E+02  0.00000000000E+00 0.  1.
<mgrwt>
<rscale>  0 0.11837225E+03</rscale>
<asrwt>0</asrwt>
<pdfrwt beam="2">  1        3 0.53181529E-01 0.12748528E+03</pdfrwt>
<pdfrwt beam="1">  1       -3 0.56242015E-02 0.12748528E+03</pdfrwt>
<totfact> 0.15158029E+03</totfact>
</mgrwt>
</event>
<event>
 8    1  0.1646661E-005  0.1290615E+03  0.7546771E-02  0.1243202E+00
         -1   -1    0    0    0  501 -0.00000000000E+00  0.00000000000E+00  0.10943278123E+03  0.10943278123E+03  0.00000000000E+00 0.  1.
          1   -1    0    0  501    0  0.00000000000E+00 -0.00000000000E+00 -0.12155706055E+03  0.12155706055E+03  0.00000000000E+00 0. -1.
         23    2    1    2    0    0  0.12992337562E+02  0.29375977101E+02  0.17592031865E+02  0.13025498447E+03  0.12500053011E+03 0.  0.
         23    2    1    2    0    0 -0.12992337562E+02 -0.29375977101E+02 -0.29716311190E+02  0.10073485731E+03  0.90734246349E+02 0.  0.
          5    1    3    3  502    0 -0.17159468011E+02  0.66025257868E+02 -0.18043793086E+02  0.70720933873E+02  0.47000000000E+01 0.  1.
         -5    1    3    3    0  502  0.30151805573E+02 -0.36649280768E+02  0.35635824951E+02  0.59534050593E+02  0.47000000000E+01 0.  1.
        -11    1    4    4    0    0  0.12658127161E+02 -0.56995232583E+02 -0.15081579134E+02  0.60300404224E+02  0.00000000000E+00 0. -1.
         11    1    4    4    0    0 -0.25650464724E+02  0.27619255483E+02 -0.14634732056E+02  0.40434453085E+02  0.00000000000E+00 0.  1.
<mgrwt>
<rscale>  0 0.11993615E+03</rscale>
<asrwt>0</asrwt>
<pdfrwt beam="2">  1        1 0.18701086E-01 0.12906154E+03</pdfrwt>
<pdfrwt beam="1">  1       -1 0.16835813E-01 0.12906154E+03</pdfrwt>
<totfact> 0.70240100E+03</totfact>
</mgrwt>
</event>
<event>
 8    1  0.1646661E-005  0.1415332E+03  0.7546771E-02  0.1221740E+00
         -2   -1    0    0    0  501 -0.00000000000E+00  0.00000000000E+00  0.31810129487E+02  0.31810129487E+02  0.00000000000E+00 0. -1.
          2   -1    0    0  501    0  0.00000000000E+00 -0.00000000000E+00 -0.51750669154E+03  0.51750669154E+03  0.00000000000E+00 0.  1.
         23    2    1    2    0    0  0.63141148709E+02 -0.20714746918E+02 -0.23883179140E+03  0.27761891587E+03  0.12496292435E+03 0.  0.
         23    2    1    2    0    0 -0.63141148709E+02  0.20714746918E+02 -0.24686477065E+03  0.27169790516E+03  0.91987125617E+02 0.  0.
          5    1    3    3  502    0 -0.19316421724E+02 -0.46133953441E+02 -0.54995435190E+02  0.74485258273E+02  0.47000000000E+01 0.  1.
         -5    1    3    3    0  502  0.82457570433E+02  0.25419206523E+02 -0.18383635621E+03  0.20313365759E+03  0.47000000000E+01 0.  1.
        -11    1    4    4    0    0 -0.67876212772E+02 -0.16169212185E+02 -0.20030709938E+03  0.21211213484E+03  0.00000000000E+00 0. -1.
         11    1    4    4    0    0  0.47350640626E+01  0.36883959102E+02 -0.46557671269E+02  0.59585770321E+02  0.00000000000E+00 0.  1.
<mgrwt>
<rscale>  0 0.13392843E+03</rscale>
<asrwt>0</asrwt>
<pdfrwt beam="2">  1        2 0.79616411E-01 0.14153317E+03</pdfrwt>
<pdfrwt beam="1">  1       -2 0.48938662E-02 0.14153317E+03</pdfrwt>
<totfact> 0.11545373E+04</totfact>
</mgrwt>
</event>
<event>
 8    1  0.1646661E-005  0.1425364E+03  0.7546771E-02  0.1219872E+00
         -2   -1    0    0    0  501 -0.00000000000E+00  0.00000000000E+00  0.55877457474E+02  0.55877457474E+02  0.00000000000E+00 0. -1.
          2   -1    0    0  501    0  0.00000000000E+00 -0.00000000000E+00 -0.29897394552E+03  0.29897394552E+03  0.00000000000E+00 0.  1.
         23    2    1    2    0    0 -0.66586061099E+02 -0.16003278702E+02 -0.12407256899E+03  0.18897257590E+03  0.12500729420E+03 0.  0.
         23    2    1    2    0    0  0.66586061099E+02  0.16003278702E+02 -0.11902391905E+03  0.16587882709E+03  0.93055271262E+02 0.  0.
          5    1    3    3  502    0  0.12390937923E+02 -0.52534088232E+02 -0.35843247613E+02  0.64963021547E+02  0.47000000000E+01 0. -1.
         -5    1    3    3    0  502 -0.78976999022E+02  0.36530809530E+02 -0.88229321375E+02  0.12400955435E+03  0.47000000000E+01 0. -1.
        -11    1    4    4    0    0  0.15600828519E+02  0.40897372396E+01  0.14978472262E+02  0.22010598185E+02  0.00000000000E+00 0. -1.
         11    1    4    4    0    0  0.50985232580E+02  0.11913541463E+02 -0.13400239132E+03  0.14386822891E+03  0.00000000000E+00 0.  1.
<mgrwt>
<rscale>  0 0.13524645E+03</rscale>
<asrwt>0</asrwt>
<pdfrwt beam="2">  1        2 0.45995992E-01 0.14253642E+03</pdfrwt>
<pdfrwt beam="1">  1       -2 0.85965318E-02 0.14253642E+03</pdfrwt>
<totfact> 0.88167096E+03</totfact>
</mgrwt>
</event>
<event>
 8    1  0.1646661E-005  0.1858010E+03  0.7546771E-02  0.1167558E+00
         -2   -1    0    0    0  501 -0.00000000000E+00  0.00000000000E+00  0.53795517922E+02  0.53795517922E+02  0.00000000000E+00 0.  1.
          2   -1    0    0  501    0  0.00000000000E+00 -0.00000000000E+00 -0.73590651464E+03  0.73590651464E+03  0.00000000000E+00 0. -1.
         23    2    1    2    0    0 -0.61991274464E+02  0.12269891812E+03 -0.17015984040E+03  0.25194522676E+03  0.12499633349E+03 0.  0.
         23    2    1    2    0    0  0.61991274464E+02 -0.12269891812E+03 -0.51195115632E+03  0.53775680580E+03  0.90501122145E+02 0.  0.
          5    1    3    3  502    0 -0.55875897642E+02  0.98359250791E+02 -0.18892887309E+03  0.22025636708E+03  0.47000000000E+01 0.  1.
         -5    1    3    3    0  502 -0.61153768215E+01  0.24339667330E+02  0.18769032694E+02  0.31688859677E+02  0.47000000000E+01 0.  1.
        -11    1    4    4    0    0  0.17432258481E+02 -0.10922086794E+03 -0.27751891854E+03  0.29874710338E+03  0.00000000000E+00 0.  1.
         11    1    4    4    0    0  0.44559015982E+02 -0.13478050185E+02 -0.23443223778E+03  0.23900970242E+03  0.00000000000E+00 0. -1.
<mgrwt>
<rscale>  0 0.18025363E+03</rscale>
<asrwt>0</asrwt>
<pdfrwt beam="2">  1        2 0.11321638E+00 0.18580104E+03</pdfrwt>
<pdfrwt beam="1">  1       -2 0.82762340E-02 0.18580104E+03</pdfrwt>
<totfact> 0.34876866E+03</totfact>
</mgrwt>
</event>
<event>
 8    1  0.1646661E-005  0.1296147E+03  0.7546771E-02  0.1241138E+00
         -2   -1    0    0    0  501 -0.00000000000E+00  0.00000000000E+00  0.34175118500E+02  0.34175118500E+02  0.00000000000E+00 0.  1.
          2   -1    0    0  501    0  0.00000000000E+00 -0.00000000000E+00 -0.41534854567E+03  0.41534854567E+03  0.00000000000E+00 0. -1.
         23    2    1    2    0    0  0.11855171772E+02  0.32334196268E+02 -0.15143263677E+03  0.19932838152E+03  0.12495565154E+03 0.  0.
         23    2    1    2    0    0 -0.11855171772E+02 -0.32334196268E+02 -0.22974079039E+03  0.25019528265E+03  0.92902117004E+02 0.  0.
          5    1    3    3  502    0 -0.13891178586E+02 -0.59675900874E+01 -0.15211210924E+03  0.15293384436E+03  0.47000000000E+01 0.  1.
         -5    1    3    3    0  502  0.25746350358E+02  0.38301786356E+02  0.67947246765E+00  0.46394537153E+02  0.47000000000E+01 0.  1.
        -11    1    4    4    0    0  0.25674688498E+02 -0.43474714301E+02 -0.17971180287E+03  0.18666968823E+03  0.00000000000E+00 0. -1.
         11    1    4    4    0    0 -0.37529860270E+02  0.11140518032E+02 -0.50028987525E+02  0.63525594422E+02  0.00000000000E+00 0.  1.
<mgrwt>
<rscale>  0 0.12119567E+03</rscale>
<asrwt>0</asrwt>
<pdfrwt beam="2">  1        2 0.63899775E-01 0.12961466E+03</pdfrwt>
<pdfrwt beam="1">  1       -2 0.52577107E-02 0.12961466E+03</pdfrwt>
<totfact> 0.13077930E+04</totfact>
</mgrwt>
</event>
<event>
 8    1  0.1646661E-005  0.1417273E+03  0.7546771E-02  0.1222480E+00
         -2   -1    0    0    0  501 -0.00000000000E+00  0.00000000000E+00  0.16463860609E+03  0.16463860609E+03  0.00000000000E+00 0.  1.
          2   -1    0    0  501    0  0.00000000000E+00 -0.00000000000E+00 -0.12417238282E+03  0.12417238282E+03  0.00000000000E+00 0. -1.
         23    2    1    2    0    0 -0.29810768149E+01 -0.66766160182E+02  0.89059632802E+02  0.16738654984E+03  0.12498012605E+03 0.  0.
         23    2    1    2    0    0  0.29810768149E+01  0.66766160182E+02 -0.48593409532E+02  0.12142443907E+03  0.88971725790E+02 0.  0.
          5    1    3    3  502    0 -0.27103459595E+02 -0.50374056085E+02 -0.14910930464E+02  0.59300665222E+02  0.47000000000E+01 0.  1.
         -5    1    3    3    0  502  0.24122382780E+02 -0.16392104097E+02  0.10397056327E+03  0.10808588462E+03  0.47000000000E+01 0.  1.
        -11    1    4    4    0    0  0.32173127779E+02  0.39862869620E+02 -0.61165085364E+02  0.79782994385E+02  0.00000000000E+00 0. -1.
         11    1    4    4    0    0 -0.29192050964E+02  0.26903290562E+02  0.12571675832E+02  0.41641444689E+02  0.00000000000E+00 0.  1.
<mgrwt>
<rscale>  0 0.13341099E+03</rscale>
<asrwt>0</asrwt>
<pdfrwt beam="2">  1        2 0.19103443E-01 0.14172734E+03</pdfrwt>
<pdfrwt beam="1">  1       -2 0.25329017E-01 0.14172734E+03</pdfrwt>
<totfact> 0.39079870E+03</totfact>
</mgrwt>
</event>
<event>
 8    1  0.1646661E-005  0.1384773E+03  0.7546771E-02  0.1227351E+00
          1   -1    0    0  501    0  0.00000000000E+00  0.00000000000E+00  0.39971515325E+03  0.39971515325E+03  0.00000000000E+00 0. -1.
         -1   -1    0    0    0  501 -0.00000000000E+00 -0.00000000000E+00 -0.38064438796E+02  0.38064438796E+02  0.00000000000E+00 0.  1.
         23    2    1    2    0    0  0.33156912533E+02  0.49530051717E+02  0.19046904101E+03  0.23548760556E+03  0.12499339948E+03 0.  0.
         23    2    1    2    0    0 -0.33156912533E+02 -0.49530051717E+02  0.17118167345E+03  0.20229198649E+03  0.89812446820E+02 0.  0.
          5    1    3    3  502    0 -0.26145829358E+02 -0.44757538467E+01  0.13546408662E+03  0.13811678222E+03  0.47000000000E+01 0.  1.
         -5    1    3    3    0  502  0.59302741891E+02  0.54005805564E+02  0.55004954390E+02  0.97370823340E+02  0.47000000000E+01 0.  1.
        -11    1    4    4    0    0  0.29691208409E+02 -0.77183977230E+01  0.66472237049E+02  0.73209970758E+02  0.00000000000E+00 0. -1.
         11    1    4    4    0    0 -0.62848120942E+02 -0.41811653994E+02  0.10470943640E+03  0.12908201573E+03  0.00000000000E+00 0.  1.
<mgrwt>
<rscale>  0 0.13007069E+03</rscale>
<asrwt>0</asrwt>
<pdfrwt beam="1">  1        1 0.61494636E-01 0.13847728E+03</pdfrwt>
<pdfrwt beam="2">  1       -1 0.58560678E-02 0.13847728E+03</pdfrwt>
<totfact> 0.80220526E+03</totfact>
</mgrwt>
</event>
<event>
 8    1  0.1646661E-005  0.2367958E+03  0.7546771E-02  0.1124932E+00
          2   -1    0    0  501    0  0.00000000000E+00  0.00000000000E+00  0.41006123998E+03  0.41006123998E+03  0.00000000000E+00 0. -1.
         -2   -1    0    0    0  501 -0.00000000000E+00 -0.00000000000E+00 -0.12946242900E+03  0.12946242900E+03  0.00000000000E+00 0.  1.
         23    2    1    2    0    0 -0.17301610658E+03  0.10265903003E+03  0.10927768270E+03  0.26079464300E+03  0.12489509318E+03 0.  0.
         23    2    1    2    0    0  0.17301610658E+03 -0.10265903003E+03  0.17132112828E+03  0.27872902598E+03  0.88687605374E+02 0.  0.
          5    1    3    3  502    0 -0.84807824466E+02  0.14692637185E+02  0.10528077804E+03  0.13606753067E+03  0.47000000000E+01 0. -1.
         -5    1    3    3    0  502 -0.88208282110E+02  0.87966392848E+02  0.39969046607E+01  0.12472711233E+03  0.47000000000E+01 0. -1.
        -11    1    4    4    0    0  0.97401286417E+02 -0.81101607036E+01  0.63047208561E+02  0.11630879507E+03  0.00000000000E+00 0.  1.
         11    1    4    4    0    0  0.75614820159E+02 -0.94548869330E+02  0.10827391971E+03  0.16242023091E+03  0.00000000000E+00 0. -1.
<mgrwt>
<rscale>  0 0.23244360E+03</rscale>
<asrwt>0</asrwt>
<pdfrwt beam="1">  1        2 0.63086344E-01 0.23679576E+03</pdfrwt>
<pdfrwt beam="2">  1       -2 0.19917297E-01 0.23679576E+03</pdfrwt>
<totfact> 0.16387124E+03</totfact>
</mgrwt>
</event>
<event>
 8    1  0.1646661E-005  0.1719733E+03  0.7546771E-02  0.1176937E+00
         -2   -1    0    0    0  501 -0.00000000000E+00  0.00000000000E+00  0.94009209711E+03  0.94009209711E+03  0.00000000000E+00 0.  1.
          2   -1    0    0  501    0  0.00000000000E+00 -0.00000000000E+00 -0.36456935313E+02  0.36456935313E+02  0.00000000000E+00 0. -1.
         23    2    1    2    0    0 -0.11334654859E+03  0.33216608750E+02  0.65121056510E+03  0.67353546390E+03  0.12499615140E+03 0.  0.
         23    2    1    2    0    0  0.11334654859E+03 -0.33216608750E+02  0.25242459670E+03  0.30301356852E+03  0.11894646912E+03 0.  0.
          5    1    3    3  502    0 -0.89928163994E+02  0.18414855836E+02  0.63390534561E+03  0.64053435411E+03  0.47000000000E+01 0. -1.
         -5    1    3    3    0  502 -0.23418384594E+02  0.14801752913E+02  0.17305219487E+02  0.33001109797E+02  0.47000000000E+01 0. -1.
        -11    1    4    4    0    0  0.91626677163E+02 -0.29359805002E+02  0.26189292686E+03  0.27900779784E+03  0.00000000000E+00 0.  1.
         11    1    4    4    0    0  0.21719871426E+02 -0.38568037474E+01 -0.94683301609E+01  0.24005770680E+02  0.00000000000E+00 0. -1.
<mgrwt>
<rscale>  0 0.17087646E+03</rscale>
<asrwt>0</asrwt>
<pdfrwt beam="2">  1        2 0.56087600E-02 0.17197331E+03</pdfrwt>
<pdfrwt beam="1">  1       -2 0.14462953E+00 0.17197331E+03</pdfrwt>
<totfact> 0.46500833E+02</totfact>
</mgrwt>
</event>
<event>
 8    1  0.1646661E-005  0.1478112E+03  0.7546771E-02  0.1212534E+00
          1   -1    0    0  501    0  0.00000000000E+00  0.00000000000E+00  0.55057260899E+03  0.55057260899E+03  0.00000000000E+00 0. -1.
         -1   -1    0    0    0  501 -0.00000000000E+00 -0.00000000000E+00 -0.33179973541E+02  0.33179973541E+02  0.00000000000E+00 0.  1.
         23    2    1    2    0    0  0.24480701017E+01  0.78848341406E+02  0.25343308675E+03  0.29338792544E+03  0.12500036539E+03 0.  0.
         23    2    1    2    0    0 -0.24480701017E+01 -0.78848341406E+02  0.26395954871E+03  0.29036465709E+03  0.91727513567E+02 0.  0.
          5    1    3    3  502    0 -0.54964149871E+02  0.12441394354E+02  0.13079404923E+03  0.14249568197E+03  0.47000000000E+01 0.  1.
         -5    1    3    3    0  502  0.57412219973E+02  0.66406947052E+02  0.12263903751E+03  0.15089224347E+03  0.47000000000E+01 0.  1.
        -11    1    4    4    0    0  0.85805461058E+01 -0.68765117036E+02  0.26636245954E+03  0.27522940785E+03  0.00000000000E+00 0. -1.
         11    1    4    4    0    0 -0.11028616208E+02 -0.10083224370E+02 -0.24029108351E+01  0.15135249242E+02  0.00000000000E+00 0.  1.
<mgrwt>
<rscale>  0 0.14059243E+03</rscale>
<asrwt>0</asrwt>
<pdfrwt beam="1">  1        1 0.84703471E-01 0.14781118E+03</pdfrwt>
<pdfrwt beam="2">  1       -1 0.51046117E-02 0.14781118E+03</pdfrwt>
<totfact> 0.65273283E+03</totfact>
</mgrwt>
</event>
<event>
 8    1  0.1646661E-005  0.1333425E+03  0.7546771E-02  0.1235074E+00
         -3   -1    0    0    0  501 -0.00000000000E+00  0.00000000000E+00  0.26214351132E+03  0.26214351132E+03  0.00000000000E+00 0.  1.
          3   -1    0    0  501    0  0.00000000000E+00 -0.00000000000E+00 -0.84578565951E+02  0.84578565951E+02  0.00000000000E+00 0. -1.
         23    2    1    2    0    0 -0.22214476504E+02  0.40816615018E+02  0.20092066612E+03  0.24114171932E+03  0.12498294162E+03 0.  0.
         23    2    1    2    0    0  0.22214476504E+02 -0.40816615018E+02 -0.23355720753E+02  0.10558035795E+03  0.91881680788E+02 0.  0.
          5    1    3    3  502    0  0.14670186028E+02  0.15735741413E+02  0.19460643230E+03  0.19584836330E+03  0.47000000000E+01 0. -1.
         -5    1    3    3    0  502 -0.36884662532E+02  0.25080873605E+02  0.63142338232E+01  0.45293356021E+02  0.47000000000E+01 0. -1.
        -11    1    4    4    0    0  0.15839543166E+02 -0.64880649807E+02  0.60413832102E+01  0.67058841014E+02  0.00000000000E+00 0.  1.
         11    1    4    4    0    0  0.63749333373E+01  0.24064034789E+02 -0.29397103963E+02  0.38521516933E+02  0.00000000000E+00 0. -1.
<mgrwt>
<rscale>  0 0.12499667E+03</rscale>
<asrwt>0</asrwt>
<pdfrwt beam="2">  1        3 0.13012087E-01 0.13334247E+03</pdfrwt>
<pdfrwt beam="1">  1       -3 0.40329771E-01 0.13334247E+03</pdfrwt>
<totfact> 0.66801873E+02</totfact>
</mgrwt>
</event>
<event>
 8    1  0.1646661E-005  0.1302378E+03  0.7546771E-02  0.1240279E+00
         -1   -1    0    0    0  501 -0.00000000000E+00  0.00000000000E+00  0.24065626715E+02  0.24065626715E+02  0.00000000000E+00 0.  1.
          1   -1    0    0  501    0  0.00000000000E+00 -0.00000000000E+00 -0.55027125944E+03  0.55027125944E+03  0.00000000000E+00 0. -1.
         23    2    1    2    0    0 -0.33483879005E+02  0.14673116331E+02 -0.27891658441E+03  0.30782519048E+03  0.12500166534E+03 0.  0.
         23    2    1    2    0    0  0.33483879005E+02 -0.14673116331E+02 -0.24728904831E+03  0.26651169567E+03  0.92412878002E+02 0.  0.
          5    1    3    3  502    0 -0.70815209194E+02 -0.17975049279E+02 -0.21280249671E+03  0.22504419312E+03  0.47000000000E+01 0. -1.
         -5    1    3    3    0  502  0.37331330190E+02  0.32648165609E+02 -0.66114087704E+02  0.82780997362E+02  0.47000000000E+01 0. -1.
        -11    1    4    4    0    0  0.99208805905E+01  0.38480150626E+02 -0.12376509930E+03  0.12998825204E+03  0.00000000000E+00 0.  1.
         11    1    4    4    0    0  0.23562998414E+02 -0.53153266956E+02 -0.12352394901E+03  0.13652344363E+03  0.00000000000E+00 0. -1.
<mgrwt>
<rscale>  0 0.12172472E+03</rscale>
<asrwt>0</asrwt>
<pdfrwt beam="2">  1        1 0.84657110E-01 0.13023781E+03</pdfrwt>
<pdfrwt beam="1">  1       -1 0.37024044E-02 0.13023781E+03</pdfrwt>
<totfact> 0.10400930E+04</totfact>
</mgrwt>
</event>
<event>
 8    1  0.1646661E-005  0.1608635E+03  0.7546771E-02  0.1195728E+00
          2   -1    0    0  501    0  0.00000000000E+00  0.00000000000E+00  0.83719214355E+03  0.83719214355E+03  0.00000000000E+00 0. -1.
         -2   -1    0    0    0  501 -0.00000000000E+00 -0.00000000000E+00 -0.27401661978E+02  0.27401661978E+02  0.00000000000E+00 0.  1.
         23    2    1    2    0    0 -0.71543330501E+02 -0.71634867778E+02  0.34550634626E+03  0.38111899771E+03  0.12500821048E+03 0.  0.
         23    2    1    2    0    0  0.71543330501E+02  0.71634867778E+02  0.46428413531E+03  0.48347480781E+03  0.89096178769E+02 0.  0.
          5    1    3    3  502    0 -0.99902449611E+02 -0.81731293517E+02  0.29653759220E+03  0.32344572553E+03  0.47000000000E+01 0.  1.
         -5    1    3    3    0  502  0.28359119110E+02  0.10096425738E+02  0.48968754064E+02  0.57673272180E+02  0.47000000000E+01 0.  1.
        -11    1    4    4    0    0  0.92884977936E+02  0.57094260949E+02  0.37305589926E+03  0.38866190672E+03  0.00000000000E+00 0.  1.
         11    1    4    4    0    0 -0.21341647435E+02  0.14540606830E+02  0.91228236047E+02  0.94812901097E+02  0.00000000000E+00 0. -1.
<mgrwt>
<rscale>  0 0.15392763E+03</rscale>
<asrwt>0</asrwt>
<pdfrwt beam="1">  1        2 0.12879877E+00 0.16086347E+03</pdfrwt>
<pdfrwt beam="2">  1       -2 0.42156410E-02 0.16086347E+03</pdfrwt>
<totfact> 0.82599765E+03</totfact>
</mgrwt>
</event>
<event>
 8    1  0.1646661E-005  0.1329195E+03  0.7546771E-02  0.1236426E+00
         -1   -1    0    0    0  501 -0.00000000000E+00  0.00000000000E+00  0.91991389197E+02  0.91991389197E+02  0.00000000000E+00 0.  1.
          1   -1    0    0  501    0  0.00000000000E+00 -0.00000000000E+00 -0.17838026690E+03  0.17838026690E+03  0.00000000000E+00 0. -1.
         23    2    1    2    0    0 -0.35597489330E+00  0.45232544422E+02  0.64817693793E+01  0.13307744966E+03  0.12498593713E+03 0.  0.
         23    2    1    2    0    0  0.35597489330E+00 -0.45232544422E+02 -0.92870647079E+02  0.13729420643E+03  0.90435790693E+02 0.  0.
          5    1    3    3  502    0  0.26270548882E+01  0.86397672128E+02 -0.12397783370E+02  0.87448580315E+02  0.47000000000E+01 0.  1.
         -5    1    3    3    0  502 -0.29830297815E+01 -0.41165127706E+02  0.18879552750E+02  0.45628869346E+02  0.47000000000E+01 0.  1.
        -11    1    4    4    0    0  0.28250757361E+02 -0.26160142589E+02 -0.38101722009E-01  0.38502724624E+02  0.00000000000E+00 0.  1.
         11    1    4    4    0    0 -0.27894782467E+02 -0.19072401833E+02 -0.92832545357E+02  0.98791481809E+02  0.00000000000E+00 0. -1.
<mgrwt>
<rscale>  0 0.12413609E+03</rscale>
<asrwt>0</asrwt>
<pdfrwt beam="2">  1        1 0.27443118E-01 0.13291950E+03</pdfrwt>
<pdfrwt beam="1">  1       -1 0.14152522E-01 0.13291950E+03</pdfrwt>
<totfact> 0.56988595E+03</totfact>
</mgrwt>
</event>
<event>
 8    1  0.1646661E-005  0.1397592E+03  0.7546771E-02  0.1224730E+00
          1   -1    0    0  501    0  0.00000000000E+00  0.00000000000E+00  0.52997187584E+02  0.52997187584E+02  0.00000000000E+00 0.  1.
         -1   -1    0    0    0  501 -0.00000000000E+00 -0.00000000000E+00 -0.35769075327E+03  0.35769075327E+03  0.00000000000E+00 0. -1.
         23    2    1    2    0    0 -0.27287788001E+02 -0.56249610803E+02 -0.25178702547E+03  0.28797453314E+03  0.12499593374E+03 0.  0.
         23    2    1    2    0    0  0.27287788001E+02  0.56249610803E+02 -0.52906540212E+02  0.12271340771E+03  0.91382910579E+02 0.  0.
          5    1    3    3  502    0 -0.46821429359E+02 -0.70813840245E+02 -0.88169259008E+02  0.12248573162E+03  0.47000000000E+01 0. -1.
         -5    1    3    3    0  502  0.19533641358E+02  0.14564229442E+02 -0.16361776646E+03  0.16548880152E+03  0.47000000000E+01 0. -1.
        -11    1    4    4    0    0  0.94102760103E+01  0.30233607490E+02  0.23901034994E+02  0.39672204252E+02  0.00000000000E+00 0.  1.
         11    1    4    4    0    0  0.17877511991E+02  0.26016003313E+02 -0.76807575206E+02  0.83041203461E+02  0.00000000000E+00 0. -1.
<mgrwt>
<rscale>  0 0.13185428E+03</rscale>
<asrwt>0</asrwt>
<pdfrwt beam="1">  1        1 0.81534138E-02 0.13975917E+03</pdfrwt>
<pdfrwt beam="2">  1       -1 0.55029344E-01 0.13975917E+03</pdfrwt>
<totfact> 0.28099161E+03</totfact>
</mgrwt>
</event>
<event>
 8    1  0.1646661E-005  0.1253086E+03  0.7546771E-02  0.1250353E+00
         -1   -1    0    0    0  501 -0.00000000000E+00  0.00000000000E+00  0.23313236346E+02  0.23313236346E+02  0.00000000000E+00 0.  1.
          1   -1    0    0  501    0  0.00000000000E+00 -0.00000000000E+00 -0.50231204965E+03  0.50231204965E+03  0.00000000000E+00 0. -1.
         23    2    1    2    0    0  0.71071294197E+00  0.87441381326E+01 -0.28155415159E+03  0.30818012233E+03  0.12500112983E+03 0.  0.
         23    2    1    2    0    0 -0.71071294197E+00 -0.87441381326E+01 -0.19744466171E+03  0.21744516366E+03  0.90669949251E+02 0.  0.
          5    1    3    3  502    0  0.10206714572E+02  0.63874959634E+02 -0.19021438259E+03  0.20096713372E+03  0.47000000000E+01 0.  1.
         -5    1    3    3    0  502 -0.94960016303E+01 -0.55130821502E+02 -0.91339768999E+02  0.10721298861E+03  0.47000000000E+01 0.  1.
        -11    1    4    4    0    0  0.19426920193E+02  0.33951805737E+02 -0.55831055547E+02  0.68170646942E+02  0.00000000000E+00 0.  1.
         11    1    4    4    0    0 -0.20137633135E+02 -0.42695943870E+02 -0.14161360616E+03  0.14927451672E+03  0.00000000000E+00 0. -1.
<mgrwt>
<rscale>  0 0.11570640E+03</rscale>
<asrwt>0</asrwt>
<pdfrwt beam="2">  1        1 0.77278782E-01 0.12530861E+03</pdfrwt>
<pdfrwt beam="1">  1       -1 0.35866515E-02 0.12530861E+03</pdfrwt>
<totfact> 0.12247716E+04</totfact>
</mgrwt>
</event>
<event>
 8    1  0.1646661E-005  0.1290187E+03  0.7546771E-02  0.1246047E+00
          1   -1    0    0  501    0  0.00000000000E+00  0.00000000000E+00  0.15716790638E+03  0.15716790638E+03  0.00000000000E+00 0. -1.
         -1   -1    0    0    0  501 -0.00000000000E+00 -0.00000000000E+00 -0.10736562221E+03  0.10736562221E+03  0.00000000000E+00 0.  1.
         23    2    1    2    0    0 -0.20888639943E+02  0.24181994035E+02 -0.41610304925E+02  0.13556271623E+03  0.12499891376E+03 0.  0.
         23    2    1    2    0    0  0.20888639943E+02 -0.24181994035E+02  0.91412589098E+02  0.12897081235E+03  0.85182773373E+02 0.  0.
          5    1    3    3  502    0  0.50722834804E+02  0.20158623249E+02 -0.30881273008E+02  0.62888147408E+02  0.47000000000E+01 0.  1.
         -5    1    3    3    0  502 -0.71611474747E+02  0.40233707858E+01 -0.10729031917E+02  0.72674568824E+02  0.47000000000E+01 0.  1.
        -11    1    4    4    0    0  0.27958129711E+02  0.15229222627E+02  0.30782180864E+01  0.31985335161E+02  0.00000000000E+00 0.  1.
         11    1    4    4    0    0 -0.70694897679E+01 -0.39411216662E+02  0.88334371012E+02  0.96985477194E+02  0.00000000000E+00 0. -1.
<mgrwt>
<rscale>  0 0.11822928E+03</rscale>
<asrwt>0</asrwt>
<pdfrwt beam="1">  1        1 0.24179678E-01 0.12901873E+03</pdfrwt>
<pdfrwt beam="2">  1       -1 0.16517788E-01 0.12901873E+03</pdfrwt>
<totfact> 0.52303771E+03</totfact>
</mgrwt>
</event>
<event>
 8    1  0.1646661E-005  0.1368429E+03  0.7546771E-02  0.1230481E+00
          1   -1    0    0  501    0  0.00000000000E+00  0.00000000000E+00  0.13383375717E+03  0.13383375717E+03  0.00000000000E+00 0. -1.
         -1   -1    0    0    0  501 -0.00000000000E+00 -0.00000000000E+00 -0.10928722852E+03  0.10928722852E+03  0.00000000000E+00 0.  1.
         23    2    1    2    0    0 -0.55477981258E+02  0.43047803775E+01  0.75122113395E+01  0.13704896966E+03  0.12501859553E+03 0.  0.
         23    2    1    2    0    0  0.55477981258E+02 -0.43047803775E+01  0.17034317307E+02  0.10607201603E+03  0.88683522028E+02 0.  0.
          5    1    3    3  502    0  0.11006549995E+02  0.81357177693E+01  0.53864604224E+02  0.55774722183E+02  0.47000000000E+01 0. -1.
         -5    1    3    3    0  502 -0.66484531252E+02 -0.38309373918E+01 -0.46352392885E+02  0.81274247479E+02  0.47000000000E+01 0. -1.
        -11    1    4    4    0    0  0.13274323592E+02 -0.25437972837E+02 -0.28533636589E+02  0.40465621778E+02  0.00000000000E+00 0.  1.
         11    1    4    4    0    0  0.42203657666E+02  0.21133192460E+02  0.45567953897E+02  0.65606394248E+02  0.00000000000E+00 0. -1.
<mgrwt>
<rscale>  0 0.12798190E+03</rscale>
<asrwt>0</asrwt>
<pdfrwt beam="1">  1        1 0.20589809E-01 0.13684293E+03</pdfrwt>
<pdfrwt beam="2">  1       -1 0.16813420E-01 0.13684293E+03</pdfrwt>
<totfact> 0.62538484E+03</totfact>
</mgrwt>
</event>
<event>
 8    1  0.1646661E-005  0.1440598E+03  0.7546771E-02  0.1218437E+00
          2   -1    0    0  501    0  0.00000000000E+00  0.00000000000E+00  0.31228547916E+03  0.31228547916E+03  0.00000000000E+00 0.  1.
         -2   -1    0    0    0  501 -0.00000000000E+00 -0.00000000000E+00 -0.54678774309E+02  0.54678774309E+02  0.00000000000E+00 0. -1.
         23    2    1    2    0    0 -0.58724893103E+02  0.40990845523E+02  0.12064510395E+03  0.18790547486E+03  0.12499745553E+03 0.  0.
         23    2    1    2    0    0  0.58724893103E+02 -0.40990845523E+02  0.13696160090E+03  0.17905877860E+03  0.90414067423E+02 0.  0.
          5    1    3    3  502    0 -0.37345343143E+01 -0.32138235596E+02 -0.42933927659E+01  0.32974780594E+02  0.47000000000E+01 0.  1.
         -5    1    3    3    0  502 -0.54990358789E+02  0.73129081119E+02  0.12493849672E+03  0.15493069427E+03  0.47000000000E+01 0.  1.
        -11    1    4    4    0    0  0.60234789725E+02  0.21797775923E+01  0.38453984956E+02  0.71496085785E+02  0.00000000000E+00 0. -1.
         11    1    4    4    0    0 -0.15098966216E+01 -0.43170623115E+02  0.98507615942E+02  0.10756269282E+03  0.00000000000E+00 0.  1.
<mgrwt>
<rscale>  0 0.13627090E+03</rscale>
<asrwt>0</asrwt>
<pdfrwt beam="1">  1        2 0.48043919E-01 0.14405980E+03</pdfrwt>
<pdfrwt beam="2">  1       -2 0.84121193E-02 0.14405980E+03</pdfrwt>
<totfact> 0.87131678E+03</totfact>
</mgrwt>
</event>
<event>
 8    1  0.1646661E-005  0.1358439E+03  0.7546771E-02  0.1231047E+00
          1   -1    0    0  501    0  0.00000000000E+00  0.00000000000E+00  0.18875096249E+03  0.18875096249E+03  0.00000000000E+00 0. -1.
         -1   -1    0    0    0  501 -0.00000000000E+00 -0.00000000000E+00 -0.17264257358E+03  0.17264257358E+03  0.00000000000E+00 0.  1.
         23    2    1    2    0    0  0.51898390455E+02 -0.11630033172E+02 -0.12529404450E+03  0.18480300642E+03  0.12499941196E+03 0.  0.
         23    2    1    2    0    0 -0.51898390455E+02  0.11630033172E+02  0.14140243341E+03  0.17659052966E+03  0.91437773312E+02 0.  0.
          5    1    3    3  502    0 -0.23054954906E+01 -0.61170950485E+02 -0.46685010201E+02  0.77128338956E+02  0.47000000000E+01 0.  1.
         -5    1    3    3    0  502  0.54203885945E+02  0.49540917312E+02 -0.78609034297E+02  0.10767466746E+03  0.47000000000E+01 0.  1.
        -11    1    4    4    0    0 -0.67870358271E+02 -0.18691241928E+02  0.10659940664E+03  0.12774655202E+03  0.00000000000E+00 0. -1.
         11    1    4    4    0    0  0.15971967816E+02  0.30321275100E+02  0.34803026773E+02  0.48843977645E+02  0.00000000000E+00 0.  1.
<mgrwt>
<rscale>  0 0.12760911E+03</rscale>
<asrwt>0</asrwt>
<pdfrwt beam="1">  1        1 0.29038610E-01 0.13584386E+03</pdfrwt>
<pdfrwt beam="2">  1       -1 0.26560396E-01 0.13584386E+03</pdfrwt>
<totfact> 0.19387371E+03</totfact>
</mgrwt>
</event>
<event>
 8    1  0.1646661E-005  0.1613592E+03  0.7546771E-02  0.1194419E+00
          2   -1    0    0  501    0  0.00000000000E+00  0.00000000000E+00  0.33584462408E+03  0.33584462408E+03  0.00000000000E+00 0. -1.
         -2   -1    0    0    0  501 -0.00000000000E+00 -0.00000000000E+00 -0.79546480264E+02  0.79546480264E+02  0.00000000000E+00 0.  1.
         23    2    1    2    0    0  0.86921555082E+02  0.53425832524E+02  0.52780571171E+02  0.16977217512E+03  0.12500850545E+03 0.  0.
         23    2    1    2    0    0 -0.86921555082E+02 -0.53425832524E+02  0.20351757265E+03  0.24561892922E+03  0.92193165135E+02 0.  0.
          5    1    3    3  502    0 -0.15736097482E+02 -0.89641192523E+01  0.45654578551E+02  0.49339748080E+02  0.47000000000E+01 0.  1.
         -5    1    3    3    0  502  0.10265765256E+03  0.62389951777E+02  0.71259926205E+01  0.12043242704E+03  0.47000000000E+01 0.  1.
        -11    1    4    4    0    0 -0.11379942689E+02 -0.58494755758E+02  0.11178964102E+03  0.12668095116E+03  0.00000000000E+00 0. -1.
         11    1    4    4    0    0 -0.75541612393E+02  0.50689232340E+01  0.91727931629E+02  0.11893797807E+03  0.00000000000E+00 0.  1.
<mgrwt>
<rscale>  0 0.15503497E+03</rscale>
<asrwt>0</asrwt>
<pdfrwt beam="1">  1        2 0.51668403E-01 0.16135924E+03</pdfrwt>
<pdfrwt beam="2">  1       -2 0.12237920E-01 0.16135924E+03</pdfrwt>
<totfact> 0.44937426E+03</totfact>
</mgrwt>
</event>
<event>
 8    1  0.1646661E-005  0.1449701E+03  0.7546771E-02  0.1210839E+00
         -2   -1    0    0    0  501 -0.00000000000E+00  0.00000000000E+00  0.98085693709E+02  0.98085693709E+02  0.00000000000E+00 0.  1.
          2   -1    0    0  501    0  0.00000000000E+00 -0.00000000000E+00 -0.23633912821E+03  0.23633912821E+03  0.00000000000E+00 0. -1.
         23    2    1    2    0    0 -0.73250907426E+02 -0.53466176530E+01 -0.33343417957E+01  0.14500840746E+03  0.12498815400E+03 0.  0.
         23    2    1    2    0    0  0.73250907426E+02  0.53466176530E+01 -0.13491909271E+03  0.18941641446E+03  0.11082028122E+03 0.  0.
          5    1    3    3  502    0 -0.79599678373E+02 -0.10086851546E+02 -0.51836075121E+02  0.95639542320E+02  0.47000000000E+01 0. -1.
         -5    1    3    3    0  502  0.63487709469E+01  0.47402338933E+01  0.48501733326E+02  0.49368865143E+02  0.47000000000E+01 0. -1.
        -11    1    4    4    0    0 -0.25119556884E+02 -0.17663461362E+02 -0.21264136726E+02  0.37351753855E+02  0.00000000000E+00 0.  1.
         11    1    4    4    0    0  0.98370464310E+02  0.23010079015E+02 -0.11365495598E+03  0.15206466060E+03  0.00000000000E+00 0. -1.
<mgrwt>
<rscale>  0 0.14186654E+03</rscale>
<asrwt>0</asrwt>
<pdfrwt beam="2">  1        2 0.36359866E-01 0.14497007E+03</pdfrwt>
<pdfrwt beam="1">  1       -2 0.15090107E-01 0.14497007E+03</pdfrwt>
<totfact> 0.46261691E+03</totfact>
</mgrwt>
</event>
<event>
 8    1  0.1646661E-005  0.1369102E+03  0.7546771E-02  0.1230978E+00
          2   -1    0    0  501    0  0.00000000000E+00  0.00000000000E+00  0.70147973564E+03  0.70147973564E+03  0.00000000000E+00 0. -1.
         -2   -1    0    0    0  501 -0.00000000000E+00 -0.00000000000E+00 -0.20607956213E+02  0.20607956213E+02  0.00000000000E+00 0.  1.
         23    2    1    2    0    0  0.27201537363E+02 -0.48774622548E+02  0.37848606589E+03  0.40248739724E+03  0.12500206167E+03 0.  0.
         23    2    1    2    0    0 -0.27201537363E+02  0.48774622548E+02  0.30238571353E+03  0.31960029461E+03  0.87111084993E+02 0.  0.
          5    1    3    3  502    0  0.23859792598E+02  0.38983394328E+02  0.17245152025E+03  0.17846739638E+03  0.47000000000E+01 0. -1.
         -5    1    3    3    0  502  0.33417447646E+01 -0.87758016875E+02  0.20603454565E+03  0.22402000086E+03  0.47000000000E+01 0. -1.
        -11    1    4    4    0    0  0.12978931642E+02 -0.50889341058E+01  0.51480645691E+01  0.14861106477E+02  0.00000000000E+00 0.  1.
         11    1    4    4    0    0 -0.40180469005E+02  0.53863556654E+02  0.29723764896E+03  0.30473918813E+03  0.00000000000E+00 0. -1.
<mgrwt>
<rscale>  0 0.12765461E+03</rscale>
<asrwt>0</asrwt>
<pdfrwt beam="1">  1        2 0.10791994E+00 0.13691020E+03</pdfrwt>
<pdfrwt beam="2">  1       -2 0.31704553E-02 0.13691020E+03</pdfrwt>
<totfact> 0.15512451E+04</totfact>
</mgrwt>
</event>
<event>
 8    1  0.1646661E-005  0.1482240E+03  0.7546771E-02  0.1212207E+00
          2   -1    0    0  501    0  0.00000000000E+00  0.00000000000E+00  0.22981128472E+02  0.22981128472E+02  0.00000000000E+00 0. -1.
         -2   -1    0    0    0  501 -0.00000000000E+00 -0.00000000000E+00 -0.10721786825E+04  0.10721786825E+04  0.00000000000E+00 0.  1.
         23    2    1    2    0    0 -0.75688510990E+02  0.24849485256E+02 -0.84498444934E+03  0.85788639077E+03  0.12499636888E+03 0.  0.
         23    2    1    2    0    0  0.75688510990E+02 -0.24849485256E+02 -0.20421310466E+03  0.23727342017E+03  0.90826406905E+02 0.  0.
          5    1    3    3  502    0 -0.69349643222E+02 -0.17811833877E+02 -0.75044128668E+03  0.75386394608E+03  0.47000000000E+01 0.  1.
         -5    1    3    3    0  502 -0.63388677676E+01  0.42661319133E+02 -0.94543162657E+02  0.10402244469E+03  0.47000000000E+01 0.  1.
        -11    1    4    4    0    0  0.36891403937E+02 -0.19223526421E+02 -0.19164088310E+03  0.19610392074E+03  0.00000000000E+00 0.  1.
         11    1    4    4    0    0  0.38797107053E+02 -0.56259588345E+01 -0.12572221554E+02  0.41169499430E+02  0.00000000000E+00 0. -1.
<mgrwt>
<rscale>  0 0.14083703E+03</rscale>
<asrwt>0</asrwt>
<pdfrwt beam="1">  1        2 0.35355582E-02 0.14822395E+03</pdfrwt>
<pdfrwt beam="2">  1       -2 0.16495057E+00 0.14822395E+03</pdfrwt>
<totfact> 0.60560952E+02</totfact>
</mgrwt>
</event>
<event>
 8    1  0.1646661E-005  0.1261669E+03  0.7546771E-02  0.1246787E+00
         -2   -1    0    0    0  501 -0.00000000000E+00  0.00000000000E+00  0.47031703314E+03  0.47031703314E+03  0.00000000000E+00 0.  1.
          2   -1    0    0  501    0  0.00000000000E+00 -0.00000000000E+00 -0.27930988397E+02  0.27930988397E+02  0.00000000000E+00 0. -1.
         23    2    1    2    0    0  0.11847031883E+02  0.12354916621E+02  0.31096469918E+03  0.33558474913E+03  0.12500033435E+03 0.  0.
         23    2    1    2    0    0 -0.11847031883E+02 -0.12354916621E+02  0.13142134557E+03  0.16266327241E+03  0.94312109453E+02 0.  0.
          5    1    3    3  502    0 -0.23845560085E+02  0.15703796554E+02  0.29439321541E+03  0.29581189165E+03  0.47000000000E+01 0.  1.
         -5    1    3    3    0  502  0.35692591968E+02 -0.33488799332E+01  0.16571483768E+02  0.39772857484E+02  0.47000000000E+01 0.  1.
        -11    1    4    4    0    0  0.34477840717E+02 -0.94250550093E+01  0.17807605242E+02  0.39933243882E+02  0.00000000000E+00 0. -1.
         11    1    4    4    0    0 -0.46324872600E+02 -0.29298616113E+01  0.11361374033E+03  0.12273002852E+03  0.00000000000E+00 0.  1.
<mgrwt>
<rscale>  0 0.11779050E+03</rscale>
<asrwt>0</asrwt>
<pdfrwt beam="2">  1        2 0.42970755E-02 0.12616687E+03</pdfrwt>
<pdfrwt beam="1">  1       -2 0.72356461E-01 0.12616687E+03</pdfrwt>
<totfact> 0.32422762E+03</totfact>
</mgrwt>
</event>
<event>
 8    1  0.1646661E-005  0.1384375E+03  0.7546771E-02  0.1226723E+00
          1   -1    0    0  501    0  0.00000000000E+00  0.00000000000E+00  0.12962757202E+03  0.12962757202E+03  0.00000000000E+00 0. -1.
         -1   -1    0    0    0  501 -0.00000000000E+00 -0.00000000000E+00 -0.14129799742E+03  0.14129799742E+03  0.00000000000E+00 0.  1.
         23    2    1    2    0    0 -0.66378230302E+01 -0.59117467994E+02 -0.60666757094E+02  0.15114689431E+03  0.12500397005E+03 0.  0.
         23    2    1    2    0    0  0.66378230302E+01  0.59117467994E+02  0.48996331698E+02  0.11977867512E+03  0.91691628722E+02 0.  0.
          5    1    3    3  502    0 -0.28218618392E+02 -0.35733796456E+02 -0.94168039701E+02  0.10470388882E+03  0.47000000000E+01 0.  1.
         -5    1    3    3    0  502  0.21580795362E+02 -0.23383671538E+02  0.33501282606E+02  0.46443005494E+02  0.47000000000E+01 0.  1.
        -11    1    4    4    0    0  0.31221906425E+02  0.73025404915E+02  0.44912393364E+02  0.91239466688E+02  0.00000000000E+00 0. -1.
         11    1    4    4    0    0 -0.24584083395E+02 -0.13907936921E+02  0.40839383342E+01  0.28539208435E+02  0.00000000000E+00 0.  1.
<mgrwt>
<rscale>  0 0.13049514E+03</rscale>
<asrwt>0</asrwt>
<pdfrwt beam="1">  1        1 0.19942703E-01 0.13843745E+03</pdfrwt>
<pdfrwt beam="2">  1       -1 0.21738153E-01 0.13843745E+03</pdfrwt>
<totfact> 0.43211824E+03</totfact>
</mgrwt>
</event>
<event>
 8    1  0.1646661E-005  0.1279912E+03  0.7546771E-02  0.1245233E+00
          1   -1    0    0  501    0  0.00000000000E+00  0.00000000000E+00  0.63646714822E+02  0.63646714822E+02  0.00000000000E+00 0. -1.
         -1   -1    0    0    0  501 -0.00000000000E+00 -0.00000000000E+00 -0.19604684361E+03  0.19604684361E+03  0.00000000000E+00 0.  1.
         23    2    1    2    0    0  0.27457889674E+02 -0.17171049675E+01 -0.86101577284E+02  0.15425706340E+03  0.12499950337E+03 0.  0.
         23    2    1    2    0    0 -0.27457889674E+02  0.17171049675E+01 -0.46298551508E+02  0.10543649504E+03  0.90644439760E+02 0.  0.
          5    1    3    3  502    0  0.51017312848E+02  0.49580328707E+02 -0.50149278045E+02  0.87166595054E+02  0.47000000000E+01 0. -1.
         -5    1    3    3    0  502 -0.23559423174E+02 -0.51297433675E+02 -0.35952299238E+02  0.67090468342E+02  0.47000000000E+01 0. -1.
        -11    1    4    4    0    0 -0.23334598350E+02  0.19377567562E+02 -0.69592583780E+02  0.75915224573E+02  0.00000000000E+00 0.  1.
         11    1    4    4    0    0 -0.41232913233E+01 -0.17660462594E+02  0.23294032272E+02  0.29521270465E+02  0.00000000000E+00 0. -1.
<mgrwt>
<rscale>  0 0.11871462E+03</rscale>
<asrwt>0</asrwt>
<pdfrwt beam="1">  1        1 0.97918024E-02 0.12799125E+03</pdfrwt>
<pdfrwt beam="2">  1       -1 0.30161053E-01 0.12799125E+03</pdfrwt>
<totfact> 0.63153460E+03</totfact>
</mgrwt>
</event>
<event>
 8    1  0.1646661E-005  0.2417899E+03  0.7546771E-02  0.1121278E+00
          2   -1    0    0  501    0  0.00000000000E+00  0.00000000000E+00  0.86268514523E+03  0.86268514523E+03  0.00000000000E+00 0. -1.
         -2   -1    0    0    0  501 -0.00000000000E+00 -0.00000000000E+00 -0.66717477144E+02  0.66717477144E+02  0.00000000000E+00 0.  1.
         23    2    1    2    0    0  0.19462484427E+03 -0.70430239792E+02  0.30797406479E+03  0.39154869092E+03  0.12499241615E+03 0.  0.
         23    2    1    2    0    0 -0.19462484427E+03  0.70430239792E+02  0.48799360330E+03  0.53785393146E+03  0.91158356947E+02 0.  0.
          5    1    3    3  502    0  0.25586981733E+01  0.88146158993E+00  0.97981057210E+02  0.98131042402E+02  0.47000000000E+01 0. -1.
         -5    1    3    3    0  502  0.19206614609E+03 -0.71311701382E+02  0.20999300758E+03  0.29341764852E+03  0.47000000000E+01 0. -1.
        -11    1    4    4    0    0 -0.15012605157E+03  0.44199403350E+02  0.25491812575E+03  0.29912316770E+03  0.00000000000E+00 0.  1.
         11    1    4    4    0    0 -0.44498792697E+02  0.26230836441E+02  0.23307547755E+03  0.23873076376E+03  0.00000000000E+00 0. -1.
<mgrwt>
<rscale>  0 0.23778440E+03</rscale>
<asrwt>0</asrwt>
<pdfrwt beam="1">  1        2 0.13272078E+00 0.24178989E+03</pdfrwt>
<pdfrwt beam="2">  1       -2 0.10264228E-01 0.24178989E+03</pdfrwt>
<totfact> 0.20417032E+03</totfact>
</mgrwt>
</event>
<event>
 8    1  0.1646661E-005  0.1886324E+03  0.7546771E-02  0.1164644E+00
         -2   -1    0    0    0  501 -0.00000000000E+00  0.00000000000E+00  0.91028184108E+02  0.91028184108E+02  0.00000000000E+00 0.  1.
          2   -1    0    0  501    0  0.00000000000E+00 -0.00000000000E+00 -0.34972888907E+03  0.34972888907E+03  0.00000000000E+00 0. -1.
         23    2    1    2    0    0  0.39834975749E+02 -0.13553142974E+03 -0.13880742734E+03  0.23420008776E+03  0.12500634178E+03 0.  0.
         23    2    1    2    0    0 -0.39834975749E+02  0.13553142974E+03 -0.11989327762E+03  0.20655698541E+03  0.91300583048E+02 0.  0.
          5    1    3    3  502    0 -0.15490712332E+02 -0.85166705220E+02 -0.13333066972E+03  0.15903611959E+03  0.47000000000E+01 0. -1.
         -5    1    3    3    0  502  0.55325688081E+02 -0.50364724516E+02 -0.54767576181E+01  0.75163968171E+02  0.47000000000E+01 0. -1.
        -11    1    4    4    0    0 -0.47138309079E+02  0.24857750006E+02 -0.60919256367E+02  0.80938765215E+02  0.00000000000E+00 0.  1.
         11    1    4    4    0    0  0.73033333307E+01  0.11067367973E+03 -0.58974021252E+02  0.12561822020E+03  0.00000000000E+00 0. -1.
<mgrwt>
<rscale>  0 0.18330275E+03</rscale>
<asrwt>0</asrwt>
<pdfrwt beam="2">  1        2 0.53804446E-01 0.18863239E+03</pdfrwt>
<pdfrwt beam="1">  1       -2 0.14004336E-01 0.18863239E+03</pdfrwt>
<totfact> 0.34832267E+03</totfact>
</mgrwt>
</event>
<event>
 8    1  0.1646661E-005  0.1388337E+03  0.7546771E-02  0.1231538E+00
          2   -1    0    0  501    0  0.00000000000E+00  0.00000000000E+00  0.34451099609E+02  0.34451099609E+02  0.00000000000E+00 0. -1.
         -2   -1    0    0    0  501 -0.00000000000E+00 -0.00000000000E+00 -0.42667716347E+03  0.42667716347E+03  0.00000000000E+00 0.  1.
         23    2    1    2    0    0 -0.19283045029E+02 -0.57251055972E+02 -0.17993720992E+03  0.22727119377E+03  0.12500110708E+03 0.  0.
         23    2    1    2    0    0  0.19283045029E+02  0.57251055972E+02 -0.21228885395E+03  0.23385706931E+03  0.77285523348E+02 0.  0.
          5    1    3    3  502    0  0.46498835404E+02 -0.57390986657E+01 -0.30816170462E+02  0.56274375246E+02  0.47000000000E+01 0.  1.
         -5    1    3    3    0  502 -0.65781880432E+02 -0.51511957306E+02 -0.14912103946E+03  0.17099681853E+03  0.47000000000E+01 0.  1.
        -11    1    4    4    0    0 -0.16483273163E+02 -0.71862410120E+01 -0.84029168068E+02  0.85931609086E+02  0.00000000000E+00 0.  1.
         11    1    4    4    0    0  0.35766318191E+02  0.64437296984E+02 -0.12825968588E+03  0.14792546022E+03  0.00000000000E+00 0. -1.
<mgrwt>
<rscale>  0 0.12728656E+03</rscale>
<asrwt>0</asrwt>
<pdfrwt beam="1">  1        2 0.53001694E-02 0.13883370E+03</pdfrwt>
<pdfrwt beam="2">  1       -2 0.65642638E-01 0.13883370E+03</pdfrwt>
<totfact> 0.30482700E+03</totfact>
</mgrwt>
</event>
<event>
 8    1  0.1646661E-005  0.1134765E+03  0.7546771E-02  0.1259622E+00
          2   -1    0    0  501    0  0.00000000000E+00  0.00000000000E+00  0.33029422041E+03  0.33029422041E+03  0.00000000000E+00 0. -1.
         -2   -1    0    0    0  501 -0.00000000000E+00 -0.00000000000E+00 -0.37770991116E+02  0.37770991116E+02  0.00000000000E+00 0.  1.
         23    2    1    2    0    0  0.16293038526E+02  0.13978358162E+02  0.10522556062E+03  0.15475569590E+03  0.11142732701E+03 0.  0.
         23    2    1    2    0    0 -0.16293038526E+02 -0.13978358162E+02  0.18729766867E+03  0.21330951562E+03  0.99798172138E+02 0.  0.
          5    1    3    3  502    0 -0.19350357606E+02 -0.12960509798E+02  0.10718635716E+03  0.10978805178E+03  0.47000000000E+01 0. -1.
         -5    1    3    3    0  502  0.35643396132E+02  0.26938867960E+02 -0.19607965367E+01  0.44967644122E+02  0.47000000000E+01 0.  1.
        -11    1    4    4    0    0 -0.35930520753E+02 -0.49460309953E+02  0.10329029799E+03  0.12002587321E+03  0.00000000000E+00 0.  1.
         11    1    4    4    0    0  0.19637482227E+02  0.35481951791E+02  0.84007370684E+02  0.93283642405E+02  0.00000000000E+00 0. -1.
<mgrwt>
<rscale>  0 0.11051356E+03</rscale>
<asrwt>0</asrwt>
<pdfrwt beam="1">  1        2 0.50814494E-01 0.11347646E+03</pdfrwt>
<pdfrwt beam="2">  1       -2 0.58109219E-02 0.11347646E+03</pdfrwt>
<totfact> 0.14186919E+04</totfact>
</mgrwt>
</event>
<event>
 8    1  0.1646661E-005  0.1873251E+03  0.7546771E-02  0.1166118E+00
         -2   -1    0    0    0  501 -0.00000000000E+00  0.00000000000E+00  0.19278176444E+03  0.19278176444E+03  0.00000000000E+00 0.  1.
          2   -1    0    0  501    0  0.00000000000E+00 -0.00000000000E+00 -0.45378819216E+03  0.45378819216E+03  0.00000000000E+00 0. -1.
         23    2    1    2    0    0 -0.95816026007E+02 -0.10141346028E+03  0.12579886303E+03  0.22564582485E+03  0.12500113427E+03 0.  0.
         23    2    1    2    0    0  0.95816026007E+02  0.10141346028E+03 -0.38680529076E+03  0.42092413175E+03  0.89963275661E+02 0.  0.
          5    1    3    3  502    0  0.27116530621E+02 -0.22913331344E+02  0.49134905620E+01  0.36146360477E+02  0.47000000000E+01 0. -1.
         -5    1    3    3    0  502 -0.12293255663E+03 -0.78500128934E+02  0.12088537247E+03  0.18949946438E+03  0.47000000000E+01 0. -1.
        -11    1    4    4    0    0 -0.36313457293E+01  0.47015166048E+02 -0.69567085545E+02  0.84042798035E+02  0.00000000000E+00 0. -1.
         11    1    4    4    0    0  0.99447371736E+02  0.54398294230E+02 -0.31723820521E+03  0.33688133372E+03  0.00000000000E+00 0.  1.
<mgrwt>
<rscale>  0 0.18175211E+03</rscale>
<asrwt>0</asrwt>
<pdfrwt beam="2">  1        2 0.69813568E-01 0.18732508E+03</pdfrwt>
<pdfrwt beam="1">  1       -2 0.29658733E-01 0.18732508E+03</pdfrwt>
<totfact> 0.72682162E+02</totfact>
</mgrwt>
</event>
<event>
 8    1  0.5970135E-005  0.1898037E+03  0.7546771E-02  0.1163759E+00
          1   -1    0    0  501    0  0.00000000000E+00  0.00000000000E+00  0.11109116727E+04  0.11109116727E+04  0.00000000000E+00 0. -1.
         -1   -1    0    0    0  501 -0.00000000000E+00 -0.00000000000E+00 -0.30225661721E+02  0.30225661721E+02  0.00000000000E+00 0.  1.
         23    2    1    2    0    0 -0.60136902833E+01 -0.14270449349E+03  0.45147135974E+03  0.48974670723E+03  0.12499884655E+03 0.  0.
         23    2    1    2    0    0  0.60136902833E+01  0.14270449349E+03  0.62921465120E+03  0.65139062715E+03  0.89431174252E+02 0.  0.
          5    1    3    3  502    0 -0.24723642799E+01 -0.16578142159E+03  0.40038754968E+03  0.43338420860E+03  0.47000000000E+01 0.  1.
         -5    1    3    3    0  502 -0.35413260034E+01  0.23076928100E+02  0.51083810062E+02  0.56362498621E+02  0.47000000000E+01 0.  1.
        -11    1    4    4    0    0 -0.39202965402E+02  0.91831986562E+02  0.34662834614E+03  0.36072315783E+03  0.00000000000E+00 0. -1.
         11    1    4    4    0    0  0.45216655685E+02  0.50872506930E+02  0.28258630506E+03  0.29066746932E+03  0.00000000000E+00 0.  1.
<mgrwt>
<rscale>  0 0.18424291E+03</rscale>
<asrwt>0</asrwt>
<pdfrwt beam="1">  1        1 0.17090946E+00 0.18980371E+03</pdfrwt>
<pdfrwt beam="2">  1       -1 0.46501027E-02 0.18980371E+03</pdfrwt>
<totfact> 0.25878244E+03</totfact>
</mgrwt>
</event>
<event>
 8    1  0.1646661E-005  0.2531836E+03  0.7546771E-02  0.1113681E+00
         -2   -1    0    0    0  501 -0.00000000000E+00  0.00000000000E+00  0.16567352711E+03  0.16567352711E+03  0.00000000000E+00 0.  1.
          2   -1    0    0  501    0  0.00000000000E+00 -0.00000000000E+00 -0.40087169945E+03  0.40087169945E+03  0.00000000000E+00 0. -1.
         23    2    1    2    0    0  0.12434065861E+03  0.18170316380E+03 -0.35718086280E+02  0.25569067169E+03  0.12500119513E+03 0.  0.
         23    2    1    2    0    0 -0.12434065861E+03 -0.18170316380E+03 -0.19948008606E+03  0.31085455486E+03  0.91441841764E+02 0.  0.
          5    1    3    3  502    0  0.94235638450E+02  0.19665118413E+03 -0.22514387064E+02  0.21927387305E+03  0.47000000000E+01 0. -1.
         -5    1    3    3    0  502  0.30105020157E+02 -0.14948020333E+02 -0.13203699216E+02  0.36416798645E+02  0.47000000000E+01 0. -1.
        -11    1    4    4    0    0 -0.75174765175E+02 -0.79008895606E+02 -0.42758443008E+02  0.11714066481E+03  0.00000000000E+00 0. -1.
         11    1    4    4    0    0 -0.49165893433E+02 -0.10269426820E+03 -0.15672164306E+03  0.19371389005E+03  0.00000000000E+00 0.  1.
<mgrwt>
<rscale>  0 0.24940593E+03</rscale>
<asrwt>0</asrwt>
<pdfrwt beam="2">  1        2 0.61672568E-01 0.25318361E+03</pdfrwt>
<pdfrwt beam="1">  1       -2 0.25488235E-01 0.25318361E+03</pdfrwt>
<totfact> 0.10940868E+03</totfact>
</mgrwt>
</event>
<event>
 8    1  0.1646661E-005  0.1542454E+03  0.7546771E-02  0.1205724E+00
         -1   -1    0    0    0  501 -0.00000000000E+00  0.00000000000E+00  0.33369823590E+02  0.33369823590E+02  0.00000000000E+00 0.  1.
          1   -1    0    0  501    0  0.00000000000E+00 -0.00000000000E+00 -0.58601203212E+03  0.58601203212E+03  0.00000000000E+00 0. -1.
         23    2    1    2    0    0  0.76084679473E+02 -0.48755870134E+02 -0.26759177728E+03  0.30886403344E+03  0.12500247421E+03 0.  0.
         23    2    1    2    0    0 -0.76084679473E+02  0.48755870134E+02 -0.28505043124E+03  0.31051782227E+03  0.83675302644E+02 0.  0.
          5    1    3    3  502    0 -0.21839783897E+02 -0.30856979691E+02 -0.22398476310E+02  0.44191753726E+02  0.47000000000E+01 0. -1.
         -5    1    3    3    0  502  0.97924463370E+02 -0.17898890443E+02 -0.24519330097E+03  0.26467227971E+03  0.47000000000E+01 0. -1.
        -11    1    4    4    0    0 -0.34595187203E+02  0.68819240428E+02 -0.18239283122E+03  0.19799004953E+03  0.00000000000E+00 0.  1.
         11    1    4    4    0    0 -0.41489492269E+02 -0.20063370294E+02 -0.10265760002E+03  0.11252777275E+03  0.00000000000E+00 0. -1.
<mgrwt>
<rscale>  0 0.14580539E+03</rscale>
<asrwt>0</asrwt>
<pdfrwt beam="2">  1        1 0.90155699E-01 0.15424536E+03</pdfrwt>
<pdfrwt beam="1">  1       -1 0.51338189E-02 0.15424536E+03</pdfrwt>
<totfact> 0.59643182E+03</totfact>
</mgrwt>
</event>
<event>
 8    1  0.1646661E-005  0.1368445E+03  0.7546771E-02  0.1229730E+00
          1   -1    0    0  501    0  0.00000000000E+00  0.00000000000E+00  0.18229479213E+03  0.18229479213E+03  0.00000000000E+00 0. -1.
         -1   -1    0    0    0  501 -0.00000000000E+00 -0.00000000000E+00 -0.81776674762E+02  0.81776674762E+02  0.00000000000E+00 0.  1.
         23    2    1    2    0    0  0.22494938792E+02  0.51041953109E+02  0.44552917725E+02  0.14391451134E+03  0.12496047714E+03 0.  0.
         23    2    1    2    0    0 -0.22494938792E+02 -0.51041953109E+02  0.55965199644E+02  0.12015695556E+03  0.90522301942E+02 0.  0.
          5    1    3    3  502    0 -0.26190686477E+02 -0.15660197307E+02 -0.21866240480E+02  0.37834062835E+02  0.47000000000E+01 0. -1.
         -5    1    3    3    0  502  0.48685625269E+02  0.66702150415E+02  0.66419158205E+02  0.10608044850E+03  0.47000000000E+01 0. -1.
        -11    1    4    4    0    0  0.11589918017E+02  0.16265248571E+02  0.37496416464E+02  0.42483711683E+02  0.00000000000E+00 0. -1.
         11    1    4    4    0    0 -0.34084856809E+02 -0.67307201679E+02  0.18468783180E+02  0.77673243873E+02  0.00000000000E+00 0.  1.
<mgrwt>
<rscale>  0 0.12847902E+03</rscale>
<asrwt>0</asrwt>
<pdfrwt beam="1">  1        1 0.28045353E-01 0.13684453E+03</pdfrwt>
<pdfrwt beam="2">  1       -1 0.12581027E-01 0.13684453E+03</pdfrwt>
<totfact> 0.66721553E+03</totfact>
</mgrwt>
</event>
<event>
 8    1  0.1646661E-005  0.1984954E+03  0.7546771E-02  0.1156706E+00
          4   -1    0    0  501    0  0.00000000000E+00  0.00000000000E+00  0.61657988241E+02  0.61657988241E+02  0.00000000000E+00 0. -1.
         -4   -1    0    0    0  501 -0.00000000000E+00 -0.00000000000E+00 -0.58765810490E+03  0.58765810490E+03  0.00000000000E+00 0.  1.
         23    2    1    2    0    0 -0.13777977577E+03 -0.69239738916E+02 -0.34824826309E+03  0.40084569803E+03  0.12499205105E+03 0.  0.
         23    2    1    2    0    0  0.13777977577E+03  0.69239738916E+02 -0.17775185357E+03  0.24847039512E+03  0.79777238265E+02 0.  0.
          5    1    3    3  502    0  0.13044604891E+02  0.10965046352E+02 -0.86245833794E+02  0.88038785799E+02  0.47000000000E+01 0. -1.
         -5    1    3    3    0  502 -0.15082438066E+03 -0.80204785268E+02 -0.26200242929E+03  0.31280691223E+03  0.47000000000E+01 0. -1.
        -11    1    4    4    0    0  0.93865950667E+02  0.52677280196E+02 -0.16954288065E+03  0.20082455259E+03  0.00000000000E+00 0.  1.
         11    1    4    4    0    0  0.43913825098E+02  0.16562458720E+02 -0.82089729228E+01  0.47645842527E+02  0.00000000000E+00 0. -1.
<mgrwt>
<rscale>  0 0.19195923E+03</rscale>
<asrwt>0</asrwt>
<pdfrwt beam="1">  1        4 0.94858447E-02 0.19849539E+03</pdfrwt>
<pdfrwt beam="2">  1       -4 0.90408936E-01 0.19849539E+03</pdfrwt>
<totfact> 0.15900764E+02</totfact>
</mgrwt>
</event>
<event>
 8    1  0.1646661E-005  0.1283021E+03  0.7546771E-02  0.1242485E+00
         -1   -1    0    0    0  501 -0.00000000000E+00  0.00000000000E+00  0.16424338299E+03  0.16424338299E+03  0.00000000000E+00 0.  1.
          1   -1    0    0  501    0  0.00000000000E+00 -0.00000000000E+00 -0.82710439144E+02  0.82710439144E+02  0.00000000000E+00 0. -1.
         23    2    1    2    0    0  0.27160074637E+02  0.10225040032E+02  0.71926390226E+02  0.14708782487E+03  0.12497680391E+03 0.  0.
         23    2    1    2    0    0 -0.27160074637E+02 -0.10225040032E+02  0.96065536208E+01  0.99865997267E+02  0.95072132825E+02 0.  0.
          5    1    3    3  502    0 -0.45176942401E+02 -0.19275718120E+02  0.20437760557E+02  0.53406942342E+02  0.47000000000E+01 0. -1.
         -5    1    3    3    0  502  0.72337017038E+02  0.29500758152E+02  0.51488629670E+02  0.93680882526E+02  0.47000000000E+01 0. -1.
        -11    1    4    4    0    0 -0.47608983850E+02  0.24998360784E+02 -0.99490328709E+01  0.54685616392E+02  0.00000000000E+00 0. -1.
         11    1    4    4    0    0  0.20448909213E+02 -0.35223400816E+02  0.19555586492E+02  0.45180380876E+02  0.00000000000E+00 0.  1.
<mgrwt>
<rscale>  0 0.12037187E+03</rscale>
<asrwt>0</asrwt>
<pdfrwt beam="2">  1        1 0.12724683E-01 0.12830208E+03</pdfrwt>
<pdfrwt beam="1">  1       -1 0.25268213E-01 0.12830208E+03</pdfrwt>
<totfact> 0.60035057E+03</totfact>
</mgrwt>
</event>
<event>
 8    1  0.1646661E-005  0.1469465E+03  0.7546771E-02  0.1215391E+00
          1   -1    0    0  501    0  0.00000000000E+00  0.00000000000E+00  0.43154630783E+03  0.43154630783E+03  0.00000000000E+00 0. -1.
         -1   -1    0    0    0  501 -0.00000000000E+00 -0.00000000000E+00 -0.52612931497E+02  0.52612931497E+02  0.00000000000E+00 0.  1.
         23    2    1    2    0    0  0.38767172810E+02  0.66846678300E+02  0.88697487567E+02  0.17164066405E+03  0.12498760406E+03 0.  0.
         23    2    1    2    0    0 -0.38767172810E+02 -0.66846678300E+02  0.29023588877E+03  0.31251857528E+03  0.86369072461E+02 0.  0.
          5    1    3    3  502    0  0.10161105638E+02 -0.32656299775E+02 -0.10568406343E+01  0.34538223679E+02  0.47000000000E+01 0. -1.
         -5    1    3    3    0  502  0.28606067171E+02  0.99502978075E+02  0.89754328201E+02  0.13710244037E+03  0.47000000000E+01 0. -1.
        -11    1    4    4    0    0 -0.37527826866E+02  0.94578001673E+01  0.80233794273E+02  0.89080017494E+02  0.00000000000E+00 0.  1.
         11    1    4    4    0    0 -0.12393459436E+01 -0.76304478467E+02  0.21000209449E+03  0.22343855778E+03  0.00000000000E+00 0. -1.
<mgrwt>
<rscale>  0 0.13847868E+03</rscale>
<asrwt>0</asrwt>
<pdfrwt beam="1">  1        1 0.66391737E-01 0.14694650E+03</pdfrwt>
<pdfrwt beam="2">  1       -1 0.80942974E-02 0.14694650E+03</pdfrwt>
<totfact> 0.44942224E+03</totfact>
</mgrwt>
</event>
<event>
 8    1  0.1646661E-005  0.1308666E+03  0.7546771E-02  0.1238944E+00
         -3   -1    0    0    0  501 -0.00000000000E+00  0.00000000000E+00  0.76697467952E+02  0.76697467952E+02  0.00000000000E+00 0.  1.
          3   -1    0    0  501    0  0.00000000000E+00 -0.00000000000E+00 -0.17740762091E+03  0.17740762091E+03  0.00000000000E+00 0. -1.
         23    2    1    2    0    0  0.11703659252E+01  0.38725611000E+02 -0.41295327088E+02  0.13722740072E+03  0.12500005106E+03 0.  0.
         23    2    1    2    0    0 -0.11703659252E+01 -0.38725611000E+02 -0.59414825872E+02  0.11687768814E+03  0.92893647510E+02 0.  0.
          5    1    3    3  502    0  0.33799107948E+02  0.33089147999E+02  0.31564475997E+02  0.57058545007E+02  0.47000000000E+01 0. -1.
         -5    1    3    3    0  502 -0.32628742023E+02  0.56364630017E+01 -0.72859803085E+02  0.80168855715E+02  0.47000000000E+01 0. -1.
        -11    1    4    4    0    0 -0.14921484255E+02 -0.27275130536E+02  0.19007354586E+02  0.36439854095E+02  0.00000000000E+00 0.  1.
         11    1    4    4    0    0  0.13751118330E+02 -0.11450480465E+02 -0.78422180458E+02  0.80437834045E+02  0.00000000000E+00 0. -1.
<mgrwt>
<rscale>  0 0.12255306E+03</rscale>
<asrwt>0</asrwt>
<pdfrwt beam="2">  1        3 0.27293480E-01 0.13086656E+03</pdfrwt>
<pdfrwt beam="1">  1       -3 0.11799611E-01 0.13086656E+03</pdfrwt>
<totfact> 0.16321423E+03</totfact>
</mgrwt>
</event>
<event>
 8    1  0.1646661E-005  0.1401952E+03  0.7546771E-02  0.1224174E+00
         -2   -1    0    0    0  501 -0.00000000000E+00  0.00000000000E+00  0.27975084726E+03  0.27975084726E+03  0.00000000000E+00 0.  1.
          2   -1    0    0  501    0  0.00000000000E+00 -0.00000000000E+00 -0.61603028094E+02  0.61603028094E+02  0.00000000000E+00 0. -1.
         23    2    1    2    0    0  0.42808971924E+02 -0.46872967150E+02  0.17009956144E+03  0.22042813705E+03  0.12500007870E+03 0.  0.
         23    2    1    2    0    0 -0.42808971924E+02  0.46872967150E+02  0.48048257731E+02  0.12092573831E+03  0.91020415224E+02 0.  0.
          5    1    3    3  502    0  0.84324095609E+02 -0.15951646970E+02  0.12448406090E+03  0.15127253405E+03  0.47000000000E+01 0.  1.
         -5    1    3    3    0  502 -0.41515123686E+02 -0.30921320180E+02  0.45615500540E+02  0.69155602997E+02  0.47000000000E+01 0. -1.
        -11    1    4    4    0    0 -0.50935488385E+01  0.15900507090E+02  0.66641092192E+02  0.68700840854E+02  0.00000000000E+00 0.  1.
         11    1    4    4    0    0 -0.37715423085E+02  0.30972460061E+02 -0.18592834461E+02  0.52224897453E+02  0.00000000000E+00 0. -1.
<mgrwt>
<rscale>  0 0.13223657E+03</rscale>
<asrwt>0</asrwt>
<pdfrwt beam="2">  1        2 0.94773890E-02 0.14019523E+03</pdfrwt>
<pdfrwt beam="1">  1       -2 0.43038591E-01 0.14019523E+03</pdfrwt>
<totfact> 0.33995351E+03</totfact>
</mgrwt>
</event>
<event>
 8    1  0.1646661E-005  0.1284658E+03  0.7546771E-02  0.1244334E+00
         -1   -1    0    0    0  501 -0.00000000000E+00  0.00000000000E+00  0.59434982067E+03  0.59434982067E+03  0.00000000000E+00 0.  1.
          1   -1    0    0  501    0  0.00000000000E+00 -0.00000000000E+00 -0.24344200953E+02  0.24344200953E+02  0.00000000000E+00 0. -1.
         23    2    1    2    0    0  0.28779332671E+02  0.71930408252E+01  0.43367743204E+03  0.45230472933E+03  0.12499385301E+03 0.  0.
         23    2    1    2    0    0 -0.28779332671E+02 -0.71930408252E+01  0.13632818768E+03  0.16638929229E+03  0.90664392175E+02 0.  0.
          5    1    3    3  502    0  0.17263514661E+02  0.30042264403E+02  0.42257546059E+03  0.42401966521E+03  0.47000000000E+01 0. -1.
         -5    1    3    3    0  502  0.11515818011E+02 -0.22849223578E+02  0.11101971451E+02  0.28285064127E+02  0.47000000000E+01 0. -1.
        -11    1    4    4    0    0 -0.25421727754E+02  0.20179099688E+02  0.13492754001E+03  0.13877644382E+03  0.00000000000E+00 0.  1.
         11    1    4    4    0    0 -0.33576049175E+01 -0.27372140514E+02  0.14006476727E+01  0.27612848476E+02  0.00000000000E+00 0. -1.
<mgrwt>
<rscale>  0 0.11925343E+03</rscale>
<asrwt>0</asrwt>
<pdfrwt beam="2">  1        1 0.37452621E-02 0.12846577E+03</pdfrwt>
<pdfrwt beam="1">  1       -1 0.91438423E-01 0.12846577E+03</pdfrwt>
<totfact> 0.29416499E+03</totfact>
</mgrwt>
</event>
<event>
 8    1  0.1646661E-005  0.1327391E+03  0.7546771E-02  0.1236839E+00
          1   -1    0    0  501    0  0.00000000000E+00  0.00000000000E+00  0.10409359400E+03  0.10409359400E+03  0.00000000000E+00 0. -1.
         -1   -1    0    0    0  501 -0.00000000000E+00 -0.00000000000E+00 -0.14556399373E+03  0.14556399373E+03  0.00000000000E+00 0.  1.
         23    2    1    2    0    0  0.36994891177E+02  0.24960569613E+02 -0.62643063663E+02  0.14677815606E+03  0.12501208606E+03 0.  0.
         23    2    1    2    0    0 -0.36994891177E+02 -0.24960569613E+02  0.21172663937E+02  0.10287943167E+03  0.90245463899E+02 0.  0.
          5    1    3    3  502    0  0.13535525821E+02  0.59525898013E+02  0.10784336617E+02  0.62168600674E+02  0.47000000000E+01 0.  1.
         -5    1    3    3    0  502  0.23459365356E+02 -0.34565328400E+02 -0.73427400280E+02  0.84609555383E+02  0.47000000000E+01 0.  1.
        -11    1    4    4    0    0 -0.41943211083E+02  0.22426539175E+02  0.27302955940E+02  0.54841900208E+02  0.00000000000E+00 0. -1.
         11    1    4    4    0    0  0.49483199060E+01 -0.47387108788E+02 -0.61302920025E+01  0.48037531465E+02  0.00000000000E+00 0.  1.
<mgrwt>
<rscale>  0 0.12387451E+03</rscale>
<asrwt>0</asrwt>
<pdfrwt beam="1">  1        1 0.16014399E-01 0.13273912E+03</pdfrwt>
<pdfrwt beam="2">  1       -1 0.22394461E-01 0.13273912E+03</pdfrwt>
<totfact> 0.54390062E+03</totfact>
</mgrwt>
</event>
<event>
 8    1  0.1646661E-005  0.1253350E+03  0.7546771E-02  0.1250241E+00
          1   -1    0    0  501    0  0.00000000000E+00  0.00000000000E+00  0.85286044508E+02  0.85286044508E+02  0.00000000000E+00 0. -1.
         -1   -1    0    0    0  501 -0.00000000000E+00 -0.00000000000E+00 -0.14039217684E+03  0.14039217684E+03  0.00000000000E+00 0.  1.
         23    2    1    2    0    0 -0.83569921439E+01  0.30435123014E+01 -0.47820422147E+02  0.13414790803E+03  0.12501906322E+03 0.  0.
         23    2    1    2    0    0  0.83569921439E+01 -0.30435123014E+01 -0.72857101829E+01  0.91530313321E+02  0.90805365475E+02 0.  0.
          5    1    3    3  502    0  0.32461808980E+02 -0.40039703849E+02 -0.53380201268E+02  0.74353767988E+02  0.47000000000E+01 0. -1.
         -5    1    3    3    0  502 -0.40818801124E+02  0.43083216150E+02  0.55597791202E+01  0.59794140038E+02  0.47000000000E+01 0. -1.
        -11    1    4    4    0    0  0.27128677423E+02  0.34224321154E+02  0.12389835520E+02  0.45395785282E+02  0.00000000000E+00 0.  1.
         11    1    4    4    0    0 -0.18771685279E+02 -0.37267833456E+02 -0.19675545703E+02  0.46134528039E+02  0.00000000000E+00 0. -1.
<mgrwt>
<rscale>  0 0.11577120E+03</rscale>
<asrwt>0</asrwt>
<pdfrwt beam="1">  1        1 0.13120930E-01 0.12533502E+03</pdfrwt>
<pdfrwt beam="2">  1       -1 0.21598796E-01 0.12533502E+03</pdfrwt>
<totfact> 0.74338861E+03</totfact>
</mgrwt>
</event>
<event>
 8    1  0.1646661E-005  0.1870138E+03  0.7546771E-02  0.1166261E+00
          1   -1    0    0  501    0  0.00000000000E+00  0.00000000000E+00  0.52120088273E+02  0.52120088273E+02  0.00000000000E+00 0. -1.
         -1   -1    0    0    0  501 -0.00000000000E+00 -0.00000000000E+00 -0.75347335506E+03  0.75347335506E+03  0.00000000000E+00 0.  1.
         23    2    1    2    0    0  0.13356303919E+03  0.37290793587E+02 -0.54930690120E+03  0.58026910959E+03  0.12547700633E+03 0.  0.
         23    2    1    2    0    0 -0.13356303919E+03 -0.37290793587E+02 -0.15204636559E+03  0.22532433374E+03  0.91778370900E+02 0.  0.
          5    1    3    3  502    0  0.86953912568E+02  0.75614750145E+02 -0.25594182536E+03  0.28072563352E+03  0.47000000000E+01 0.  1.
         -5    1    3    3    0  502  0.46609126617E+02 -0.38323956558E+02 -0.29336507584E+03  0.29954347607E+03  0.47000000000E+01 0.  1.
        -11    1    4    4    0    0 -0.82066804588E+02  0.34124906713E+01 -0.31318650418E+02  0.87905991672E+02  0.00000000000E+00 0.  1.
         11    1    4    4    0    0 -0.51496234598E+02 -0.40703284258E+02 -0.12072771517E+03  0.13741834207E+03  0.00000000000E+00 0. -1.
<mgrwt>
<rscale>  0 0.18160298E+03</rscale>
<asrwt>0</asrwt>
<pdfrwt beam="1">  1        1 0.80184755E-02 0.18701382E+03</pdfrwt>
<pdfrwt beam="2">  1       -1 0.11591897E+00 0.18701382E+03</pdfrwt>
<totfact> 0.62043787E+02</totfact>
</mgrwt>
</event>
<event>
 8    1  0.1646661E-005  0.1572597E+03  0.7546771E-02  0.1201764E+00
          2   -1    0    0  501    0  0.00000000000E+00  0.00000000000E+00  0.40225329802E+03  0.40225329802E+03  0.00000000000E+00 0. -1.
         -2   -1    0    0    0  501 -0.00000000000E+00 -0.00000000000E+00 -0.61540431326E+02  0.61540431326E+02  0.00000000000E+00 0.  1.
         23    2    1    2    0    0  0.84469105783E+02 -0.44402329689E+02  0.85700977523E+02  0.17909568092E+03  0.12499603458E+03 0.  0.
         23    2    1    2    0    0 -0.84469105783E+02  0.44402329689E+02  0.25501188917E+03  0.28469804843E+03  0.83158393728E+02 0.  0.
          5    1    3    3  502    0  0.29337854512E+01 -0.43416163899E+02 -0.17799783152E+02  0.47249261000E+02  0.47000000000E+01 0. -1.
         -5    1    3    3    0  502  0.81535320332E+02 -0.98616578955E+00  0.10350076067E+03  0.13184641992E+03  0.47000000000E+01 0. -1.
        -11    1    4    4    0    0 -0.69582011690E+02  0.16162244113E+02  0.23807213404E+03  0.24855827384E+03  0.00000000000E+00 0. -1.
         11    1    4    4    0    0 -0.14887094093E+02  0.28240085576E+02  0.16939755133E+02  0.36139774596E+02  0.00000000000E+00 0.  1.
<mgrwt>
<rscale>  0 0.14895406E+03</rscale>
<asrwt>0</asrwt>
<pdfrwt beam="1">  1        2 0.61885121E-01 0.15725967E+03</pdfrwt>
<pdfrwt beam="2">  1       -2 0.94677590E-02 0.15725967E+03</pdfrwt>
<totfact> 0.55602271E+03</totfact>
</mgrwt>
</event>
<event>
 8    1  0.1646661E-005  0.1149863E+03  0.7546771E-02  0.1260599E+00
         -2   -1    0    0    0  501 -0.00000000000E+00  0.00000000000E+00  0.14651346487E+03  0.14651346487E+03  0.00000000000E+00 0.  1.
          2   -1    0    0  501    0  0.00000000000E+00 -0.00000000000E+00 -0.79974732463E+02  0.79974732463E+02  0.00000000000E+00 0. -1.
         23    2    1    2    0    0  0.30047556138E+02 -0.13430421377E+01  0.60797756836E+02  0.13007002065E+03  0.11098280787E+03 0.  0.
         23    2    1    2    0    0 -0.30047556138E+02  0.13430421377E+01  0.57409755728E+01  0.96418176689E+02  0.91426728058E+02 0.  0.
          5    1    3    3  502    0  0.19665842187E+02 -0.79426319979E+01 -0.30711499829E+02  0.37618040536E+02  0.47000000000E+01 0. -1.
         -5    1    3    3    0  502  0.10381713951E+02  0.65995898602E+01  0.91509256666E+02  0.92451980111E+02  0.47000000000E+01 0.  1.
        -11    1    4    4    0    0  0.25624284018E+02 -0.11903094586E+02  0.23231939449E+02  0.36578827246E+02  0.00000000000E+00 0.  1.
         11    1    4    4    0    0 -0.55671840156E+02  0.13246136724E+02 -0.17490963876E+02  0.59839349443E+02  0.00000000000E+00 0. -1.
<mgrwt>
<rscale>  0 0.10998448E+03</rscale>
<asrwt>0</asrwt>
<pdfrwt beam="2">  1        2 0.12303805E-01 0.11498627E+03</pdfrwt>
<pdfrwt beam="1">  1       -2 0.22540533E-01 0.11498627E+03</pdfrwt>
<totfact> 0.78707972E+03</totfact>
</mgrwt>
</event>
<event>
 8    1  0.1646661E-005  0.1318425E+03  0.7546771E-02  0.1251153E+00
          2   -1    0    0  501    0  0.00000000000E+00  0.00000000000E+00  0.25163438663E+02  0.25163438663E+02  0.00000000000E+00 0. -1.
         -2   -1    0    0    0  501 -0.00000000000E+00 -0.00000000000E+00 -0.11398512404E+04  0.11398512404E+04  0.00000000000E+00 0.  1.
         23    2    1    2    0    0  0.37119008843E+02 -0.19508264258E+02 -0.10655952306E+04  0.10737204632E+04  0.12499617751E+03 0.  0.
         23    2    1    2    0    0 -0.37119008843E+02  0.19508264258E+02 -0.49092571069E+02  0.91294215811E+02  0.64545798581E+02 0.  0.
          5    1    3    3  502    0  0.73218147039E+01 -0.40373493356E+02 -0.97646890127E+03  0.97734192230E+03  0.47000000000E+01 0. -1.
         -5    1    3    3    0  502  0.29797194139E+02  0.20865229098E+02 -0.89126329372E+02  0.96378540927E+02  0.47000000000E+01 0. -1.
        -11    1    4    4    0    0 -0.22711150993E+02 -0.88934612001E+00 -0.59911922530E+02  0.64078278513E+02  0.00000000000E+00 0.  1.
         11    1    4    4    0    0 -0.14407857850E+02  0.20397610378E+02  0.10819351461E+02  0.27215937297E+02  0.00000000000E+00 0. -1.
<mgrwt>
<rscale>  0 0.11524536E+03</rscale>
<asrwt>0</asrwt>
<pdfrwt beam="1">  1        2 0.38712976E-02 0.13184247E+03</pdfrwt>
<pdfrwt beam="2">  1       -2 0.17536176E+00 0.13184247E+03</pdfrwt>
<totfact> 0.45385559E+02</totfact>
</mgrwt>
</event>
<event>
 8    1  0.1646661E-005  0.1270195E+03  0.7546771E-02  0.1245897E+00
         -1   -1    0    0    0  501 -0.00000000000E+00  0.00000000000E+00  0.22472772249E+02  0.22472772249E+02  0.00000000000E+00 0.  1.
          1   -1    0    0  501    0  0.00000000000E+00 -0.00000000000E+00 -0.59714440052E+03  0.59714440052E+03  0.00000000000E+00 0. -1.
         23    2    1    2    0    0 -0.21155015504E+02  0.79156849007E+01 -0.23986462459E+03  0.27142030518E+03  0.12499500464E+03 0.  0.
         23    2    1    2    0    0  0.21155015504E+02 -0.79156849007E+01 -0.33480700368E+03  0.34819686759E+03  0.92925433223E+02 0.  0.
          5    1    3    3  502    0  0.17971494804E+02  0.59143203151E+02 -0.12815520675E+03  0.14236130134E+03  0.47000000000E+01 0.  1.
         -5    1    3    3    0  502 -0.39126510308E+02 -0.51227518250E+02 -0.11170941785E+03  0.12905900383E+03  0.47000000000E+01 0.  1.
        -11    1    4    4    0    0  0.36773084173E+02 -0.40228384440E+02 -0.14245604811E+03  0.15252641829E+03  0.00000000000E+00 0.  1.
         11    1    4    4    0    0 -0.15618068669E+02  0.32312699539E+02 -0.19235095557E+03  0.19567044930E+03  0.00000000000E+00 0. -1.
<mgrwt>
<rscale>  0 0.11831849E+03</rscale>
<asrwt>0</asrwt>
<pdfrwt beam="2">  1        1 0.91868359E-01 0.12701946E+03</pdfrwt>
<pdfrwt beam="1">  1       -1 0.34573500E-02 0.12701946E+03</pdfrwt>
<totfact> 0.10282543E+04</totfact>
</mgrwt>
</event>
<event>
 8    1  0.1646661E-005  0.1707677E+03  0.7546771E-02  0.1182770E+00
         -4   -1    0    0    0  501 -0.00000000000E+00  0.00000000000E+00  0.52086173401E+03  0.52086173401E+03  0.00000000000E+00 0.  1.
          4   -1    0    0  501    0  0.00000000000E+00 -0.00000000000E+00 -0.53876335414E+02  0.53876335414E+02  0.00000000000E+00 0. -1.
         23    2    1    2    0    0  0.51262100710E+02  0.10444046332E+03  0.32960320413E+03  0.37121405822E+03  0.12500396593E+03 0.  0.
         23    2    1    2    0    0 -0.51262100710E+02 -0.10444046332E+03  0.13738219447E+03  0.20352401121E+03  0.94934411222E+02 0.  0.
          5    1    3    3  502    0  0.36702093972E+02  0.96200395583E+02  0.33693903609E+03  0.35235147772E+03  0.47000000000E+01 0. -1.
         -5    1    3    3    0  502  0.14560006739E+02  0.82400677349E+01 -0.73358319578E+01  0.18862580497E+02  0.47000000000E+01 0. -1.
        -11    1    4    4    0    0  0.39036010700E+01 -0.60504027384E+02  0.15291789447E+02  0.62528507543E+02  0.00000000000E+00 0.  1.
         11    1    4    4    0    0 -0.55165701780E+02 -0.43936435934E+02  0.12209040503E+03  0.14099550367E+03  0.00000000000E+00 0. -1.
<mgrwt>
<rscale>  0 0.16536483E+03</rscale>
<asrwt>0</asrwt>
<pdfrwt beam="2">  1        4 0.82886674E-02 0.17076769E+03</pdfrwt>
<pdfrwt beam="1">  1       -4 0.80132571E-01 0.17076769E+03</pdfrwt>
<totfact> 0.25572022E+02</totfact>
</mgrwt>
</event>
<event>
 8    1  0.1646661E-005  0.1555297E+03  0.7546771E-02  0.1202634E+00
          3   -1    0    0  501    0  0.00000000000E+00  0.00000000000E+00  0.18590551705E+03  0.18590551705E+03  0.00000000000E+00 0. -1.
         -3   -1    0    0    0  501 -0.00000000000E+00 -0.00000000000E+00 -0.11768533047E+03  0.11768533047E+03  0.00000000000E+00 0.  1.
         23    2    1    2    0    0 -0.74215556194E+02 -0.55264658887E+02 -0.53065914665E+01  0.15562017248E+03  0.12500938711E+03 0.  0.
         23    2    1    2    0    0  0.74215556194E+02  0.55264658887E+02  0.73526778050E+02  0.14797067504E+03  0.89033714278E+02 0.  0.
          5    1    3    3  502    0 -0.65459664102E+00 -0.67988276860E+02  0.28073362251E+02  0.73709144312E+02  0.47000000000E+01 0. -1.
         -5    1    3    3    0  502 -0.73560959553E+02  0.12723617973E+02 -0.33379953717E+02  0.81911028164E+02  0.47000000000E+01 0. -1.
        -11    1    4    4    0    0  0.52777494996E+02  0.38184757089E+02 -0.44720953168E+01  0.65295783084E+02  0.00000000000E+00 0.  1.
         11    1    4    4    0    0  0.21438061198E+02  0.17079901798E+02  0.77998873366E+02  0.82674891955E+02  0.00000000000E+00 0. -1.
<mgrwt>
<rscale>  0 0.14825511E+03</rscale>
<asrwt>0</asrwt>
<pdfrwt beam="1">  1        3 0.28600849E-01 0.15552967E+03</pdfrwt>
<pdfrwt beam="2">  1       -3 0.18105436E-01 0.15552967E+03</pdfrwt>
<totfact> 0.74051631E+02</totfact>
</mgrwt>
</event>
<event>
 8    1  0.1646661E-005  0.1839558E+03  0.7546771E-02  0.1167261E+00
          2   -1    0    0  501    0  0.00000000000E+00  0.00000000000E+00  0.76302593693E+03  0.76302593693E+03  0.00000000000E+00 0. -1.
         -2   -1    0    0    0  501 -0.00000000000E+00 -0.00000000000E+00 -0.42941165104E+02  0.42941165104E+02  0.00000000000E+00 0.  1.
         23    2    1    2    0    0 -0.12771944707E+03 -0.68816495663E+02  0.29234506920E+03  0.34540608074E+03  0.11310063614E+03 0.  0.
         23    2    1    2    0    0  0.12771944707E+03  0.68816495663E+02  0.42773970263E+03  0.46056102130E+03  0.90040179336E+02 0.  0.
          5    1    3    3  502    0 -0.10039536628E+03 -0.99404400836E+02  0.20784536010E+03  0.25136079287E+03  0.47000000000E+01 0. -1.
         -5    1    3    3    0  502 -0.27324080791E+02  0.30587905174E+02  0.84499709098E+02  0.94045287875E+02  0.47000000000E+01 0.  1.
        -11    1    4    4    0    0  0.57140419021E+01  0.43755449309E+02  0.14588333238E+03  0.15241107665E+03  0.00000000000E+00 0.  1.
         11    1    4    4    0    0  0.12200540517E+03  0.25061046354E+02  0.28185637025E+03  0.30814994464E+03  0.00000000000E+00 0. -1.
<mgrwt>
<rscale>  0 0.18056125E+03</rscale>
<asrwt>0</asrwt>
<pdfrwt beam="1">  1        2 0.11738860E+00 0.18395576E+03</pdfrwt>
<pdfrwt beam="2">  1       -2 0.66063337E-02 0.18395576E+03</pdfrwt>
<totfact> 0.47265181E+03</totfact>
</mgrwt>
</event>
<event>
 8    1  0.1646661E-005  0.2151970E+03  0.7546771E-02  0.1141018E+00
          2   -1    0    0  501    0  0.00000000000E+00  0.00000000000E+00  0.10015411606E+04  0.10015411606E+04  0.00000000000E+00 0.  1.
         -2   -1    0    0    0  501 -0.00000000000E+00 -0.00000000000E+00 -0.47400746103E+02  0.47400746103E+02  0.00000000000E+00 0. -1.
         23    2    1    2    0    0 -0.80367612979E+02  0.15565106157E+03  0.32777472572E+03  0.39210460513E+03  0.12499417732E+03 0.  0.
         23    2    1    2    0    0  0.80367612979E+02 -0.15565106157E+03  0.62636568882E+03  0.65683730161E+03  0.91733627828E+02 0.  0.
          5    1    3    3  502    0 -0.10210227103E+03  0.14528966728E+03  0.32063312035E+03  0.36655374645E+03  0.47000000000E+01 0. -1.
         -5    1    3    3    0  502  0.21734658053E+02  0.10361394288E+02  0.71416053641E+01  0.25550858683E+02  0.47000000000E+01 0. -1.
        -11    1    4    4    0    0 -0.20726739353E+02 -0.23073856683E+02  0.98831935165E+02  0.10358451619E+03  0.00000000000E+00 0.  1.
         11    1    4    4    0    0  0.10109435233E+03 -0.13257720488E+03  0.52753375365E+03  0.55325278542E+03  0.00000000000E+00 0. -1.
<mgrwt>
<rscale>  0 0.21069344E+03</rscale>
<asrwt>0</asrwt>
<pdfrwt beam="1">  1        2 0.15408324E+00 0.21519700E+03</pdfrwt>
<pdfrwt beam="2">  1       -2 0.72924232E-02 0.21519700E+03</pdfrwt>
<totfact> 0.28500850E+03</totfact>
</mgrwt>
</event>
<event>
 8    1  0.1646661E-005  0.1538803E+03  0.7546771E-02  0.1204056E+00
          2   -1    0    0  501    0  0.00000000000E+00  0.00000000000E+00  0.24115372783E+03  0.24115372783E+03  0.00000000000E+00 0. -1.
         -2   -1    0    0    0  501 -0.00000000000E+00 -0.00000000000E+00 -0.84497401229E+02  0.84497401229E+02  0.00000000000E+00 0.  1.
         23    2    1    2    0    0 -0.70230181326E+02 -0.55882926341E+02  0.10881241478E+03  0.18846558265E+03  0.12499581756E+03 0.  0.
         23    2    1    2    0    0  0.70230181326E+02  0.55882926341E+02  0.47843911818E+02  0.13718554641E+03  0.92063317451E+02 0.  0.
          5    1    3    3  502    0 -0.71233718910E+02  0.22643676462E+02  0.47066959240E+02  0.88455454583E+02  0.47000000000E+01 0. -1.
         -5    1    3    3    0  502  0.10035375838E+01 -0.78526602802E+02  0.61745455540E+02  0.10001012806E+03  0.47000000000E+01 0. -1.
        -11    1    4    4    0    0  0.47522942323E+02  0.17245166112E+02 -0.21241985410E+02  0.54836554828E+02  0.00000000000E+00 0.  1.
         11    1    4    4    0    0  0.22707239003E+02  0.38637760229E+02  0.69085897228E+02  0.82348991582E+02  0.00000000000E+00 0. -1.
<mgrwt>
<rscale>  0 0.14712078E+03</rscale>
<asrwt>0</asrwt>
<pdfrwt beam="1">  1        2 0.37100573E-01 0.15388026E+03</pdfrwt>
<pdfrwt beam="2">  1       -2 0.12999600E-01 0.15388026E+03</pdfrwt>
<totfact> 0.57895580E+03</totfact>
</mgrwt>
</event>
<event>
 8    1  0.1646661E-005  0.1419726E+03  0.7546771E-02  0.1221998E+00
          2   -1    0    0  501    0  0.00000000000E+00  0.00000000000E+00  0.12683253571E+03  0.12683253571E+03  0.00000000000E+00 0.  1.
         -2   -1    0    0    0  501 -0.00000000000E+00 -0.00000000000E+00 -0.29559998763E+03  0.29559998763E+03  0.00000000000E+00 0. -1.
         23    2    1    2    0    0 -0.11901708273E+01  0.67305099242E+02 -0.24773830909E+03  0.28553542627E+03  0.12499926789E+03 0.  0.
         23    2    1    2    0    0  0.11901708273E+01 -0.67305099242E+02  0.78970857163E+02  0.13689709707E+03  0.89291802622E+02 0.  0.
          5    1    3    3  502    0 -0.15661249286E+01 -0.37110471210E+02 -0.66905299232E+02  0.76668434743E+02  0.47000000000E+01 0. -1.
         -5    1    3    3    0  502  0.37595410132E+00  0.10441557045E+03 -0.18083300986E+03  0.20886699152E+03  0.47000000000E+01 0. -1.
        -11    1    4    4    0    0 -0.10766346601E+02 -0.70587089818E+02  0.93596473262E+02  0.11772319769E+03  0.00000000000E+00 0.  1.
         11    1    4    4    0    0  0.11956517429E+02  0.32819905758E+01 -0.14625616099E+02  0.19173899380E+02  0.00000000000E+00 0. -1.
<mgrwt>
<rscale>  0 0.13374768E+03</rscale>
<asrwt>0</asrwt>
<pdfrwt beam="1">  1        2 0.19512698E-01 0.14197257E+03</pdfrwt>
<pdfrwt beam="2">  1       -2 0.45476920E-01 0.14197257E+03</pdfrwt>
<totfact> 0.12989941E+03</totfact>
</mgrwt>
</event>
<event>
 8    1  0.1646661E-005  0.1477889E+03  0.7546771E-02  0.1212169E+00
          1   -1    0    0  501    0  0.00000000000E+00  0.00000000000E+00  0.21982050297E+03  0.21982050297E+03  0.00000000000E+00 0. -1.
         -1   -1    0    0    0  501 -0.00000000000E+00 -0.00000000000E+00 -0.89686277292E+02  0.89686277292E+02  0.00000000000E+00 0.  1.
         23    2    1    2    0    0 -0.46439534067E+02  0.63710344191E+02  0.28012879716E+02  0.15042029957E+03  0.12500362720E+03 0.  0.
         23    2    1    2    0    0  0.46439534067E+02 -0.63710344191E+02  0.10212134596E+03  0.15908648068E+03  0.93081151449E+02 0.  0.
          5    1    3    3  502    0 -0.26296537780E+02  0.52505520907E+02 -0.44730486914E+02  0.73967858455E+02  0.47000000000E+01 0. -1.
         -5    1    3    3    0  502 -0.20142996287E+02  0.11204823284E+02  0.72743366630E+02  0.76452441118E+02  0.47000000000E+01 0. -1.
        -11    1    4    4    0    0  0.56228230794E+02 -0.15359892346E+02  0.17023032808E+02  0.60723338817E+02  0.00000000000E+00 0.  1.
         11    1    4    4    0    0 -0.97886967268E+01 -0.48350451844E+02  0.85098313149E+02  0.98363141868E+02  0.00000000000E+00 0. -1.
<mgrwt>
<rscale>  0 0.14086583E+03</rscale>
<asrwt>0</asrwt>
<pdfrwt beam="1">  1        1 0.33818539E-01 0.14778885E+03</pdfrwt>
<pdfrwt beam="2">  1       -1 0.13797889E-01 0.14778885E+03</pdfrwt>
<totfact> 0.46005790E+03</totfact>
</mgrwt>
</event>
<event>
 8    1  0.1646661E-005  0.2497446E+03  0.7546771E-02  0.1115777E+00
         -2   -1    0    0    0  501 -0.00000000000E+00  0.00000000000E+00  0.13110391725E+04  0.13110391725E+04  0.00000000000E+00 0.  1.
          2   -1    0    0  501    0  0.00000000000E+00 -0.00000000000E+00 -0.46451013239E+02  0.46451013239E+02  0.00000000000E+00 0. -1.
         23    2    1    2    0    0  0.49824171386E+02  0.21039648689E+03  0.77348512308E+03  0.81280476085E+03  0.12499285534E+03 0.  0.
         23    2    1    2    0    0 -0.49824171386E+02 -0.21039648689E+03  0.49110303618E+03  0.54468542488E+03  0.93546192806E+02 0.  0.
          5    1    3    3  502    0  0.70895073157E+02  0.97201046487E+02  0.52892034830E+03  0.54245090071E+03  0.47000000000E+01 0.  1.
         -5    1    3    3    0  502 -0.21070901771E+02  0.11319544040E+03  0.24456477478E+03  0.27035386014E+03  0.47000000000E+01 0.  1.
        -11    1    4    4    0    0  0.10922642342E+02 -0.41511737106E+02  0.18437991375E+03  0.18931054124E+03  0.00000000000E+00 0.  1.
         11    1    4    4    0    0 -0.60746813728E+02 -0.16888474978E+03  0.30672312243E+03  0.35537488364E+03  0.00000000000E+00 0. -1.
<mgrwt>
<rscale>  0 0.24612666E+03</rscale>
<asrwt>0</asrwt>
<pdfrwt beam="2">  1        2 0.71463107E-02 0.24974456E+03</pdfrwt>
<pdfrwt beam="1">  1       -2 0.20169831E+00 0.24974456E+03</pdfrwt>
<totfact> 0.13831255E+02</totfact>
</mgrwt>
</event>
<event>
 8    1  0.1646661E-005  0.1352831E+03  0.7546771E-02  0.1232149E+00
          2   -1    0    0  501    0  0.00000000000E+00  0.00000000000E+00  0.33287402002E+03  0.33287402002E+03  0.00000000000E+00 0. -1.
         -2   -1    0    0    0  501 -0.00000000000E+00 -0.00000000000E+00 -0.44970622932E+02  0.44970622932E+02  0.00000000000E+00 0.  1.
         23    2    1    2    0    0  0.51756331892E+02 -0.56084565810E-01  0.12496798041E+03  0.18416976465E+03  0.12499113987E+03 0.  0.
         23    2    1    2    0    0 -0.51756331892E+02  0.56084565810E-01  0.16293541668E+03  0.19367487830E+03  0.91012567490E+02 0.  0.
          5    1    3    3  502    0 -0.11707007548E+02 -0.11103658363E+02  0.11801730282E+03  0.11920788153E+03  0.47000000000E+01 0. -1.
         -5    1    3    3    0  502  0.63463339441E+02  0.11047573797E+02  0.69506775971E+01  0.64961883123E+02  0.47000000000E+01 0. -1.
        -11    1    4    4    0    0 -0.67527418305E+02 -0.87078775947E+01  0.16186337815E+03  0.17560049129E+03  0.00000000000E+00 0. -1.
         11    1    4    4    0    0  0.15771086413E+02  0.87639621605E+01  0.10720385318E+01  0.18074387016E+02  0.00000000000E+00 0.  1.
<mgrwt>
<rscale>  0 0.12688750E+03</rscale>
<asrwt>0</asrwt>
<pdfrwt beam="1">  1        2 0.51211386E-01 0.13528306E+03</pdfrwt>
<pdfrwt beam="2">  1       -2 0.69185576E-02 0.13528306E+03</pdfrwt>
<totfact> 0.10953734E+04</totfact>
</mgrwt>
</event>
<event>
 8    1  0.1646661E-005  0.1472502E+03  0.7546771E-02  0.1213383E+00
          2   -1    0    0  501    0  0.00000000000E+00  0.00000000000E+00  0.29351609960E+03  0.29351609960E+03  0.00000000000E+00 0. -1.
         -2   -1    0    0    0  501 -0.00000000000E+00 -0.00000000000E+00 -0.66326617202E+02  0.66326617202E+02  0.00000000000E+00 0.  1.
         23    2    1    2    0    0 -0.68156554977E+02  0.37599384213E+02  0.73015368379E+02  0.16435890835E+03  0.12499430809E+03 0.  0.
         23    2    1    2    0    0  0.68156554977E+02 -0.37599384213E+02  0.15417411402E+03  0.19548380844E+03  0.91570913789E+02 0.  0.
          5    1    3    3  502    0 -0.64086383378E+01  0.33120648891E+02  0.93074252565E+02  0.99110819384E+02  0.47000000000E+01 0. -1.
         -5    1    3    3    0  502 -0.61747916639E+02  0.44787353216E+01 -0.20058884187E+02  0.65248088969E+02  0.47000000000E+01 0. -1.
        -11    1    4    4    0    0  0.74122678463E+02  0.19754016177E+01  0.68607815536E+02  0.10102032482E+03  0.00000000000E+00 0.  1.
         11    1    4    4    0    0 -0.59661234869E+01 -0.39574785830E+02  0.85566298480E+02  0.94463483625E+02  0.00000000000E+00 0. -1.
<mgrwt>
<rscale>  0 0.13995993E+03</rscale>
<asrwt>0</asrwt>
<pdfrwt beam="1">  1        2 0.45156322E-01 0.14725015E+03</pdfrwt>
<pdfrwt beam="2">  1       -2 0.10204095E-01 0.14725015E+03</pdfrwt>
<totfact> 0.68895876E+03</totfact>
</mgrwt>
</event>
<event>
 8    1  0.1920241E-005  0.2498758E+03  0.7546771E-02  0.1115756E+00
          2   -1    0    0  501    0  0.00000000000E+00  0.00000000000E+00  0.92597489818E+03  0.92597489818E+03  0.00000000000E+00 0. -1.
         -2   -1    0    0    0  501 -0.00000000000E+00 -0.00000000000E+00 -0.67695696960E+02  0.67695696960E+02  0.00000000000E+00 0.  1.
         23    2    1    2    0    0  0.18851499882E+03  0.10618408761E+03  0.31851279017E+03  0.40483118481E+03  0.12499970180E+03 0.  0.
         23    2    1    2    0    0 -0.18851499882E+03 -0.10618408761E+03  0.53976641105E+03  0.58883941033E+03  0.92580275546E+02 0.  0.
          5    1    3    3  502    0  0.12178713550E+03  0.84440918410E+02  0.29586134290E+03  0.33093564223E+03  0.47000000000E+01 0.  1.
         -5    1    3    3    0  502  0.66727863317E+02  0.21743169204E+02  0.22651447272E+02  0.73895542581E+02  0.47000000000E+01 0.  1.
        -11    1    4    4    0    0 -0.43732710047E+02 -0.52745904365E+02  0.88570159940E+02  0.11197925516E+03  0.00000000000E+00 0.  1.
         11    1    4    4    0    0 -0.14478228877E+03 -0.53438183249E+02  0.45119625111E+03  0.47686015517E+03  0.00000000000E+00 0. -1.
<mgrwt>
<rscale>  0 0.24615927E+03</rscale>
<asrwt>0</asrwt>
<pdfrwt beam="1">  1        2 0.14245767E+00 0.24987575E+03</pdfrwt>
<pdfrwt beam="2">  1       -2 0.10414723E-01 0.24987575E+03</pdfrwt>
<totfact> 0.18153115E+03</totfact>
</mgrwt>
</event>
<event>
 8    1  0.1646661E-005  0.1386931E+03  0.7546771E-02  0.1226101E+00
          3   -1    0    0  501    0  0.00000000000E+00  0.00000000000E+00  0.52706220180E+02  0.52706220180E+02  0.00000000000E+00 0. -1.
         -3   -1    0    0    0  501 -0.00000000000E+00 -0.00000000000E+00 -0.31573215093E+03  0.31573215093E+03  0.00000000000E+00 0.  1.
         23    2    1    2    0    0 -0.26419998490E+02  0.53991085760E+02 -0.19401827130E+03  0.23849288872E+03  0.12499085852E+03 0.  0.
         23    2    1    2    0    0  0.26419998490E+02 -0.53991085760E+02 -0.69007659450E+02  0.12994548238E+03  0.92253550974E+02 0.  0.
          5    1    3    3  502    0  0.47784511110E+02  0.20820610870E+02 -0.10823808309E+03  0.12022657764E+03  0.47000000000E+01 0. -1.
         -5    1    3    3    0  502 -0.74204509600E+02  0.33170474889E+02 -0.85780188203E+02  0.11826631108E+03  0.47000000000E+01 0. -1.
        -11    1    4    4    0    0  0.37957833530E+02 -0.32405128280E+02  0.67213003712E+01  0.50359362027E+02  0.00000000000E+00 0. -1.
         11    1    4    4    0    0 -0.11537835040E+02 -0.21585957480E+02 -0.75728959821E+02  0.79586120356E+02  0.00000000000E+00 0.  1.
<mgrwt>
<rscale>  0 0.13091692E+03</rscale>
<asrwt>0</asrwt>
<pdfrwt beam="1">  1        3 0.81086493E-02 0.13869307E+03</pdfrwt>
<pdfrwt beam="2">  1       -3 0.48574177E-01 0.13869307E+03</pdfrwt>
<totfact> 0.10222243E+03</totfact>
</mgrwt>
</event>
<event>
 8    1  0.1646661E-005  0.2054196E+03  0.7546771E-02  0.1149136E+00
          2   -1    0    0  501    0  0.00000000000E+00  0.00000000000E+00  0.55419584513E+03  0.55419584513E+03  0.00000000000E+00 0. -1.
         -2   -1    0    0    0  501 -0.00000000000E+00 -0.00000000000E+00 -0.72407433000E+02  0.72407433000E+02  0.00000000000E+00 0.  1.
         23    2    1    2    0    0 -0.11538313481E+03  0.11516244491E+03  0.18946697566E+03  0.27945471479E+03  0.12498618418E+03 0.  0.
         23    2    1    2    0    0  0.11538313481E+03 -0.11516244491E+03  0.29232143648E+03  0.34714856334E+03  0.92112139761E+02 0.  0.
          5    1    3    3  502    0 -0.13367976681E+03  0.88039330552E+02  0.18716553405E+03  0.24632139759E+03  0.47000000000E+01 0.  1.
         -5    1    3    3    0  502  0.18296631997E+02  0.27123114357E+02  0.23014416102E+01  0.33133317195E+02  0.47000000000E+01 0.  1.
        -11    1    4    4    0    0  0.71155925696E+02 -0.49284065726E+02  0.23156040323E+03  0.24720903147E+03  0.00000000000E+00 0. -1.
         11    1    4    4    0    0  0.44227209118E+02 -0.65878379182E+02  0.60761033246E+02  0.99939531874E+02  0.00000000000E+00 0.  1.
<mgrwt>
<rscale>  0 0.20071662E+03</rscale>
<asrwt>0</asrwt>
<pdfrwt beam="1">  1        2 0.85260897E-01 0.20541958E+03</pdfrwt>
<pdfrwt beam="2">  1       -2 0.11139605E-01 0.20541958E+03</pdfrwt>
<totfact> 0.30526885E+03</totfact>
</mgrwt>
</event>
<event>
 7    1  0.1646661E-005  0.2645033E+03  0.7546771E-02  0.1139169E+00
         -2   -1    0    0    0  501 -0.00000000000E+00  0.00000000000E+00  0.28792233873E+03  0.28792233873E+03  0.00000000000E+00 0.  1.
          2   -1    0    0  501    0  0.00000000000E+00 -0.00000000000E+00 -0.12398022618E+03  0.12398022618E+03  0.00000000000E+00 0. -1.
         23    2    1    2    0    0  0.99922835133E+01 -0.62232865976E+02  0.29482799722E+02  0.11518504235E+03  0.91790975402E+02 0.  0.
          5    1    1    2  502    0 -0.59889650166E+02  0.66779063376E+02 -0.51861400860E+02  0.10372033745E+03  0.47000000000E+01 0. -1.
         -5    1    1    2    0  502  0.49897366652E+02 -0.45461974000E+01  0.18632071368E+03  0.19299718510E+03  0.47000000000E+01 0.  1.
        -11    1    3    3    0    0 -0.45129582438E+00  0.17408073778E+02  0.30197869274E+02  0.34859087901E+02  0.00000000000E+00 0.  1.
         11    1    3    3    0    0  0.10443579338E+02 -0.79640939755E+02 -0.71506955239E+00  0.80325954453E+02  0.00000000000E+00 0. -1.
<mgrwt>
<rscale>  0 0.21305602E+03</rscale>
<asrwt>0</asrwt>
<pdfrwt beam="2">  1        2 0.19073881E-01 0.26450327E+03</pdfrwt>
<pdfrwt beam="1">  1       -2 0.44295744E-01 0.26450327E+03</pdfrwt>
<totfact> 0.14305402E+03</totfact>
</mgrwt>
</event>
<event>
 7    1  0.1646661E-005  0.4295564E+03  0.7546771E-02  0.1076654E+00
          1   -1    0    0  501    0  0.00000000000E+00  0.00000000000E+00  0.15930913295E+03  0.15930913295E+03  0.00000000000E+00 0. -1.
         -1   -1    0    0    0  501 -0.00000000000E+00 -0.00000000000E+00 -0.58261440664E+03  0.58261440664E+03  0.00000000000E+00 0.  1.
         23    2    1    2    0    0  0.84695437876E+02  0.29669696730E+02  0.13315551677E+02  0.12942339345E+03  0.92301152515E+02 0.  0.
          5    1    1    2  502    0 -0.70852013403E+02  0.16657803093E+03 -0.65742463934E+02  0.19264581427E+03  0.47000000000E+01 0. -1.
         -5    1    1    2    0  502 -0.13843424473E+02 -0.19624772766E+03 -0.37087836143E+03  0.41985433187E+03  0.47000000000E+01 0.  1.
        -11    1    3    3    0    0  0.63117272974E+02 -0.26571396826E+02  0.60736350698E+01  0.68751133227E+02  0.00000000000E+00 0.  1.
         11    1    3    3    0    0  0.21578164902E+02  0.56241093557E+02  0.72419166071E+01  0.60672260228E+02  0.00000000000E+00 0. -1.
<mgrwt>
<rscale>  0 0.31782689E+03</rscale>
<asrwt>0</asrwt>
<pdfrwt beam="1">  1        1 0.24509097E-01 0.42955638E+03</pdfrwt>
<pdfrwt beam="2">  1       -1 0.89632986E-01 0.42955638E+03</pdfrwt>
<totfact> 0.25041638E+02</totfact>
</mgrwt>
</event>
<event>
 8    1  0.1646661E-005  0.1655634E+03  0.7546771E-02  0.1189025E+00
         -2   -1    0    0    0  501 -0.00000000000E+00  0.00000000000E+00  0.31939386703E+02  0.31939386703E+02  0.00000000000E+00 0.  1.
          2   -1    0    0  501    0  0.00000000000E+00 -0.00000000000E+00 -0.74949330137E+03  0.74949330137E+03  0.00000000000E+00 0. -1.
         23    2    1    2    0    0  0.44159693647E+02 -0.99178810373E+02 -0.36200933961E+03  0.39807285811E+03  0.12499889371E+03 0.  0.
         23    2    1    2    0    0 -0.44159693647E+02  0.99178810373E+02 -0.35554457505E+03  0.38335982996E+03  0.93628518128E+02 0.  0.
          5    1    3    3  502    0  0.28581533098E+02 -0.63373331004E+02 -0.55582553397E+02  0.89132448406E+02  0.47000000000E+01 0.  1.
         -5    1    3    3    0  502  0.15578160549E+02 -0.35805479369E+02 -0.30642678622E+03  0.30894040971E+03  0.47000000000E+01 0.  1.
        -11    1    4    4    0    0  0.10620154527E+02 -0.10298853964E+02 -0.13348664906E+02  0.19925885926E+02  0.00000000000E+00 0.  1.
         11    1    4    4    0    0 -0.54779848174E+02  0.10947766434E+03 -0.34219591015E+03  0.36343394403E+03  0.00000000000E+00 0. -1.
<mgrwt>
<rscale>  0 0.15971002E+03</rscale>
<asrwt>0</asrwt>
<pdfrwt beam="2">  1        2 0.11530667E+00 0.16556340E+03</pdfrwt>
<pdfrwt beam="1">  1       -2 0.49137514E-02 0.16556340E+03</pdfrwt>
<totfact> 0.75456137E+03</totfact>
</mgrwt>
</event>
<event>
 8    1  0.1646661E-005  0.1252177E+03  0.7546771E-02  0.1250370E+00
          4   -1    0    0  501    0  0.00000000000E+00  0.00000000000E+00  0.43001329351E+02  0.43001329351E+02  0.00000000000E+00 0. -1.
         -4   -1    0    0    0  501 -0.00000000000E+00 -0.00000000000E+00 -0.28790395586E+03  0.28790395586E+03  0.00000000000E+00 0.  1.
         23    2    1    2    0    0  0.64606708821E+01 -0.36901991431E+01 -0.17850921140E+03  0.21804818324E+03  0.12499645523E+03 0.  0.
         23    2    1    2    0    0 -0.64606708821E+01  0.36901991431E+01 -0.66393415105E+02  0.11285710197E+03  0.90957583841E+02 0.  0.
          5    1    3    3  502    0 -0.39055466472E+02 -0.37917916608E+02 -0.38534760450E+02  0.66858923295E+02  0.47000000000E+01 0.  1.
         -5    1    3    3    0  502  0.45516137354E+02  0.34227717465E+02 -0.13997445095E+03  0.15118925994E+03  0.47000000000E+01 0.  1.
        -11    1    4    4    0    0  0.14779560080E+02 -0.11116209486E+02 -0.81030809107E+02  0.83114364186E+02  0.00000000000E+00 0.  1.
         11    1    4    4    0    0 -0.21240230962E+02  0.14806408629E+02  0.14637394002E+02  0.29742737786E+02  0.00000000000E+00 0. -1.
<mgrwt>
<rscale>  0 0.11569672E+03</rscale>
<asrwt>0</asrwt>
<pdfrwt beam="1">  1        4 0.66155893E-02 0.12521770E+03</pdfrwt>
<pdfrwt beam="2">  1       -4 0.44292915E-01 0.12521770E+03</pdfrwt>
<totfact> 0.12165297E+03</totfact>
</mgrwt>
</event>
<event>
 8    1  0.1646661E-005  0.2914367E+03  0.7546771E-02  0.1090922E+00
          2   -1    0    0  501    0  0.00000000000E+00  0.00000000000E+00  0.17400725266E+04  0.17400725266E+04  0.00000000000E+00 0.  1.
         -2   -1    0    0    0  501 -0.00000000000E+00 -0.00000000000E+00 -0.47843087043E+02  0.47843087043E+02  0.00000000000E+00 0. -1.
         23    2    1    2    0    0 -0.20025089785E+03 -0.17090959631E+03  0.75323440040E+03  0.80764930164E+03  0.12499928119E+03 0.  0.
         23    2    1    2    0    0  0.20025089785E+03  0.17090959631E+03  0.93899503920E+03  0.98026631204E+03  0.99497973269E+02 0.  0.
          5    1    3    3  502    0 -0.15053845592E+03 -0.18483202273E+03  0.64456564442E+03  0.68724934580E+03  0.47000000000E+01 0.  1.
         -5    1    3    3    0  502 -0.49712441930E+02  0.13922426428E+02  0.10866875599E+03  0.12039995585E+03  0.47000000000E+01 0.  1.
        -11    1    4    4    0    0  0.15450043780E+03  0.10043998297E+03  0.76727398374E+03  0.78909311338E+03  0.00000000000E+00 0.  1.
         11    1    4    4    0    0  0.45750460052E+02  0.70469613337E+02  0.17172105546E+03  0.19117319866E+03  0.00000000000E+00 0. -1.
<mgrwt>
<rscale>  0 0.28890556E+03</rscale>
<asrwt>0</asrwt>
<pdfrwt beam="1">  1        2 0.26770342E+00 0.29143667E+03</pdfrwt>
<pdfrwt beam="2">  1       -2 0.73604763E-02 0.29143667E+03</pdfrwt>
<totfact> 0.10952460E+03</totfact>
</mgrwt>
</event>
<event>
 8    1  0.1646661E-005  0.1478320E+03  0.7546771E-02  0.1212579E+00
         -1   -1    0    0    0  501 -0.00000000000E+00  0.00000000000E+00  0.21099801551E+03  0.21099801551E+03  0.00000000000E+00 0.  1.
          1   -1    0    0  501    0  0.00000000000E+00 -0.00000000000E+00 -0.94711176990E+02  0.94711176990E+02  0.00000000000E+00 0. -1.
         23    2    1    2    0    0 -0.78598044208E+02  0.58277488799E+01  0.11083827977E+03  0.18476858447E+03  0.12507074133E+03 0.  0.
         23    2    1    2    0    0  0.78598044208E+02 -0.58277488799E+01  0.54485587541E+01  0.12094060803E+03  0.91571440242E+02 0.  0.
          5    1    3    3  502    0 -0.71056089390E+02  0.54477948209E+02  0.39525941762E+02  0.97985737497E+02  0.47000000000E+01 0. -1.
         -5    1    3    3    0  502 -0.75419548180E+01 -0.48650199329E+02  0.71312338008E+02  0.86782846977E+02  0.47000000000E+01 0. -1.
        -11    1    4    4    0    0  0.55282868620E+02  0.21887610480E+02  0.39375661672E+02  0.71314134556E+02  0.00000000000E+00 0.  1.
         11    1    4    4    0    0  0.23315175589E+02 -0.27715359360E+02 -0.33927102918E+02  0.49626473475E+02  0.00000000000E+00 0. -1.
<mgrwt>
<rscale>  0 0.14055915E+03</rscale>
<asrwt>0</asrwt>
<pdfrwt beam="2">  1        1 0.14570950E-01 0.14783202E+03</pdfrwt>
<pdfrwt beam="1">  1       -1 0.32461233E-01 0.14783202E+03</pdfrwt>
<totfact> 0.33399479E+03</totfact>
</mgrwt>
</event>
<event>
 8    1  0.1646661E-005  0.1254200E+03  0.7546771E-02  0.1250182E+00
         -3   -1    0    0    0  501 -0.00000000000E+00  0.00000000000E+00  0.39558361872E+03  0.39558361872E+03  0.00000000000E+00 0.  1.
          3   -1    0    0  501    0  0.00000000000E+00 -0.00000000000E+00 -0.33163826642E+02  0.33163826642E+02  0.00000000000E+00 0. -1.
         23    2    1    2    0    0  0.85623063871E+01 -0.54549775348E+01  0.27587780839E+03  0.30304906119E+03  0.12500839355E+03 0.  0.
         23    2    1    2    0    0 -0.85623063871E+01  0.54549775348E+01  0.86541983692E+02  0.12569838417E+03  0.90595248065E+02 0.  0.
          5    1    3    3  502    0 -0.34792628120E+02 -0.15907470780E+02  0.24637150279E+03  0.24936836605E+03  0.47000000000E+01 0.  1.
         -5    1    3    3    0  502  0.43354934507E+02  0.10452493245E+02  0.29506305602E+02  0.53680695146E+02  0.47000000000E+01 0.  1.
        -11    1    4    4    0    0 -0.67456165790E+01  0.33826471339E+02  0.90634244479E+02  0.96975769028E+02  0.00000000000E+00 0.  1.
         11    1    4    4    0    0 -0.18166898082E+01 -0.28371493804E+02 -0.40922607862E+01  0.28722615147E+02  0.00000000000E+00 0. -1.
<mgrwt>
<rscale>  0 0.11580541E+03</rscale>
<asrwt>0</asrwt>
<pdfrwt beam="2">  1        3 0.51021275E-02 0.12541997E+03</pdfrwt>
<pdfrwt beam="1">  1       -3 0.60859015E-01 0.12541997E+03</pdfrwt>
<totfact> 0.13394778E+03</totfact>
</mgrwt>
</event>
<event>
 8    1  0.1646661E-005  0.1300854E+03  0.7546771E-02  0.1239772E+00
         -1   -1    0    0    0  501 -0.00000000000E+00  0.00000000000E+00  0.34242783078E+03  0.34242783078E+03  0.00000000000E+00 0.  1.
          1   -1    0    0  501    0  0.00000000000E+00 -0.00000000000E+00 -0.57369967258E+02  0.57369967258E+02  0.00000000000E+00 0. -1.
         23    2    1    2    0    0 -0.32464043962E+02 -0.17115271562E+02  0.26758792157E+03  0.29753238187E+03  0.12480134544E+03 0.  0.
         23    2    1    2    0    0  0.32464043962E+02  0.17115271562E+02  0.17469941953E+02  0.10226541616E+03  0.93841194579E+02 0.  0.
          5    1    3    3  502    0  0.31755700924E+02 -0.36235778536E+02  0.18420288309E+03  0.19045799623E+03  0.47000000000E+01 0. -1.
         -5    1    3    3    0  502 -0.64219744887E+02  0.19120506974E+02  0.83385038474E+02  0.10707438565E+03  0.47000000000E+01 0. -1.
        -11    1    4    4    0    0 -0.27975468124E+02  0.27528675273E+02  0.98338652690E+01  0.40461829978E+02  0.00000000000E+00 0.  1.
         11    1    4    4    0    0  0.60439512087E+02 -0.10413403711E+02  0.76360766840E+01  0.61803586184E+02  0.00000000000E+00 0. -1.
<mgrwt>
<rscale>  0 0.12203823E+03</rscale>
<asrwt>0</asrwt>
<pdfrwt beam="2">  1        1 0.88261490E-02 0.13008544E+03</pdfrwt>
<pdfrwt beam="1">  1       -1 0.52681204E-01 0.13008544E+03</pdfrwt>
<totfact> 0.27299313E+03</totfact>
</mgrwt>
</event>
<event>
 7    1  0.1646661E-005  0.4309335E+03  0.7546771E-02  0.1072899E+00
          2   -1    0    0  501    0  0.00000000000E+00  0.00000000000E+00  0.38607149766E+03  0.38607149766E+03  0.00000000000E+00 0. -1.
         -2   -1    0    0    0  501 -0.00000000000E+00 -0.00000000000E+00 -0.32985762596E+03  0.32985762596E+03  0.00000000000E+00 0.  1.
         23    2    1    2    0    0 -0.90831590807E+02 -0.57788413091E+02  0.21452737510E+03  0.25683563022E+03  0.91392930297E+02 0.  0.
          5    1    1    2  502    0  0.23794468653E+03 -0.36204314735E+02 -0.30445593725E+02  0.24264676060E+03  0.47000000000E+01 0. -1.
         -5    1    1    2    0  502 -0.14711309572E+03  0.93992727826E+02 -0.12786790968E+03  0.21644673280E+03  0.47000000000E+01 0.  1.
        -11    1    3    3    0    0 -0.34988734032E+02 -0.12348878313E+02  0.77787830766E+01  0.37910628732E+02  0.00000000000E+00 0. -1.
         11    1    3    3    0    0 -0.55842856775E+02 -0.45439534778E+02  0.20674859202E+03  0.21892500149E+03  0.00000000000E+00 0.  1.
<mgrwt>
<rscale>  0 0.32604704E+03</rscale>
<asrwt>0</asrwt>
<pdfrwt beam="1">  1        2 0.59395615E-01 0.43093349E+03</pdfrwt>
<pdfrwt beam="2">  1       -2 0.50747327E-01 0.43093349E+03</pdfrwt>
<totfact> 0.30941509E+02</totfact>
</mgrwt>
</event>
<event>
 8    1  0.1646661E-005  0.1282488E+03  0.7546771E-02  0.1244709E+00
          1   -1    0    0  501    0  0.00000000000E+00  0.00000000000E+00  0.26214999176E+03  0.26214999176E+03  0.00000000000E+00 0. -1.
         -1   -1    0    0    0  501 -0.00000000000E+00 -0.00000000000E+00 -0.47873733393E+02  0.47873733393E+02  0.00000000000E+00 0.  1.
         23    2    1    2    0    0  0.13687072745E+02 -0.25239442116E+02  0.11124791358E+03  0.16977591926E+03  0.12499359618E+03 0.  0.
         23    2    1    2    0    0 -0.13687072745E+02  0.25239442116E+02  0.10302834479E+03  0.14024780590E+03  0.90720680281E+02 0.  0.
          5    1    3    3  502    0  0.93476367660E+01 -0.76047999054E+02  0.61240958154E+02  0.98199905443E+02  0.47000000000E+01 0.  1.
         -5    1    3    3    0  502  0.43394359789E+01  0.50808556939E+02  0.50006955422E+02  0.71576013813E+02  0.47000000000E+01 0.  1.
        -11    1    4    4    0    0  0.19409128266E+02 -0.26666599801E+02  0.28557736588E+02  0.43627584440E+02  0.00000000000E+00 0.  1.
         11    1    4    4    0    0 -0.33096201011E+02  0.51906041916E+02  0.74470608206E+02  0.96620221462E+02  0.00000000000E+00 0. -1.
<mgrwt>
<rscale>  0 0.11902790E+03</rscale>
<asrwt>0</asrwt>
<pdfrwt beam="1">  1        1 0.40330767E-01 0.12824884E+03</pdfrwt>
<pdfrwt beam="2">  1       -1 0.73651899E-02 0.12824884E+03</pdfrwt>
<totfact> 0.95672359E+03</totfact>
</mgrwt>
</event>
<event>
 8    1  0.1646661E-005  0.2232480E+03  0.7546771E-02  0.1135263E+00
          2   -1    0    0  501    0  0.00000000000E+00  0.00000000000E+00  0.13189273136E+04  0.13189273136E+04  0.00000000000E+00 0. -1.
         -2   -1    0    0    0  501 -0.00000000000E+00 -0.00000000000E+00 -0.35392495516E+02  0.35392495516E+02  0.00000000000E+00 0.  1.
         23    2    1    2    0    0 -0.10923761674E+03  0.14925093960E+03  0.56512264117E+03  0.60762100685E+03  0.12502395179E+03 0.  0.
         23    2    1    2    0    0  0.10923761674E+03 -0.14925093960E+03  0.71841217692E+03  0.74669880228E+03  0.85054955678E+02 0.  0.
          5    1    3    3  502    0 -0.13463502875E+03  0.10050222185E+03  0.42387533821E+03  0.45598210480E+03  0.47000000000E+01 0. -1.
         -5    1    3    3    0  502  0.25397412008E+02  0.48748717748E+02  0.14124730297E+03  0.15163890205E+03  0.47000000000E+01 0. -1.
        -11    1    4    4    0    0  0.94160620321E+02 -0.89167104347E+02  0.35286084508E+03  0.37593586009E+03  0.00000000000E+00 0.  1.
         11    1    4    4    0    0  0.15076996421E+02 -0.60083835249E+02  0.36555133185E+03  0.37076294218E+03  0.00000000000E+00 0. -1.
<mgrwt>
<rscale>  0 0.21815853E+03</rscale>
<asrwt>0</asrwt>
<pdfrwt beam="1">  1        2 0.20291186E+00 0.22324804E+03</pdfrwt>
<pdfrwt beam="2">  1       -2 0.54450003E-02 0.22324804E+03</pdfrwt>
<totfact> 0.29374444E+03</totfact>
</mgrwt>
</event>
<event>
 8    1  0.1646661E-005  0.1861348E+03  0.7546771E-02  0.1167962E+00
          2   -1    0    0  501    0  0.00000000000E+00  0.00000000000E+00  0.11230326520E+04  0.11230326520E+04  0.00000000000E+00 0. -1.
         -2   -1    0    0    0  501 -0.00000000000E+00 -0.00000000000E+00 -0.27010457606E+02  0.27010457606E+02  0.00000000000E+00 0.  1.
         23    2    1    2    0    0  0.12424135651E+03  0.59844865602E+02  0.58185336040E+03  0.61090056751E+03  0.12501539014E+03 0.  0.
         23    2    1    2    0    0 -0.12424135651E+03 -0.59844865602E+02  0.51416883398E+03  0.53914254208E+03  0.85368426455E+02 0.  0.
          5    1    3    3  502    0 -0.23730271140E+02  0.47912253345E+01  0.12781976970E+03  0.13017705303E+03  0.47000000000E+01 0. -1.
         -5    1    3    3    0  502  0.14797162765E+03  0.55053640268E+02  0.45403359070E+03  0.48072351448E+03  0.47000000000E+01 0. -1.
        -11    1    4    4    0    0 -0.58443636543E+02 -0.10785763786E+02  0.95329014939E+02  0.11233704839E+03  0.00000000000E+00 0.  1.
         11    1    4    4    0    0 -0.65797719968E+02 -0.49059101816E+02  0.41883981904E+03  0.42680549368E+03  0.00000000000E+00 0. -1.
<mgrwt>
<rscale>  0 0.17983561E+03</rscale>
<asrwt>0</asrwt>
<pdfrwt beam="1">  1        2 0.17277422E+00 0.18613482E+03</pdfrwt>
<pdfrwt beam="2">  1       -2 0.41554559E-02 0.18613482E+03</pdfrwt>
<totfact> 0.56730652E+03</totfact>
</mgrwt>
</event>
<event>
 8    1  0.1646661E-005  0.1490424E+03  0.7546771E-02  0.1210678E+00
         -2   -1    0    0    0  501 -0.00000000000E+00  0.00000000000E+00  0.93941705158E+02  0.93941705158E+02  0.00000000000E+00 0.  1.
          2   -1    0    0  501    0  0.00000000000E+00 -0.00000000000E+00 -0.21242691326E+03  0.21242691326E+03  0.00000000000E+00 0. -1.
         23    2    1    2    0    0 -0.32694380554E+02 -0.74308318498E+02 -0.22928423999E+02  0.15079576635E+03  0.12499200696E+03 0.  0.
         23    2    1    2    0    0  0.32694380554E+02  0.74308318498E+02 -0.95556784098E+02  0.15557285207E+03  0.92093238597E+02 0.  0.
          5    1    3    3  502    0 -0.62748460811E+01 -0.80268476654E+02 -0.62904211298E+02  0.10228114116E+03  0.47000000000E+01 0.  1.
         -5    1    3    3    0  502 -0.26419534473E+02  0.59601581555E+01  0.39975787298E+02  0.48514625188E+02  0.47000000000E+01 0.  1.
        -11    1    4    4    0    0 -0.29567244756E+02  0.44788880203E+02 -0.46196978320E+02  0.70812615812E+02  0.00000000000E+00 0.  1.
         11    1    4    4    0    0  0.62261625310E+02  0.29519438295E+02 -0.49359805777E+02  0.84760236254E+02  0.00000000000E+00 0. -1.
<mgrwt>
<rscale>  0 0.14198850E+03</rscale>
<asrwt>0</asrwt>
<pdfrwt beam="2">  1        2 0.32681063E-01 0.14904245E+03</pdfrwt>
<pdfrwt beam="1">  1       -2 0.14452570E-01 0.14904245E+03</pdfrwt>
<totfact> 0.55764662E+03</totfact>
</mgrwt>
</event>
<event>
 7    1  0.1646661E-005  0.1850992E+03  0.7546771E-02  0.1179694E+00
         -3   -1    0    0    0  501 -0.00000000000E+00  0.00000000000E+00  0.12501053663E+03  0.12501053663E+03  0.00000000000E+00 0.  1.
          3   -1    0    0  501    0  0.00000000000E+00 -0.00000000000E+00 -0.28238686020E+03  0.28238686020E+03  0.00000000000E+00 0. -1.
         23    2    1    2    0    0 -0.84043785750E+02 -0.85754412000E+01 -0.18107217687E+03  0.22078758999E+03  0.93931520485E+02 0.  0.
          5    1    1    2  502    0 -0.23758215210E+02  0.59543690872E+02 -0.28997258158E+01  0.64345958089E+02  0.47000000000E+01 0. -1.
         -5    1    1    2    0  502  0.10780200096E+03 -0.50968249672E+02  0.26595579115E+02  0.12226384876E+03  0.47000000000E+01 0.  1.
        -11    1    3    3    0    0 -0.79483278121E+02  0.26426053763E+02 -0.89172446517E+02  0.12234235994E+03  0.00000000000E+00 0. -1.
         11    1    3    3    0    0 -0.45605076290E+01 -0.35001494963E+02 -0.91899730354E+02  0.98445230045E+02  0.00000000000E+00 0.  1.
<mgrwt>
<rscale>  0 0.16824132E+03</rscale>
<asrwt>0</asrwt>
<pdfrwt beam="2">  1        3 0.43444132E-01 0.18509923E+03</pdfrwt>
<pdfrwt beam="1">  1       -3 0.19232390E-01 0.18509923E+03</pdfrwt>
<totfact> 0.30775052E+02</totfact>
</mgrwt>
</event>
<event>
 8    1  0.1646661E-005  0.1283350E+03  0.7546771E-02  0.1244042E+00
          2   -1    0    0  501    0  0.00000000000E+00  0.00000000000E+00  0.36076969439E+03  0.36076969439E+03  0.00000000000E+00 0. -1.
         -2   -1    0    0    0  501 -0.00000000000E+00 -0.00000000000E+00 -0.39046380706E+02  0.39046380706E+02  0.00000000000E+00 0.  1.
         23    2    1    2    0    0 -0.24310438532E+02  0.15872246138E+02  0.11729375185E+03  0.17386110815E+03  0.12500774010E+03 0.  0.
         23    2    1    2    0    0  0.24310438532E+02 -0.15872246138E+02  0.20442956183E+03  0.22595496695E+03  0.91767509053E+02 0.  0.
          5    1    3    3  502    0 -0.27398677486E+02  0.51664269714E+02  0.12384860718E+03  0.13704178849E+03  0.47000000000E+01 0. -1.
         -5    1    3    3    0  502  0.30882389543E+01 -0.35792023576E+02 -0.65548553287E+01  0.36819319656E+02  0.47000000000E+01 0. -1.
        -11    1    4    4    0    0 -0.19681622875E+02 -0.13002258834E+02  0.84162190699E+01  0.25045114438E+02  0.00000000000E+00 0.  1.
         11    1    4    4    0    0  0.43992061407E+02 -0.28699873036E+01  0.19601334276E+03  0.20090985251E+03  0.00000000000E+00 0. -1.
<mgrwt>
<rscale>  0 0.11942898E+03</rscale>
<asrwt>0</asrwt>
<pdfrwt beam="1">  1        2 0.55503028E-01 0.12833496E+03</pdfrwt>
<pdfrwt beam="2">  1       -2 0.60071357E-02 0.12833496E+03</pdfrwt>
<totfact> 0.12417643E+04</totfact>
</mgrwt>
</event>
<event>
 8    1  0.1646661E-005  0.1336208E+03  0.7546771E-02  0.1235193E+00
          1   -1    0    0  501    0  0.00000000000E+00  0.00000000000E+00  0.54348966867E+03  0.54348966867E+03  0.00000000000E+00 0. -1.
         -1   -1    0    0    0  501 -0.00000000000E+00 -0.00000000000E+00 -0.25839430415E+02  0.25839430415E+02  0.00000000000E+00 0.  1.
         23    2    1    2    0    0  0.23458370960E+02  0.40981197628E+02  0.26340380661E+03  0.29535757224E+03  0.12499910565E+03 0.  0.
         23    2    1    2    0    0 -0.23458370960E+02 -0.40981197628E+02  0.25424643164E+03  0.27397152685E+03  0.90495280504E+02 0.  0.
          5    1    3    3  502    0 -0.29936206578E+02  0.19198976468E+02  0.22031794758E+03  0.22321932082E+03  0.47000000000E+01 0.  1.
         -5    1    3    3    0  502  0.53394577537E+02  0.21782221160E+02  0.43085859034E+02  0.72138251419E+02  0.47000000000E+01 0.  1.
        -11    1    4    4    0    0 -0.10474960531E+02  0.25148083026E+02  0.12796779382E+03  0.13083542003E+03  0.00000000000E+00 0.  1.
         11    1    4    4    0    0 -0.12983410429E+02 -0.66129280654E+02  0.12627863782E+03  0.14313610682E+03  0.00000000000E+00 0. -1.
<mgrwt>
<rscale>  0 0.12492078E+03</rscale>
<asrwt>0</asrwt>
<pdfrwt beam="1">  1        1 0.83613787E-01 0.13362084E+03</pdfrwt>
<pdfrwt beam="2">  1       -1 0.39752974E-02 0.13362084E+03</pdfrwt>
<totfact> 0.95444106E+03</totfact>
</mgrwt>
</event>
<event>
 8    1  0.1646661E-005  0.1660239E+03  0.7546771E-02  0.1188925E+00
         -3   -1    0    0    0  501 -0.00000000000E+00  0.00000000000E+00  0.10678076959E+04  0.10678076959E+04  0.00000000000E+00 0.  1.
          3   -1    0    0  501    0  0.00000000000E+00 -0.00000000000E+00 -0.22874869889E+02  0.22874869889E+02  0.00000000000E+00 0. -1.
         23    2    1    2    0    0  0.10704030762E+03  0.21954321728E+02  0.64872531390E+03  0.66963307452E+03  0.12499720754E+03 0.  0.
         23    2    1    2    0    0 -0.10704030762E+03 -0.21954321728E+02  0.39620751207E+03  0.42104949123E+03  0.91447590182E+02 0.  0.
          5    1    3    3  502    0  0.86439875464E+02  0.23109029955E+02  0.18632273838E+03  0.20674654089E+03  0.47000000000E+01 0. -1.
         -5    1    3    3    0  502  0.20600432151E+02 -0.11547082270E+01  0.46240257553E+03  0.46288653362E+03  0.47000000000E+01 0. -1.
        -11    1    4    4    0    0 -0.93271424239E+01 -0.21576230027E+02  0.15872894113E+02  0.28363322363E+02  0.00000000000E+00 0. -1.
         11    1    4    4    0    0 -0.97713165191E+02 -0.37809170083E+00  0.38033461795E+03  0.39268616887E+03  0.00000000000E+00 0.  1.
<mgrwt>
<rscale>  0 0.15979787E+03</rscale>
<asrwt>0</asrwt>
<pdfrwt beam="2">  1        3 0.35192116E-02 0.16602386E+03</pdfrwt>
<pdfrwt beam="1">  1       -3 0.16427807E+00 0.16602386E+03</pdfrwt>
<totfact> 0.25831782E+02</totfact>
</mgrwt>
</event>
<event>
 8    1  0.1646661E-005  0.1496847E+03  0.7546771E-02  0.1210160E+00
          2   -1    0    0  501    0  0.00000000000E+00  0.00000000000E+00  0.63246109482E+02  0.63246109482E+02  0.00000000000E+00 0. -1.
         -2   -1    0    0    0  501 -0.00000000000E+00 -0.00000000000E+00 -0.32516499977E+03  0.32516499977E+03  0.00000000000E+00 0.  1.
         23    2    1    2    0    0 -0.57662411355E+02  0.58783811544E+02 -0.20359245714E+03  0.25269624651E+03  0.12500005685E+03 0.  0.
         23    2    1    2    0    0  0.57662411355E+02 -0.58783811544E+02 -0.58326433144E+02  0.13571486274E+03  0.90752746416E+02 0.  0.
          5    1    3    3  502    0 -0.71752272869E+02  0.45216860494E+02 -0.51616523945E+02  0.99394711524E+02  0.47000000000E+01 0. -1.
         -5    1    3    3    0  502  0.14089861513E+02  0.13566951050E+02 -0.15197593320E+03  0.15330153499E+03  0.47000000000E+01 0. -1.
        -11    1    4    4    0    0 -0.21416516456E+02 -0.67205781495E+01  0.33849573202E+01  0.22700028278E+02  0.00000000000E+00 0. -1.
         11    1    4    4    0    0  0.79078927811E+02 -0.52063233394E+02 -0.61711390464E+02  0.11301483446E+03  0.00000000000E+00 0.  1.
<mgrwt>
<rscale>  0 0.14238174E+03</rscale>
<asrwt>0</asrwt>
<pdfrwt beam="1">  1        2 0.97301709E-02 0.14968468E+03</pdfrwt>
<pdfrwt beam="2">  1       -2 0.50025384E-01 0.14968468E+03</pdfrwt>
<totfact> 0.24633457E+03</totfact>
</mgrwt>
</event>
<event>
 8    1  0.1646661E-005  0.1362302E+03  0.7546771E-02  0.1231910E+00
         -1   -1    0    0    0  501 -0.00000000000E+00  0.00000000000E+00  0.26553704234E+02  0.26553704234E+02  0.00000000000E+00 0.  1.
          1   -1    0    0  501    0  0.00000000000E+00 -0.00000000000E+00 -0.54934272709E+03  0.54934272709E+03  0.00000000000E+00 0. -1.
         23    2    1    2    0    0  0.29031518878E+02  0.45724790910E+02 -0.33613702761E+03  0.36269377622E+03  0.12500035354E+03 0.  0.
         23    2    1    2    0    0 -0.29031518878E+02 -0.45724790910E+02 -0.18665199524E+03  0.21320265510E+03  0.87651692638E+02 0.  0.
          5    1    3    3  502    0  0.39538958624E+02  0.48126909744E+02 -0.61006706999E+02  0.87312295752E+02  0.47000000000E+01 0. -1.
         -5    1    3    3    0  502 -0.10507439746E+02 -0.24021188335E+01 -0.27513032062E+03  0.27538148047E+03  0.47000000000E+01 0. -1.
        -11    1    4    4    0    0 -0.15111128600E+01  0.26083297810E+02 -0.46196258146E+02  0.53072743979E+02  0.00000000000E+00 0.  1.
         11    1    4    4    0    0 -0.27520406018E+02 -0.71808088720E+02 -0.14045573710E+03  0.16012991112E+03  0.00000000000E+00 0. -1.
<mgrwt>
<rscale>  0 0.12704345E+03</rscale>
<asrwt>0</asrwt>
<pdfrwt beam="2">  1        1 0.84514262E-01 0.13623022E+03</pdfrwt>
<pdfrwt beam="1">  1       -1 0.40851855E-02 0.13623022E+03</pdfrwt>
<totfact> 0.90517737E+03</totfact>
</mgrwt>
</event>
<event>
 8    1  0.1646661E-005  0.1496126E+03  0.7546771E-02  0.1210418E+00
         -2   -1    0    0    0  501 -0.00000000000E+00  0.00000000000E+00  0.38578609562E+02  0.38578609562E+02  0.00000000000E+00 0.  1.
          2   -1    0    0  501    0  0.00000000000E+00 -0.00000000000E+00 -0.47954642125E+03  0.47954642125E+03  0.00000000000E+00 0. -1.
         23    2    1    2    0    0  0.64942018774E+02  0.50415564798E+02 -0.22929218023E+03  0.27378611883E+03  0.12499895987E+03 0.  0.
         23    2    1    2    0    0 -0.64942018774E+02 -0.50415564798E+02 -0.21167563145E+03  0.24433891199E+03  0.90198314744E+02 0.  0.
          5    1    3    3  502    0 -0.27978606489E+02 -0.14119379095E+01 -0.10202268129E+02  0.30182317086E+02  0.47000000000E+01 0. -1.
         -5    1    3    3    0  502  0.92920625263E+02  0.51827502707E+02 -0.21908991211E+03  0.24360380174E+03  0.47000000000E+01 0. -1.
        -11    1    4    4    0    0 -0.19175843154E+02  0.23175991636E+02 -0.90462489852E+02  0.95332584247E+02  0.00000000000E+00 0. -1.
         11    1    4    4    0    0 -0.45766175620E+02 -0.73591556434E+02 -0.12121314160E+03  0.14900632774E+03  0.00000000000E+00 0.  1.
<mgrwt>
<rscale>  0 0.14218572E+03</rscale>
<asrwt>0</asrwt>
<pdfrwt beam="2">  1        2 0.73776377E-01 0.14961262E+03</pdfrwt>
<pdfrwt beam="1">  1       -2 0.59351703E-02 0.14961262E+03</pdfrwt>
<totfact> 0.94178888E+03</totfact>
</mgrwt>
</event>
<event>
 8    1  0.1646661E-005  0.1326809E+03  0.7546771E-02  0.1236237E+00
         -3   -1    0    0    0  501 -0.00000000000E+00  0.00000000000E+00  0.58768710968E+03  0.58768710968E+03  0.00000000000E+00 0.  1.
          3   -1    0    0  501    0  0.00000000000E+00 -0.00000000000E+00 -0.23797420470E+02  0.23797420470E+02  0.00000000000E+00 0. -1.
         23    2    1    2    0    0  0.40709775435E+02 -0.18001531680E+02  0.35533210711E+03  0.37929557296E+03  0.12499153717E+03 0.  0.
         23    2    1    2    0    0 -0.40709775435E+02  0.18001531680E+02  0.20855758211E+03  0.23218895720E+03  0.91837387986E+02 0.  0.
          5    1    3    3  502    0  0.81481561880E+02 -0.28095354569E+02  0.19071155292E+03  0.20933604632E+03  0.47000000000E+01 0.  1.
         -5    1    3    3    0  502 -0.40771786445E+02  0.10093822888E+02  0.16462055419E+03  0.16995952663E+03  0.47000000000E+01 0.  1.
        -11    1    4    4    0    0 -0.32256772184E+01 -0.25658642263E+02  0.14142164863E+03  0.14376666379E+03  0.00000000000E+00 0.  1.
         11    1    4    4    0    0 -0.37484098216E+02  0.43660173943E+02  0.67135933477E+02  0.88422293408E+02  0.00000000000E+00 0. -1.
<mgrwt>
<rscale>  0 0.12425563E+03</rscale>
<asrwt>0</asrwt>
<pdfrwt beam="2">  1        3 0.36611421E-02 0.13268092E+03</pdfrwt>
<pdfrwt beam="1">  1       -3 0.90413390E-01 0.13268092E+03</pdfrwt>
<totfact> 0.97612649E+02</totfact>
</mgrwt>
</event>
<event>
 8    1  0.1646661E-005  0.1380272E+03  0.7546771E-02  0.1227590E+00
         -1   -1    0    0    0  501 -0.00000000000E+00  0.00000000000E+00  0.84975353947E+03  0.84975353947E+03  0.00000000000E+00 0.  1.
          1   -1    0    0  501    0  0.00000000000E+00 -0.00000000000E+00 -0.21429560511E+02  0.21429560511E+02  0.00000000000E+00 0. -1.
         23    2    1    2    0    0  0.32680826017E+02  0.48525166458E+02  0.63266189085E+03  0.64754348366E+03  0.12501506680E+03 0.  0.
         23    2    1    2    0    0 -0.32680826017E+02 -0.48525166458E+02  0.19566208811E+03  0.22363961632E+03  0.91149860647E+02 0.  0.
          5    1    3    3  502    0  0.16370757408E+02  0.37767881623E+02  0.51783910909E+02  0.66318006675E+02  0.47000000000E+01 0.  1.
         -5    1    3    3    0  502  0.16310068608E+02  0.10757284836E+02  0.58087797995E+03  0.58122547699E+03  0.47000000000E+01 0.  1.
        -11    1    4    4    0    0 -0.38276838787E+02  0.16926733092E+02  0.89407106966E+02  0.98718090828E+02  0.00000000000E+00 0.  1.
         11    1    4    4    0    0  0.55960127700E+01 -0.65451899551E+02  0.10625498114E+03  0.12492152549E+03  0.00000000000E+00 0. -1.
<mgrwt>
<rscale>  0 0.12990935E+03</rscale>
<asrwt>0</asrwt>
<pdfrwt beam="2">  1        1 0.32968561E-02 0.13802715E+03</pdfrwt>
<pdfrwt beam="1">  1       -1 0.13073129E+00 0.13802715E+03</pdfrwt>
<totfact> 0.15621773E+03</totfact>
</mgrwt>
</event>
<event>
 8    1  0.1646661E-005  0.1578621E+03  0.7546771E-02  0.1198477E+00
         -2   -1    0    0    0  501 -0.00000000000E+00  0.00000000000E+00  0.11248614046E+03  0.11248614046E+03  0.00000000000E+00 0.  1.
          2   -1    0    0  501    0  0.00000000000E+00 -0.00000000000E+00 -0.18983290212E+03  0.18983290212E+03  0.00000000000E+00 0. -1.
         23    2    1    2    0    0  0.87402204698E+02  0.40681536653E+02 -0.41289945476E+02  0.16317260077E+03  0.12500522082E+03 0.  0.
         23    2    1    2    0    0 -0.87402204698E+02 -0.40681536653E+02 -0.36056816181E+02  0.13914644182E+03  0.93634958570E+02 0.  0.
          5    1    3    3  502    0  0.91179176290E+02  0.65506064854E+02  0.25891005729E+01  0.11239875517E+03  0.47000000000E+01 0. -1.
         -5    1    3    3    0  502 -0.37769715915E+01 -0.24824528201E+02 -0.43879046049E+02  0.50773845600E+02  0.47000000000E+01 0. -1.
        -11    1    4    4    0    0 -0.36516423542E+02  0.29922167866E+02 -0.95184061985E+01  0.48159997661E+02  0.00000000000E+00 0.  1.
         11    1    4    4    0    0 -0.50885781156E+02 -0.70603704519E+02 -0.26538409982E+02  0.90986444155E+02  0.00000000000E+00 0. -1.
<mgrwt>
<rscale>  0 0.15163624E+03</rscale>
<asrwt>0</asrwt>
<pdfrwt beam="2">  1        2 0.29205062E-01 0.15786209E+03</pdfrwt>
<pdfrwt beam="1">  1       -2 0.17305560E-01 0.15786209E+03</pdfrwt>
<totfact> 0.46972871E+03</totfact>
</mgrwt>
</event>
<event>
 8    1  0.1646661E-005  0.2888414E+03  0.7546771E-02  0.1092691E+00
         -4   -1    0    0    0  501 -0.00000000000E+00  0.00000000000E+00  0.77795189195E+03  0.77795189195E+03  0.00000000000E+00 0.  1.
          4   -1    0    0  501    0  0.00000000000E+00 -0.00000000000E+00 -0.10970477663E+03  0.10970477663E+03  0.00000000000E+00 0. -1.
         23    2    1    2    0    0  0.84973097377E+02 -0.24613763166E+03  0.45493581324E+03  0.53888398861E+03  0.12500079207E+03 0.  0.
         23    2    1    2    0    0 -0.84973097377E+02  0.24613763166E+03  0.21331130208E+03  0.34877267997E+03  0.91304488954E+02 0.  0.
          5    1    3    3  502    0  0.70030000404E+02 -0.23134857701E+03  0.45723772604E+03  0.51721832252E+03  0.47000000000E+01 0. -1.
         -5    1    3    3    0  502  0.14943096973E+02 -0.14789054649E+02 -0.23019127977E+01  0.21665666089E+02  0.47000000000E+01 0. -1.
        -11    1    4    4    0    0 -0.56681011958E+02  0.49028887991E+02  0.40912169691E+02  0.85383690498E+02  0.00000000000E+00 0.  1.
         11    1    4    4    0    0 -0.28292085419E+02  0.19710874367E+03  0.17239913239E+03  0.26338898947E+03  0.00000000000E+00 0. -1.
<mgrwt>
<rscale>  0 0.28555954E+03</rscale>
<asrwt>0</asrwt>
<pdfrwt beam="2">  1        4 0.16877658E-01 0.28884141E+03</pdfrwt>
<pdfrwt beam="1">  1       -4 0.11968490E+00 0.28884141E+03</pdfrwt>
<totfact> 0.31429554E+01</totfact>
</mgrwt>
</event>
<event>
 8    1  0.1646661E-005  0.1558713E+03  0.7546771E-02  0.1201723E+00
          1   -1    0    0  501    0  0.00000000000E+00  0.00000000000E+00  0.69207612204E+03  0.69207612204E+03  0.00000000000E+00 0. -1.
         -1   -1    0    0    0  501 -0.00000000000E+00 -0.00000000000E+00 -0.36135314837E+02  0.36135314837E+02  0.00000000000E+00 0.  1.
         23    2    1    2    0    0 -0.26698989260E+02 -0.89203894929E+02  0.19712415481E+03  0.25130419098E+03  0.12500277235E+03 0.  0.
         23    2    1    2    0    0  0.26698989260E+02  0.89203894929E+02  0.45881665240E+03  0.47690724590E+03  0.90871501491E+02 0.  0.
          5    1    3    3  502    0  0.18578978821E+02 -0.61368193023E+02  0.18600251454E+03  0.19680004823E+03  0.47000000000E+01 0.  1.
         -5    1    3    3    0  502 -0.45277968081E+02 -0.27835701906E+02  0.11121640273E+02  0.54504142746E+02  0.47000000000E+01 0.  1.
        -11    1    4    4    0    0 -0.29140737014E+02  0.12574313929E+02  0.16962528545E+03  0.17256892359E+03  0.00000000000E+00 0. -1.
         11    1    4    4    0    0  0.55839726273E+02  0.76629581000E+02  0.28919136694E+03  0.30433832231E+03  0.00000000000E+00 0.  1.
<mgrwt>
<rscale>  0 0.14898745E+03</rscale>
<asrwt>0</asrwt>
<pdfrwt beam="1">  1        1 0.10647324E+00 0.15587131E+03</pdfrwt>
<pdfrwt beam="2">  1       -1 0.55592797E-02 0.15587131E+03</pdfrwt>
<totfact> 0.42041252E+03</totfact>
</mgrwt>
</event>
<event>
 8    1  0.1646661E-005  0.2526767E+03  0.7546771E-02  0.1113984E+00
          2   -1    0    0  501    0  0.00000000000E+00  0.00000000000E+00  0.21226641849E+03  0.21226641849E+03  0.00000000000E+00 0. -1.
         -2   -1    0    0    0  501 -0.00000000000E+00 -0.00000000000E+00 -0.28388644280E+03  0.28388644280E+03  0.00000000000E+00 0.  1.
         23    2    1    2    0    0 -0.13531686515E+03  0.17294176294E+03 -0.28708649550E+02  0.25430234082E+03  0.12500394643E+03 0.  0.
         23    2    1    2    0    0  0.13531686515E+03 -0.17294176294E+03 -0.42911374757E+02  0.24185052047E+03  0.91819283402E+02 0.  0.
          5    1    3    3  502    0 -0.30527318655E+02  0.51420975765E+02 -0.66321109289E+02  0.89423785819E+02  0.47000000000E+01 0. -1.
         -5    1    3    3    0  502 -0.10478954650E+03  0.12152078718E+03  0.37612459739E+02  0.16487855500E+03  0.47000000000E+01 0. -1.
        -11    1    4    4    0    0 -0.31099081267E+01 -0.43881915975E+02 -0.27691790226E+02  0.51982009620E+02  0.00000000000E+00 0.  1.
         11    1    4    4    0    0  0.13842677328E+03 -0.12905984697E+03 -0.15219584531E+02  0.18986851085E+03  0.00000000000E+00 0. -1.
<mgrwt>
<rscale>  0 0.24892821E+03</rscale>
<asrwt>0</asrwt>
<pdfrwt beam="1">  1        2 0.32656372E-01 0.25267666E+03</pdfrwt>
<pdfrwt beam="2">  1       -2 0.43674837E-01 0.25267666E+03</pdfrwt>
<totfact> 0.80266471E+02</totfact>
</mgrwt>
</event>
<event>
 8    1  0.1646661E-005  0.1471435E+03  0.7546771E-02  0.1211746E+00
          1   -1    0    0  501    0  0.00000000000E+00  0.00000000000E+00  0.14741160355E+03  0.14741160355E+03  0.00000000000E+00 0. -1.
         -1   -1    0    0    0  501 -0.00000000000E+00 -0.00000000000E+00 -0.13524840012E+03  0.13524840012E+03  0.00000000000E+00 0.  1.
         23    2    1    2    0    0 -0.17919057488E+01 -0.77612193310E+02 -0.31589879277E+02  0.15049631207E+03  0.12499742397E+03 0.  0.
         23    2    1    2    0    0  0.17919057488E+01  0.77612193310E+02  0.43753082711E+02  0.13216369160E+03  0.97601463375E+02 0.  0.
          5    1    3    3  502    0 -0.38375750935E+02 -0.19521949119E+02 -0.61701412250E+02  0.75385403301E+02  0.47000000000E+01 0.  1.
         -5    1    3    3    0  502  0.36583845186E+02 -0.58090244192E+02  0.30111532973E+02  0.75110908774E+02  0.47000000000E+01 0.  1.
        -11    1    4    4    0    0  0.18539087597E+02 -0.17601885498E+02 -0.11044334176E+01  0.25587964264E+02  0.00000000000E+00 0.  1.
         11    1    4    4    0    0 -0.16747181848E+02  0.95214078809E+02  0.44857516128E+02  0.10657572733E+03  0.00000000000E+00 0. -1.
<mgrwt>
<rscale>  0 0.14118298E+03</rscale>
<asrwt>0</asrwt>
<pdfrwt beam="1">  1        1 0.22678708E-01 0.14714353E+03</pdfrwt>
<pdfrwt beam="2">  1       -1 0.20807446E-01 0.14714353E+03</pdfrwt>
<totfact> 0.39536649E+03</totfact>
</mgrwt>
</event>
<event>
 7    1  0.1646661E-005  0.1529369E+03  0.7546771E-02  0.1210564E+00
          1   -1    0    0  501    0  0.00000000000E+00  0.00000000000E+00  0.52119882085E+03  0.52119882085E+03  0.00000000000E+00 0. -1.
         -1   -1    0    0    0  501 -0.00000000000E+00 -0.00000000000E+00 -0.49294760733E+02  0.49294760733E+02  0.00000000000E+00 0.  1.
         23    2    1    2    0    0 -0.61955901801E+01 -0.66311573806E+02  0.36894963300E+03  0.38613172262E+03  0.92402734614E+02 0.  0.
          5    1    1    2  502    0  0.42319689411E+01  0.50041206316E+02  0.13716139582E+03  0.14614161075E+03  0.47000000000E+01 0. -1.
         -5    1    1    2    0  502  0.19636212390E+01  0.16270367491E+02 -0.34206968693E+02  0.38220248218E+02  0.47000000000E+01 0.  1.
        -11    1    3    3    0    0  0.38786478357E+02 -0.70893819672E+01  0.12003315066E+03  0.12634321310E+03  0.00000000000E+00 0.  1.
         11    1    3    3    0    0 -0.44982068537E+02 -0.59222191839E+02  0.24891648234E+03  0.25978850951E+03  0.00000000000E+00 0. -1.
<mgrwt>
<rscale>  0 0.14207505E+03</rscale>
<asrwt>0</asrwt>
<pdfrwt beam="1">  1        1 0.80184430E-01 0.15293685E+03</pdfrwt>
<pdfrwt beam="2">  1       -1 0.75838097E-02 0.15293685E+03</pdfrwt>
<totfact> 0.38895691E+03</totfact>
</mgrwt>
</event>
<event>
 8    1  0.1646661E-005  0.1407759E+03  0.7546771E-02  0.1224121E+00
         -1   -1    0    0    0  501 -0.00000000000E+00  0.00000000000E+00  0.12086413343E+02  0.12086413343E+02  0.00000000000E+00 0.  1.
          1   -1    0    0  501    0  0.00000000000E+00 -0.00000000000E+00 -0.12979687257E+04  0.12979687257E+04  0.00000000000E+00 0. -1.
         23    2    1    2    0    0 -0.64683180193E+02 -0.29769807404E+01 -0.72133878262E+03  0.73494727860E+03  0.12500034719E+03 0.  0.
         23    2    1    2    0    0  0.64683180193E+02  0.29769807404E+01 -0.56454352974E+03  0.57510786044E+03  0.88582605290E+02 0.  0.
          5    1    3    3  502    0 -0.12601677207E+02  0.30549402389E+02 -0.57503129898E+03  0.57599926481E+03  0.47000000000E+01 0.  1.
         -5    1    3    3    0  502 -0.52081502986E+02 -0.33526383129E+02 -0.14630748364E+03  0.15894801379E+03  0.47000000000E+01 0.  1.
        -11    1    4    4    0    0  0.78132254164E+02 -0.19392593579E+02 -0.47737893913E+03  0.48411917268E+03  0.00000000000E+00 0. -1.
         11    1    4    4    0    0 -0.13449073971E+02  0.22369574319E+02 -0.87164590605E+02  0.90988687765E+02  0.00000000000E+00 0.  1.
<mgrwt>
<rscale>  0 0.13227357E+03</rscale>
<asrwt>0</asrwt>
<pdfrwt beam="2">  1        1 0.19968756E+00 0.14077593E+03</pdfrwt>
<pdfrwt beam="1">  1       -1 0.18594476E-02 0.14077593E+03</pdfrwt>
<totfact> 0.72920560E+03</totfact>
</mgrwt>
</event>
<event>
 7    1  0.1646661E-005  0.4242731E+03  0.7546771E-02  0.1035684E+00
          1   -1    0    0  501    0  0.00000000000E+00  0.00000000000E+00  0.91424416868E+03  0.91424416868E+03  0.00000000000E+00 0. -1.
         -1   -1    0    0    0  501 -0.00000000000E+00 -0.00000000000E+00 -0.49223071288E+02  0.49223071288E+02  0.00000000000E+00 0.  1.
         23    2    1    2    0    0 -0.75471254714E+02 -0.64603048431E+02  0.50798185035E+03  0.52481715387E+03  0.86706519686E+02 0.  0.
          5    1    1    2  502    0 -0.58868136742E+02  0.38659435485E+02  0.26363321399E+03  0.27291861607E+03  0.47000000000E+01 0. -1.
         -5    1    1    2    0  502  0.13433939146E+03  0.25943612946E+02  0.93406033051E+02  0.16573147003E+03  0.47000000000E+01 0.  1.
        -11    1    3    3    0    0 -0.20110481773E+02  0.16929492833E+02  0.51534727165E+02  0.57852115853E+02  0.00000000000E+00 0.  1.
         11    1    3    3    0    0 -0.55360772941E+02 -0.81532541264E+02  0.45644712318E+03  0.46696503801E+03  0.00000000000E+00 0. -1.
<mgrwt>
<rscale>  0 0.42427305E+03</rscale>
<asrwt>0</asrwt>
<pdfrwt beam="1">  1        1 0.14065294E+00 0.42427305E+03</pdfrwt>
<pdfrwt beam="2">  1       -1 0.75727809E-02 0.42427305E+03</pdfrwt>
<totfact> 0.17446623E+03</totfact>
</mgrwt>
</event>
<event>
 8    1  0.1646661E-005  0.1365259E+03  0.7546771E-02  0.1229619E+00
          1   -1    0    0  501    0  0.00000000000E+00  0.00000000000E+00  0.21699763648E+03  0.21699763648E+03  0.00000000000E+00 0. -1.
         -1   -1    0    0    0  501 -0.00000000000E+00 -0.00000000000E+00 -0.76073707112E+02  0.76073707112E+02  0.00000000000E+00 0.  1.
         23    2    1    2    0    0 -0.50453772576E+02 -0.23454936323E+02  0.32136993834E+02  0.14025725663E+03  0.12467395261E+03 0.  0.
         23    2    1    2    0    0  0.50453772576E+02  0.23454936323E+02  0.10878693553E+03  0.15281408696E+03  0.91770532449E+02 0.  0.
          5    1    3    3  502    0 -0.17020510874E+02 -0.69759168445E+02 -0.47336774054E+01  0.72114749353E+02  0.47000000000E+01 0.  1.
         -5    1    3    3    0  502 -0.33433261702E+02  0.46304232122E+02  0.36870671239E+02  0.68142507278E+02  0.47000000000E+01 0.  1.
        -11    1    4    4    0    0 -0.30988403450E+01  0.21369225159E+02 -0.90111710924E+01  0.23397602438E+02  0.00000000000E+00 0.  1.
         11    1    4    4    0    0  0.53552612921E+02  0.20857111633E+01  0.11779810663E+03  0.12941648452E+03  0.00000000000E+00 0. -1.
<mgrwt>
<rscale>  0 0.12855270E+03</rscale>
<asrwt>0</asrwt>
<pdfrwt beam="1">  1        1 0.33384251E-01 0.13652586E+03</pdfrwt>
<pdfrwt beam="2">  1       -1 0.11703647E-01 0.13652586E+03</pdfrwt>
<totfact> 0.60059992E+03</totfact>
</mgrwt>
</event>
<event>
 8    1  0.1646661E-005  0.1422265E+03  0.7546771E-02  0.1222130E+00
         -1   -1    0    0    0  501 -0.00000000000E+00  0.00000000000E+00  0.80319203920E+02  0.80319203920E+02  0.00000000000E+00 0.  1.
          1   -1    0    0  501    0  0.00000000000E+00 -0.00000000000E+00 -0.20792909856E+03  0.20792909856E+03  0.00000000000E+00 0. -1.
         23    2    1    2    0    0 -0.19174018802E+02  0.65078069008E+02 -0.42510064853E+02  0.14844349723E+03  0.12500227275E+03 0.  0.
         23    2    1    2    0    0  0.19174018802E+02 -0.65078069008E+02 -0.85099829786E+02  0.13980480525E+03  0.87753088142E+02 0.  0.
          5    1    3    3  502    0  0.41828266577E+01  0.74701822276E+02 -0.75654038669E+02  0.10650578321E+03  0.47000000000E+01 0.  1.
         -5    1    3    3    0  502 -0.23356845460E+02 -0.96237532674E+01  0.33143973816E+02  0.41937714019E+02  0.47000000000E+01 0.  1.
        -11    1    4    4    0    0  0.41308754929E+02 -0.71459888326E+02 -0.46186343098E+02  0.94583863117E+02  0.00000000000E+00 0.  1.
         11    1    4    4    0    0 -0.22134736127E+02  0.63818193176E+01 -0.38913486688E+02  0.45220942133E+02  0.00000000000E+00 0. -1.
<mgrwt>
<rscale>  0 0.13365600E+03</rscale>
<asrwt>0</asrwt>
<pdfrwt beam="2">  1        1 0.31989092E-01 0.14222646E+03</pdfrwt>
<pdfrwt beam="1">  1       -1 0.12356801E-01 0.14222646E+03</pdfrwt>
<totfact> 0.58384302E+03</totfact>
</mgrwt>
</event>
<event>
 8    1  0.1646661E-005  0.1194362E+03  0.7546771E-02  0.1254815E+00
         -1   -1    0    0    0  501 -0.00000000000E+00  0.00000000000E+00  0.74948141089E+02  0.74948141089E+02  0.00000000000E+00 0.  1.
          1   -1    0    0  501    0  0.00000000000E+00 -0.00000000000E+00 -0.26127405121E+03  0.26127405121E+03  0.00000000000E+00 0. -1.
         23    2    1    2    0    0 -0.28521127213E+02 -0.12981486461E+02  0.76409596381E+01  0.11968033374E+03  0.11525200359E+03 0.  0.
         23    2    1    2    0    0  0.28521127213E+02  0.12981486461E+02 -0.19396686976E+03  0.21654185856E+03  0.91023383023E+02 0.  0.
          5    1    3    3  502    0  0.37843792376E+02 -0.33133595398E+01 -0.24205171728E+02  0.45289196407E+02  0.47000000000E+01 0. -1.
         -5    1    3    3    0  502 -0.66364919589E+02 -0.96681269213E+01  0.31846131366E+02  0.74391137330E+02  0.47000000000E+01 0.  1.
        -11    1    4    4    0    0 -0.14223967964E+02 -0.26077568214E+02 -0.28221196568E+02  0.40973122463E+02  0.00000000000E+00 0.  1.
         11    1    4    4    0    0  0.42745095177E+02  0.39059054675E+02 -0.16574567319E+03  0.17556873610E+03  0.00000000000E+00 0. -1.
<mgrwt>
<rscale>  0 0.11316722E+03</rscale>
<asrwt>0</asrwt>
<pdfrwt beam="2">  1        1 0.40196007E-01 0.11943617E+03</pdfrwt>
<pdfrwt beam="1">  1       -1 0.11530483E-01 0.11943617E+03</pdfrwt>
<totfact> 0.48448815E+03</totfact>
</mgrwt>
</event>
<event>
 8    1  0.1646661E-005  0.1374407E+03  0.7546771E-02  0.1228983E+00
         -1   -1    0    0    0  501 -0.00000000000E+00  0.00000000000E+00  0.47423343190E+02  0.47423343190E+02  0.00000000000E+00 0.  1.
          1   -1    0    0  501    0  0.00000000000E+00 -0.00000000000E+00 -0.31461429327E+03  0.31461429327E+03  0.00000000000E+00 0. -1.
         23    2    1    2    0    0  0.57007153308E+02  0.17394972829E+01 -0.14198726065E+03  0.19761152608E+03  0.12504835734E+03 0.  0.
         23    2    1    2    0    0 -0.57007153308E+02 -0.17394972829E+01 -0.12520368943E+03  0.16442611038E+03  0.90039660975E+02 0.  0.
          5    1    3    3  502    0 -0.13598796929E+02 -0.45348249400E+02 -0.27271462751E+02  0.54838067819E+02  0.47000000000E+01 0.  1.
         -5    1    3    3    0  502  0.70605950237E+02  0.47087746683E+02 -0.11471579790E+03  0.14277345826E+03  0.47000000000E+01 0.  1.
        -11    1    4    4    0    0 -0.42648815105E+02  0.38127968068E+02 -0.99762934117E+02  0.11500133218E+03  0.00000000000E+00 0. -1.
         11    1    4    4    0    0 -0.14358338203E+02 -0.39867465351E+02 -0.25440755313E+02  0.49424778202E+02  0.00000000000E+00 0.  1.
<mgrwt>
<rscale>  0 0.12897591E+03</rscale>
<asrwt>0</asrwt>
<pdfrwt beam="2">  1        1 0.48402199E-01 0.13744065E+03</pdfrwt>
<pdfrwt beam="1">  1       -1 0.72958989E-02 0.13744065E+03</pdfrwt>
<totfact> 0.77840693E+03</totfact>
</mgrwt>
</event>
<event>
 8    1  0.1646661E-005  0.1392781E+03  0.7546771E-02  0.1227412E+00
         -1   -1    0    0    0  501 -0.00000000000E+00  0.00000000000E+00  0.86923486024E+02  0.86923486024E+02  0.00000000000E+00 0.  1.
          1   -1    0    0  501    0  0.00000000000E+00 -0.00000000000E+00 -0.27380383328E+03  0.27380383328E+03  0.00000000000E+00 0. -1.
         23    2    1    2    0    0 -0.27171148985E+00 -0.61359529444E+02  0.74305503706E+01  0.13947617954E+03  0.12503329917E+03 0.  0.
         23    2    1    2    0    0  0.27171148985E+00  0.61359529444E+02 -0.19431089762E+03  0.22125113976E+03  0.86199050040E+02 0.  0.
          5    1    3    3  502    0 -0.16481419588E+01  0.38270673168E+02  0.93395955907E+01  0.39707415459E+02  0.47000000000E+01 0. -1.
         -5    1    3    3    0  502  0.13764304690E+01 -0.99630202612E+02 -0.19090452201E+01  0.99768764085E+02  0.47000000000E+01 0. -1.
        -11    1    4    4    0    0 -0.17766730729E+02  0.74439197314E+02 -0.17763837546E+03  0.19342244765E+03  0.00000000000E+00 0. -1.
         11    1    4    4    0    0  0.18038442219E+02 -0.13079667870E+02 -0.16672522163E+02  0.27828692110E+02  0.00000000000E+00 0.  1.
<mgrwt>
<rscale>  0 0.13002948E+03</rscale>
<asrwt>0</asrwt>
<pdfrwt beam="2">  1        1 0.42123666E-01 0.13927811E+03</pdfrwt>
<pdfrwt beam="1">  1       -1 0.13372844E-01 0.13927811E+03</pdfrwt>
<totfact> 0.36683178E+03</totfact>
</mgrwt>
</event>
<event>
 8    1  0.1646661E-005  0.1468070E+03  0.7546771E-02  0.1219466E+00
          1   -1    0    0  501    0  0.00000000000E+00  0.00000000000E+00  0.32046026465E+03  0.32046026465E+03  0.00000000000E+00 0. -1.
         -1   -1    0    0    0  501 -0.00000000000E+00 -0.00000000000E+00 -0.52230186922E+02  0.52230186922E+02  0.00000000000E+00 0.  1.
         23    2    1    2    0    0  0.60506438785E+02 -0.47618689053E+02  0.11746769936E+03  0.18801852639E+03  0.12499494867E+03 0.  0.
         23    2    1    2    0    0 -0.60506438785E+02  0.47618689053E+02  0.15076237837E+03  0.18467192518E+03  0.73796046889E+02 0.  0.
          5    1    3    3  502    0 -0.34699872588E+02 -0.34584571050E+02  0.52298778932E+02  0.71815221160E+02  0.47000000000E+01 0. -1.
         -5    1    3    3    0  502  0.95206311374E+02 -0.13034118003E+02  0.65168920428E+02  0.11620330523E+03  0.47000000000E+01 0. -1.
        -11    1    4    4    0    0 -0.61736297973E+02  0.24791796103E+02  0.55300161355E+02  0.86510759373E+02  0.00000000000E+00 0.  1.
         11    1    4    4    0    0  0.12298591872E+01  0.22826892950E+02  0.95462217013E+02  0.98161165806E+02  0.00000000000E+00 0. -1.
<mgrwt>
<rscale>  0 0.13553496E+03</rscale>
<asrwt>0</asrwt>
<pdfrwt beam="1">  1        1 0.49301578E-01 0.14680704E+03</pdfrwt>
<pdfrwt beam="2">  1       -1 0.80354136E-02 0.14680704E+03</pdfrwt>
<totfact> 0.66058731E+03</totfact>
</mgrwt>
</event>
<event>
 8    1  0.1646661E-005  0.1426461E+03  0.7546771E-02  0.1221097E+00
          1   -1    0    0  501    0  0.00000000000E+00  0.00000000000E+00  0.18423747794E+03  0.18423747794E+03  0.00000000000E+00 0. -1.
         -1   -1    0    0    0  501 -0.00000000000E+00 -0.00000000000E+00 -0.11072723809E+03  0.11072723809E+03  0.00000000000E+00 0.  1.
         23    2    1    2    0    0  0.68240763115E+02  0.81480823866E+01 -0.25867066651E+02  0.14497248025E+03  0.12499888758E+03 0.  0.
         23    2    1    2    0    0 -0.68240763115E+02 -0.81480823866E+01  0.99377306497E+02  0.14999223577E+03  0.88874229946E+02 0.  0.
          5    1    3    3  502    0  0.92568015933E+01 -0.31315285129E+02 -0.58156473473E+02  0.66862552040E+02  0.47000000000E+01 0. -1.
         -5    1    3    3    0  502  0.58983961522E+02  0.39463367515E+02  0.32289406822E+02  0.78109928213E+02  0.47000000000E+01 0. -1.
        -11    1    4    4    0    0 -0.83236201216E+02  0.11231424212E+02  0.58578217127E+02  0.10240028127E+03  0.00000000000E+00 0.  1.
         11    1    4    4    0    0  0.14995438101E+02 -0.19379506598E+02  0.40799089370E+02  0.47591954502E+02  0.00000000000E+00 0. -1.
<mgrwt>
<rscale>  0 0.13438018E+03</rscale>
<asrwt>0</asrwt>
<pdfrwt beam="1">  1        1 0.28344227E-01 0.14264612E+03</pdfrwt>
<pdfrwt beam="2">  1       -1 0.17034960E-01 0.14264612E+03</pdfrwt>
<totfact> 0.41070066E+03</totfact>
</mgrwt>
</event>
<event>
 8    1  0.1646661E-005  0.1339143E+03  0.7546771E-02  0.1234732E+00
          2   -1    0    0  501    0  0.00000000000E+00  0.00000000000E+00  0.12634241874E+02  0.12634241874E+02  0.00000000000E+00 0.  1.
         -2   -1    0    0    0  501 -0.00000000000E+00 -0.00000000000E+00 -0.12410468542E+04  0.12410468542E+04  0.00000000000E+00 0. -1.
         23    2    1    2    0    0 -0.23135611659E+02  0.42104576409E+02 -0.89331951440E+03  0.90330105220E+03  0.12499993683E+03 0.  0.
         23    2    1    2    0    0  0.23135611659E+02 -0.42104576409E+02 -0.33509309790E+03  0.35038004385E+03  0.90392140079E+02 0.  0.
          5    1    3    3  502    0 -0.28745553651E+02  0.57387153967E+02 -0.87831031729E+03  0.88066491684E+03  0.47000000000E+01 0. -1.
         -5    1    3    3    0  502  0.56099419921E+01 -0.15282577559E+02 -0.15009197114E+02  0.22636135359E+02  0.47000000000E+01 0. -1.
        -11    1    4    4    0    0  0.35084325748E+02  0.18216788162E+02 -0.10446816590E+03  0.11169762295E+03  0.00000000000E+00 0.  1.
         11    1    4    4    0    0 -0.11948714089E+02 -0.60321364570E+02 -0.23062493199E+03  0.23868242091E+03  0.00000000000E+00 0. -1.
<mgrwt>
<rscale>  0 0.12521578E+03</rscale>
<asrwt>0</asrwt>
<pdfrwt beam="1">  1        2 0.19437294E-02 0.13391429E+03</pdfrwt>
<pdfrwt beam="2">  1       -2 0.19093029E+00 0.13391429E+03</pdfrwt>
<totfact> 0.90968962E+02</totfact>
</mgrwt>
</event>
<event>
 8    1  0.1646661E-005  0.1619091E+03  0.7546771E-02  0.1193806E+00
          1   -1    0    0  501    0  0.00000000000E+00  0.00000000000E+00  0.41410563855E+02  0.41410563855E+02  0.00000000000E+00 0. -1.
         -1   -1    0    0    0  501 -0.00000000000E+00 -0.00000000000E+00 -0.67249728675E+03  0.67249728675E+03  0.00000000000E+00 0.  1.
         23    2    1    2    0    0 -0.83542535219E+02 -0.60075187644E+02 -0.49221226790E+03  0.51815777840E+03  0.12500473307E+03 0.  0.
         23    2    1    2    0    0  0.83542535219E+02  0.60075187644E+02 -0.13887445500E+03  0.19575007220E+03  0.91889026301E+02 0.  0.
          5    1    3    3  502    0  0.84283457612E+01 -0.51199080520E+02 -0.78425965768E+02  0.94154686368E+02  0.47000000000E+01 0. -1.
         -5    1    3    3    0  502 -0.91970880980E+02 -0.88761071240E+01 -0.41378630213E+03  0.42400309204E+03  0.47000000000E+01 0. -1.
        -11    1    4    4    0    0  0.88047456327E+02  0.16264902650E+02 -0.68516965642E+02  0.11274518262E+03  0.00000000000E+00 0. -1.
         11    1    4    4    0    0 -0.45049211084E+01  0.43810284994E+02 -0.70357489355E+02  0.83004889577E+02  0.00000000000E+00 0.  1.
<mgrwt>
<rscale>  0 0.15555680E+03</rscale>
<asrwt>0</asrwt>
<pdfrwt beam="1">  1        1 0.63708556E-02 0.16190913E+03</pdfrwt>
<pdfrwt beam="2">  1       -1 0.10346113E+00 0.16190913E+03</pdfrwt>
<totfact> 0.10961416E+03</totfact>
</mgrwt>
</event>
<event>
 8    1  0.1646661E-005  0.1466424E+03  0.7546771E-02  0.1209885E+00
          1   -1    0    0  501    0  0.00000000000E+00  0.00000000000E+00  0.18110868020E+03  0.18110868020E+03  0.00000000000E+00 0. -1.
         -1   -1    0    0    0  501 -0.00000000000E+00 -0.00000000000E+00 -0.14230643915E+03  0.14230643915E+03  0.00000000000E+00 0.  1.
         23    2    1    2    0    0  0.72140385499E+02  0.26003736461E+02 -0.60827113059E+02  0.15875749607E+03  0.12499430126E+03 0.  0.
         23    2    1    2    0    0 -0.72140385499E+02 -0.26003736461E+02  0.99629354103E+02  0.16465762328E+03  0.10632824260E+03 0.  0.
          5    1    3    3  502    0  0.51943303846E+02  0.75946344370E+02 -0.44184692261E+02  0.10217793826E+03  0.47000000000E+01 0.  1.
         -5    1    3    3    0  502  0.20197081653E+02 -0.49942607909E+02 -0.16642420798E+02  0.56579557811E+02  0.47000000000E+01 0.  1.
        -11    1    4    4    0    0 -0.23587052488E+02 -0.61685785953E+02  0.73984577357E+02  0.99172591578E+02  0.00000000000E+00 0. -1.
         11    1    4    4    0    0 -0.48553333011E+02  0.35682049491E+02  0.25644776746E+02  0.65485031700E+02  0.00000000000E+00 0.  1.
<mgrwt>
<rscale>  0 0.14259096E+03</rscale>
<asrwt>0</asrwt>
<pdfrwt beam="1">  1        1 0.27862874E-01 0.14664244E+03</pdfrwt>
<pdfrwt beam="2">  1       -1 0.21893298E-01 0.14664244E+03</pdfrwt>
<totfact> 0.28100263E+03</totfact>
</mgrwt>
</event>
<event>
 8    1  0.1646661E-005  0.1503163E+03  0.7546771E-02  0.1209245E+00
          2   -1    0    0  501    0  0.00000000000E+00  0.00000000000E+00  0.41309705397E+03  0.41309705397E+03  0.00000000000E+00 0. -1.
         -2   -1    0    0    0  501 -0.00000000000E+00 -0.00000000000E+00 -0.47148779844E+02  0.47148779844E+02  0.00000000000E+00 0.  1.
         23    2    1    2    0    0  0.56784788910E+02 -0.61202259587E+02  0.15539596082E+03  0.21620104516E+03  0.12499903383E+03 0.  0.
         23    2    1    2    0    0 -0.56784788910E+02  0.61202259587E+02  0.21055231331E+03  0.24404478866E+03  0.90858975342E+02 0.  0.
          5    1    3    3  502    0  0.23267631350E+02 -0.96287567317E+02  0.85231533085E+02  0.13076384256E+03  0.47000000000E+01 0. -1.
         -5    1    3    3    0  502  0.33517157560E+02  0.35085307730E+02  0.70164427734E+02  0.85437202603E+02  0.47000000000E+01 0. -1.
        -11    1    4    4    0    0 -0.41253016926E+02 -0.16231079285E+02  0.80086254160E+02  0.91537246220E+02  0.00000000000E+00 0.  1.
         11    1    4    4    0    0 -0.15531771984E+02  0.77433338872E+02  0.13046605915E+03  0.15250754244E+03  0.00000000000E+00 0. -1.
<mgrwt>
<rscale>  0 0.14307913E+03</rscale>
<asrwt>0</asrwt>
<pdfrwt beam="1">  1        2 0.63553390E-01 0.15031629E+03</pdfrwt>
<pdfrwt beam="2">  1       -2 0.72536587E-02 0.15031629E+03</pdfrwt>
<totfact> 0.81507323E+03</totfact>
</mgrwt>
</event>
<event>
 8    1  0.1646661E-005  0.1368167E+03  0.7546771E-02  0.1227770E+00
          3   -1    0    0  501    0  0.00000000000E+00  0.00000000000E+00  0.52265246411E+03  0.52265246411E+03  0.00000000000E+00 0. -1.
         -3   -1    0    0    0  501 -0.00000000000E+00 -0.00000000000E+00 -0.32315750815E+02  0.32315750815E+02  0.00000000000E+00 0.  1.
         23    2    1    2    0    0 -0.12337209912E+02  0.54225063641E+02  0.18459100110E+03  0.22976647785E+03  0.12500492943E+03 0.  0.
         23    2    1    2    0    0  0.12337209912E+02 -0.54225063641E+02  0.30574571220E+03  0.32520173708E+03  0.95828831759E+02 0.  0.
          5    1    3    3  502    0  0.52569212843E+02  0.11158088986E+02  0.46820999727E+02  0.71430533417E+02  0.47000000000E+01 0. -1.
         -5    1    3    3    0  502 -0.64906422756E+02  0.43066974655E+02  0.13777000137E+03  0.15833594443E+03  0.47000000000E+01 0. -1.
        -11    1    4    4    0    0 -0.18388348879E+01  0.17704674646E+02  0.98183300693E+01  0.20328217419E+02  0.00000000000E+00 0.  1.
         11    1    4    4    0    0  0.14176044800E+02 -0.71929738287E+02  0.29592738213E+03  0.30487351966E+03  0.00000000000E+00 0. -1.
<mgrwt>
<rscale>  0 0.12978818E+03</rscale>
<asrwt>0</asrwt>
<pdfrwt beam="1">  1        3 0.80408065E-01 0.13681665E+03</pdfrwt>
<pdfrwt beam="2">  1       -3 0.49716544E-02 0.13681665E+03</pdfrwt>
<totfact> 0.78609786E+02</totfact>
</mgrwt>
</event>
<event>
 8    1  0.1646661E-005  0.1442186E+03  0.7546771E-02  0.1217529E+00
         -2   -1    0    0    0  501 -0.00000000000E+00  0.00000000000E+00  0.50023433178E+02  0.50023433178E+02  0.00000000000E+00 0.  1.
          2   -1    0    0  501    0  0.00000000000E+00 -0.00000000000E+00 -0.34155101818E+03  0.34155101818E+03  0.00000000000E+00 0. -1.
         23    2    1    2    0    0  0.12410319167E+02 -0.70868972116E+02 -0.15814950836E+03  0.21403333495E+03  0.12499029660E+03 0.  0.
         23    2    1    2    0    0 -0.12410319167E+02  0.70868972116E+02 -0.13337807664E+03  0.17754111641E+03  0.92491672364E+02 0.  0.
          5    1    3    3  502    0 -0.32941640713E+02 -0.64575917138E+01 -0.12310481431E+03  0.12768608965E+03  0.47000000000E+01 0. -1.
         -5    1    3    3    0  502  0.45351959880E+02 -0.64411380402E+02 -0.35044694057E+02  0.86347245306E+02  0.47000000000E+01 0. -1.
        -11    1    4    4    0    0 -0.40635724449E+02  0.31025640927E+01 -0.67801791126E+02  0.79107337747E+02  0.00000000000E+00 0. -1.
         11    1    4    4    0    0  0.28225405282E+02  0.67766408023E+02 -0.65576285510E+02  0.98433778659E+02  0.00000000000E+00 0.  1.
<mgrwt>
<rscale>  0 0.13692389E+03</rscale>
<asrwt>0</asrwt>
<pdfrwt beam="2">  1        2 0.52546310E-01 0.14421859E+03</pdfrwt>
<pdfrwt beam="1">  1       -2 0.76959128E-02 0.14421859E+03</pdfrwt>
<totfact> 0.90921523E+03</totfact>
</mgrwt>
</event>
<event>
 7    1  0.1646661E-005  0.3227986E+03  0.7546771E-02  0.1074368E+00
          1   -1    0    0  501    0  0.00000000000E+00  0.00000000000E+00  0.10036732831E+03  0.10036732831E+03  0.00000000000E+00 0. -1.
         -1   -1    0    0    0  501 -0.00000000000E+00 -0.00000000000E+00 -0.25954390721E+03  0.25954390721E+03  0.00000000000E+00 0.  1.
         23    2    1    2    0    0 -0.25273696932E+02  0.79354842789E+02 -0.40520705180E+02  0.12979114338E+03  0.90927787398E+02 0.  0.
          5    1    1    2  502    0  0.71764637775E+02 -0.11613719591E+03 -0.93578171168E+02  0.16558072239E+03  0.47000000000E+01 0. -1.
         -5    1    1    2    0  502 -0.46490940843E+02  0.36782353118E+02 -0.25077702551E+02  0.64539369741E+02  0.47000000000E+01 0.  1.
        -11    1    3    3    0    0 -0.38802434676E+02  0.91323200559E+02 -0.48019515356E+02  0.11023352372E+03  0.00000000000E+00 0.  1.
         11    1    3    3    0    0  0.13528737744E+02 -0.11968357770E+02  0.74988101762E+01  0.19557619659E+02  0.00000000000E+00 0. -1.
<mgrwt>
<rscale>  0 0.32279857E+03</rscale>
<asrwt>0</asrwt>
<pdfrwt beam="1">  1        1 0.15441128E-01 0.32279857E+03</pdfrwt>
<pdfrwt beam="2">  1       -1 0.39929831E-01 0.32279857E+03</pdfrwt>
<totfact> 0.22245858E+03</totfact>
</mgrwt>
</event>
<event>
 8    1  0.1646661E-005  0.1295983E+03  0.7546771E-02  0.1237746E+00
          1   -1    0    0  501    0  0.00000000000E+00  0.00000000000E+00  0.28528345304E+03  0.28528345304E+03  0.00000000000E+00 0. -1.
         -1   -1    0    0    0  501 -0.00000000000E+00 -0.00000000000E+00 -0.66481170000E+02  0.66481170000E+02  0.00000000000E+00 0.  1.
         23    2    1    2    0    0  0.85574324879E+01 -0.33168610468E+02  0.26781188713E+02  0.13233655501E+03  0.12498938095E+03 0.  0.
         23    2    1    2    0    0 -0.85574324879E+01  0.33168610468E+02  0.19202109433E+03  0.21942806803E+03  0.10051462582E+03 0.  0.
          5    1    3    3  502    0 -0.26565733716E+02  0.11534826429E+02  0.59667315349E+02  0.66491119328E+02  0.47000000000E+01 0. -1.
         -5    1    3    3    0  502  0.35123166204E+02 -0.44703436897E+02 -0.32886126636E+02  0.65845435679E+02  0.47000000000E+01 0. -1.
        -11    1    4    4    0    0 -0.45057831419E+02  0.19782931175E+02  0.42776110570E+02  0.65202516620E+02  0.00000000000E+00 0.  1.
         11    1    4    4    0    0  0.36500398931E+02  0.13385679293E+02  0.14924498376E+03  0.15422555141E+03  0.00000000000E+00 0. -1.
<mgrwt>
<rscale>  0 0.12330246E+03</rscale>
<asrwt>0</asrwt>
<pdfrwt beam="1">  1        1 0.43889762E-01 0.12959835E+03</pdfrwt>
<pdfrwt beam="2">  1       -1 0.10227872E-01 0.12959835E+03</pdfrwt>
<totfact> 0.52488403E+03</totfact>
</mgrwt>
</event>
<event>
 8    1  0.1646661E-005  0.1432060E+03  0.7546771E-02  0.1219864E+00
          2   -1    0    0  501    0  0.00000000000E+00  0.00000000000E+00  0.31709303066E+03  0.31709303066E+03  0.00000000000E+00 0. -1.
         -2   -1    0    0    0  501 -0.00000000000E+00 -0.00000000000E+00 -0.54473137220E+02  0.54473137220E+02  0.00000000000E+00 0.  1.
         23    2    1    2    0    0  0.49831113417E+02  0.48981424796E+02  0.10736058352E+03  0.17898113237E+03  0.12500252402E+03 0.  0.
         23    2    1    2    0    0 -0.49831113417E+02 -0.48981424796E+02  0.15525930992E+03  0.19258503551E+03  0.90006792773E+02 0.  0.
          5    1    3    3  502    0 -0.31078120276E+02  0.28375216908E+02 -0.68990534573E+00  0.42350542663E+02  0.47000000000E+01 0.  1.
         -5    1    3    3    0  502  0.80909233693E+02  0.20606207888E+02  0.10805048887E+03  0.13663058971E+03  0.47000000000E+01 0.  1.
        -11    1    4    4    0    0  0.23537642752E+01 -0.22981851345E+02 -0.35851923604E+01  0.23378607781E+02  0.00000000000E+00 0.  1.
         11    1    4    4    0    0 -0.52184877692E+02 -0.25999573451E+02  0.15884450228E+03  0.16920642773E+03  0.00000000000E+00 0. -1.
<mgrwt>
<rscale>  0 0.13525241E+03</rscale>
<asrwt>0</asrwt>
<pdfrwt beam="1">  1        2 0.48783542E-01 0.14320597E+03</pdfrwt>
<pdfrwt beam="2">  1       -2 0.83804829E-02 0.14320597E+03</pdfrwt>
<totfact> 0.86197359E+03</totfact>
</mgrwt>
</event>
<event>
 8    1  0.1646661E-005  0.1362937E+03  0.7546771E-02  0.1231642E+00
         -2   -1    0    0    0  501 -0.00000000000E+00  0.00000000000E+00  0.40042625453E+02  0.40042625453E+02  0.00000000000E+00 0.  1.
          2   -1    0    0  501    0  0.00000000000E+00 -0.00000000000E+00 -0.40616208801E+03  0.40616208801E+03  0.00000000000E+00 0. -1.
         23    2    1    2    0    0  0.86358245025E+01 -0.53615163119E+02 -0.12972426634E+03  0.18816048917E+03  0.12500728469E+03 0.  0.
         23    2    1    2    0    0 -0.86358245025E+01  0.53615163119E+02 -0.23639519622E+03  0.25804422430E+03  0.88062305880E+02 0.  0.
          5    1    3    3  502    0  0.36225105950E+02 -0.67530859426E+02 -0.13609890770E+03  0.15626156902E+03  0.47000000000E+01 0.  1.
         -5    1    3    3    0  502 -0.27589281448E+02  0.13915696306E+02  0.63746413531E+01  0.31898920152E+02  0.47000000000E+01 0.  1.
        -11    1    4    4    0    0 -0.36688641130E+02  0.53950889333E+02 -0.10447428924E+03  0.12317317874E+03  0.00000000000E+00 0.  1.
         11    1    4    4    0    0  0.28052816628E+02 -0.33572621346E+00 -0.13192090697E+03  0.13487104556E+03  0.00000000000E+00 0. -1.
<mgrwt>
<rscale>  0 0.12721868E+03</rscale>
<asrwt>0</asrwt>
<pdfrwt beam="2">  1        2 0.62486479E-01 0.13629374E+03</pdfrwt>
<pdfrwt beam="1">  1       -2 0.61604035E-02 0.13629374E+03</pdfrwt>
<totfact> 0.10583384E+04</totfact>
</mgrwt>
</event>
<event>
 8    1  0.1646661E-005  0.1747956E+03  0.7546771E-02  0.1179232E+00
         -1   -1    0    0    0  501 -0.00000000000E+00  0.00000000000E+00  0.31112504239E+03  0.31112504239E+03  0.00000000000E+00 0.  1.
          1   -1    0    0  501    0  0.00000000000E+00 -0.00000000000E+00 -0.10552836380E+03  0.10552836380E+03  0.00000000000E+00 0. -1.
         23    2    1    2    0    0 -0.30389063418E+02  0.11833740347E+03  0.19907911097E+03  0.26492638929E+03  0.12500505223E+03 0.  0.
         23    2    1    2    0    0  0.30389063418E+02 -0.11833740347E+03  0.65175676149E+01  0.15172701690E+03  0.89729441847E+02 0.  0.
          5    1    3    3  502    0 -0.35487356273E+02  0.68966512963E+01 -0.24830719014E+00  0.36456383677E+02  0.47000000000E+01 0.  1.
         -5    1    3    3    0  502  0.50982928556E+01  0.11144075217E+03  0.19932741816E+03  0.22847000561E+03  0.47000000000E+01 0.  1.
        -11    1    4    4    0    0 -0.16939948924E+02 -0.56199170117E+02 -0.29522810795E+02  0.65703157829E+02  0.00000000000E+00 0. -1.
         11    1    4    4    0    0  0.47329012342E+02 -0.62138233349E+02  0.36040378410E+02  0.86023859068E+02  0.00000000000E+00 0.  1.
<mgrwt>
<rscale>  0 0.16867990E+03</rscale>
<asrwt>0</asrwt>
<pdfrwt beam="2">  1        1 0.16235133E-01 0.17479559E+03</pdfrwt>
<pdfrwt beam="1">  1       -1 0.47865391E-01 0.17479559E+03</pdfrwt>
<totfact> 0.14764665E+03</totfact>
</mgrwt>
</event>
<event>
 8    1  0.1646661E-005  0.1719498E+03  0.7546771E-02  0.1182431E+00
         -1   -1    0    0    0  501 -0.00000000000E+00  0.00000000000E+00  0.18694378228E+02  0.18694378228E+02  0.00000000000E+00 0.  1.
          1   -1    0    0  501    0  0.00000000000E+00 -0.00000000000E+00 -0.13735783648E+04  0.13735783648E+04  0.00000000000E+00 0. -1.
         23    2    1    2    0    0  0.10923459946E+03  0.44826666476E+02 -0.69580886787E+03  0.71674033377E+03  0.12500039078E+03 0.  0.
         23    2    1    2    0    0 -0.10923459946E+03 -0.44826666476E+02 -0.65907511866E+03  0.67553240922E+03  0.89567829738E+02 0.  0.
          5    1    3    3  502    0 -0.17027847018E+02 -0.52933028238E+01 -0.24976657892E+03  0.25044640260E+03  0.47000000000E+01 0.  1.
         -5    1    3    3    0  502  0.12626244648E+03  0.50119969300E+02 -0.44604228895E+03  0.46629393117E+03  0.47000000000E+01 0.  1.
        -11    1    4    4    0    0 -0.45777600684E+02  0.24196477625E+02 -0.17673038620E+03  0.18415940828E+03  0.00000000000E+00 0.  1.
         11    1    4    4    0    0 -0.63456998773E+02 -0.69023144101E+02 -0.48234473246E+03  0.49137300093E+03  0.00000000000E+00 0. -1.
<mgrwt>
<rscale>  0 0.16567814E+03</rscale>
<asrwt>0</asrwt>
<pdfrwt beam="2">  1        1 0.21131973E+00 0.17194978E+03</pdfrwt>
<pdfrwt beam="1">  1       -1 0.28760584E-02 0.17194978E+03</pdfrwt>
<totfact> 0.34672540E+03</totfact>
</mgrwt>
</event>
<event>
 8    1  0.1646661E-005  0.2109149E+03  0.7546771E-02  0.1144587E+00
         -1   -1    0    0    0  501 -0.00000000000E+00  0.00000000000E+00  0.79673089550E+02  0.79673089550E+02  0.00000000000E+00 0.  1.
          1   -1    0    0  501    0  0.00000000000E+00 -0.00000000000E+00 -0.54326132480E+03  0.54326132480E+03  0.00000000000E+00 0. -1.
         23    2    1    2    0    0 -0.16917739008E+03  0.15460492033E+02 -0.16622049419E+03  0.26854117101E+03  0.12500036683E+03 0.  0.
         23    2    1    2    0    0  0.16917739008E+03 -0.15460492033E+02 -0.29736774106E+03  0.35439324334E+03  0.91142643004E+02 0.  0.
          5    1    3    3  502    0 -0.82897742755E+02  0.34582476704E+02 -0.15517262847E+03  0.17935612082E+03  0.47000000000E+01 0. -1.
         -5    1    3    3    0  502 -0.86279647329E+02 -0.19121984671E+02 -0.11047865725E+02  0.89185050194E+02  0.47000000000E+01 0. -1.
        -11    1    4    4    0    0  0.86676504756E+02 -0.48670655103E+02 -0.11879188345E+03  0.15489725859E+03  0.00000000000E+00 0.  1.
         11    1    4    4    0    0  0.82500885328E+02  0.33210163071E+02 -0.17857585761E+03  0.19949598475E+03  0.00000000000E+00 0. -1.
<mgrwt>
<rscale>  0 0.20622921E+03</rscale>
<asrwt>0</asrwt>
<pdfrwt beam="2">  1        1 0.83578664E-01 0.21091493E+03</pdfrwt>
<pdfrwt beam="1">  1       -1 0.12257399E-01 0.21091493E+03</pdfrwt>
<totfact> 0.17787119E+03</totfact>
</mgrwt>
</event>
<event>
 8    1  0.1646661E-005  0.1265136E+03  0.7546771E-02  0.1248283E+00
         -2   -1    0    0    0  501 -0.00000000000E+00  0.00000000000E+00  0.50675226316E+02  0.50675226316E+02  0.00000000000E+00 0.  1.
          2   -1    0    0  501    0  0.00000000000E+00 -0.00000000000E+00 -0.26319430101E+03  0.26319430101E+03  0.00000000000E+00 0. -1.
         23    2    1    2    0    0  0.11619443572E+02  0.15598856555E+02 -0.71402778420E+02  0.14527236412E+03  0.12500946850E+03 0.  0.
         23    2    1    2    0    0 -0.11619443572E+02 -0.15598856555E+02 -0.14111629628E+03  0.16859716321E+03  0.90182362873E+02 0.  0.
          5    1    3    3  502    0  0.32553866548E+02  0.59123328194E+02 -0.12240268848E+02  0.68754900519E+02  0.47000000000E+01 0.  1.
         -5    1    3    3    0  502 -0.20934422976E+02 -0.43524471639E+02 -0.59162509571E+02  0.76517463599E+02  0.47000000000E+01 0.  1.
        -11    1    4    4    0    0 -0.29078704155E+02  0.30395033725E+02 -0.52849950069E+02  0.67546623400E+02  0.00000000000E+00 0. -1.
         11    1    4    4    0    0  0.17459260583E+02 -0.45993890280E+02 -0.88266346209E+02  0.10105053981E+03  0.00000000000E+00 0.  1.
<mgrwt>
<rscale>  0 0.11691005E+03</rscale>
<asrwt>0</asrwt>
<pdfrwt beam="2">  1        2 0.40491432E-01 0.12651365E+03</pdfrwt>
<pdfrwt beam="1">  1       -2 0.77961885E-02 0.12651365E+03</pdfrwt>
<totfact> 0.11632908E+04</totfact>
</mgrwt>
</event>
<event>
 7    1  0.1646661E-005  0.2358691E+03  0.7546771E-02  0.1160476E+00
         -1   -1    0    0    0  501 -0.00000000000E+00  0.00000000000E+00  0.73023140293E+02  0.73023140293E+02  0.00000000000E+00 0.  1.
          1   -1    0    0  501    0  0.00000000000E+00 -0.00000000000E+00 -0.37876885456E+03  0.37876885456E+03  0.00000000000E+00 0. -1.
         23    2    1    2    0    0 -0.15114073262E+02 -0.12560653576E+02 -0.11076356735E+03  0.14576539723E+03  0.92697238086E+02 0.  0.
          5    1    1    2  502    0 -0.60312071012E+00 -0.10647968090E+03 -0.13415934977E+03  0.17134499505E+03  0.47000000000E+01 0. -1.
         -5    1    1    2    0  502  0.15717193972E+02  0.11904033447E+03 -0.60822797140E+02  0.13468160257E+03  0.47000000000E+01 0.  1.
        -11    1    3    3    0    0 -0.10652445616E+02  0.36789773904E+02 -0.22166716188E+02  0.44252970161E+02  0.00000000000E+00 0.  1.
         11    1    3    3    0    0 -0.44616276463E+01 -0.49350427480E+02 -0.88596851166E+02  0.10151242707E+03  0.00000000000E+00 0. -1.
<mgrwt>
<rscale>  0 0.18778319E+03</rscale>
<asrwt>0</asrwt>
<pdfrwt beam="2">  1        1 0.58272132E-01 0.23586912E+03</pdfrwt>
<pdfrwt beam="1">  1       -1 0.11234329E-01 0.23586912E+03</pdfrwt>
<totfact> 0.32737514E+03</totfact>
</mgrwt>
</event>
<event>
 8    1  0.1646661E-005  0.2183026E+03  0.7546771E-02  0.1139035E+00
         -4   -1    0    0    0  501 -0.00000000000E+00  0.00000000000E+00  0.43714522027E+03  0.43714522027E+03  0.00000000000E+00 0.  1.
          4   -1    0    0  501    0  0.00000000000E+00 -0.00000000000E+00 -0.17325037396E+03  0.17325037396E+03  0.00000000000E+00 0. -1.
         23    2    1    2    0    0 -0.13674310480E+03 -0.11547006037E+03  0.33457873351E+03  0.39949835952E+03  0.12499599508E+03 0.  0.
         23    2    1    2    0    0  0.13674310480E+03  0.11547006037E+03 -0.70683887210E+02  0.21089723471E+03  0.86310023426E+02 0.  0.
          5    1    3    3  502    0 -0.12142124895E+03 -0.42498352584E+02  0.13567782081E+03  0.18702884999E+03  0.47000000000E+01 0.  1.
         -5    1    3    3    0  502 -0.15321855848E+02 -0.72971707791E+02  0.19890091270E+03  0.21246950953E+03  0.47000000000E+01 0.  1.
        -11    1    4    4    0    0  0.10893139194E+03  0.61402915360E+02 -0.10724097121E+02  0.12550447173E+03  0.00000000000E+00 0. -1.
         11    1    4    4    0    0  0.27811712862E+02  0.54067145015E+02 -0.59959790089E+02  0.85392762983E+02  0.00000000000E+00 0.  1.
<mgrwt>
<rscale>  0 0.21322751E+03</rscale>
<asrwt>0</asrwt>
<pdfrwt beam="2">  1        4 0.26653904E-01 0.21830257E+03</pdfrwt>
<pdfrwt beam="1">  1       -4 0.67253110E-01 0.21830257E+03</pdfrwt>
<totfact> 0.49593013E+01</totfact>
</mgrwt>
</event>
<event>
 8    1  0.1646661E-005  0.1912267E+03  0.7546771E-02  0.1163025E+00
          2   -1    0    0  501    0  0.00000000000E+00  0.00000000000E+00  0.59198877332E+03  0.59198877332E+03  0.00000000000E+00 0. -1.
         -2   -1    0    0    0  501 -0.00000000000E+00 -0.00000000000E+00 -0.79507828565E+02  0.79507828565E+02  0.00000000000E+00 0.  1.
         23    2    1    2    0    0 -0.11975078273E+03 -0.81254415408E+02  0.79292458046E+02  0.20701431561E+03  0.12500041191E+03 0.  0.
         23    2    1    2    0    0  0.11975078273E+03  0.81254415408E+02  0.43318848671E+03  0.46448228627E+03  0.84551754896E+02 0.  0.
          5    1    3    3  502    0 -0.13985037429E+03 -0.41856240340E+02  0.53168934266E+02  0.15543197102E+03  0.47000000000E+01 0. -1.
         -5    1    3    3    0  502  0.20099591554E+02 -0.39398175068E+02  0.26123523780E+02  0.51582344596E+02  0.47000000000E+01 0. -1.
        -11    1    4    4    0    0  0.19512224712E+02  0.62632369349E+02  0.16408012236E+03  0.17670831094E+03  0.00000000000E+00 0.  1.
         11    1    4    4    0    0  0.10023855802E+03  0.18622046059E+02  0.26910836435E+03  0.28777397533E+03  0.00000000000E+00 0. -1.
<mgrwt>
<rscale>  0 0.18502620E+03</rscale>
<asrwt>0</asrwt>
<pdfrwt beam="1">  1        2 0.91075193E-01 0.19122665E+03</pdfrwt>
<pdfrwt beam="2">  1       -2 0.12231974E-01 0.19122665E+03</pdfrwt>
<totfact> 0.24312362E+03</totfact>
</mgrwt>
</event>
<event>
 8    1  0.1646661E-005  0.1251149E+03  0.7546771E-02  0.1253029E+00
         -1   -1    0    0    0  501 -0.00000000000E+00  0.00000000000E+00  0.25087086163E+02  0.25087086163E+02  0.00000000000E+00 0.  1.
          1   -1    0    0  501    0  0.00000000000E+00 -0.00000000000E+00 -0.51522833650E+03  0.51522833650E+03  0.00000000000E+00 0. -1.
         23    2    1    2    0    0  0.71146432102E+00  0.53491817866E+01 -0.18695223855E+03  0.22495527192E+03  0.12499845974E+03 0.  0.
         23    2    1    2    0    0 -0.71146432102E+00 -0.53491817866E+01 -0.30318901179E+03  0.31536015075E+03  0.86598659824E+02 0.  0.
          5    1    3    3  502    0 -0.31090952917E+02  0.20505892086E+02 -0.18563133517E+03  0.18938907455E+03  0.47000000000E+01 0.  1.
         -5    1    3    3    0  502  0.31802417238E+02 -0.15156710299E+02 -0.13209033825E+01  0.35566197365E+02  0.47000000000E+01 0.  1.
        -11    1    4    4    0    0  0.21016657740E+02  0.31457050010E+02 -0.85217688156E+02  0.93237869306E+02  0.00000000000E+00 0.  1.
         11    1    4    4    0    0 -0.21728122061E+02 -0.36806231797E+02 -0.21797132363E+03  0.22212228144E+03  0.00000000000E+00 0. -1.
<mgrwt>
<rscale>  0 0.11417471E+03</rscale>
<asrwt>0</asrwt>
<pdfrwt beam="2">  1        1 0.79265899E-01 0.12511489E+03</pdfrwt>
<pdfrwt beam="1">  1       -1 0.38595516E-02 0.12511489E+03</pdfrwt>
<totfact> 0.10642940E+04</totfact>
</mgrwt>
</event>
<event>
 8    1  0.1646661E-005  0.1262427E+03  0.7546771E-02  0.1253245E+00
         -1   -1    0    0    0  501 -0.00000000000E+00  0.00000000000E+00  0.59563254983E+02  0.59563254983E+02  0.00000000000E+00 0.  1.
          1   -1    0    0  501    0  0.00000000000E+00 -0.00000000000E+00 -0.25219583516E+03  0.25219583516E+03  0.00000000000E+00 0. -1.
         23    2    1    2    0    0 -0.22106900036E-01 -0.17664687468E+02 -0.31676235217E+02  0.13015604161E+03  0.12500067847E+03 0.  0.
         23    2    1    2    0    0  0.22106900036E-01  0.17664687468E+02 -0.16095634497E+03  0.18160304854E+03  0.82223357878E+02 0.  0.
          5    1    3    3  502    0  0.35570293470E+02  0.37722276511E+02  0.86980662171E+01  0.52782215552E+02  0.47000000000E+01 0. -1.
         -5    1    3    3    0  502 -0.35592400370E+02 -0.55386963979E+02 -0.40374301434E+02  0.77373826060E+02  0.47000000000E+01 0. -1.
        -11    1    4    4    0    0 -0.19752545030E+02 -0.15813872484E+02 -0.12658822485E+02  0.28292885763E+02  0.00000000000E+00 0.  1.
         11    1    4    4    0    0  0.19774651930E+02  0.33478559952E+02 -0.14829752248E+03  0.15331016277E+03  0.00000000000E+00 0. -1.
<mgrwt>
<rscale>  0 0.11405201E+03</rscale>
<asrwt>0</asrwt>
<pdfrwt beam="2">  1        1 0.38799359E-01 0.12624267E+03</pdfrwt>
<pdfrwt beam="1">  1       -1 0.91635778E-02 0.12624267E+03</pdfrwt>
<totfact> 0.72098695E+03</totfact>
</mgrwt>
</event>
<event>
 8    1  0.1646661E-005  0.1343189E+03  0.7546771E-02  0.1234711E+00
         -1   -1    0    0    0  501 -0.00000000000E+00  0.00000000000E+00  0.50994804504E+02  0.50994804504E+02  0.00000000000E+00 0.  1.
          1   -1    0    0  501    0  0.00000000000E+00 -0.00000000000E+00 -0.31006357294E+03  0.31006357294E+03  0.00000000000E+00 0. -1.
         23    2    1    2    0    0  0.49047526291E+02 -0.31923043628E+01 -0.83174994933E+02  0.15798625127E+03  0.12500290064E+03 0.  0.
         23    2    1    2    0    0 -0.49047526291E+02  0.31923043628E+01 -0.17589377350E+03  0.20307212616E+03  0.88790867924E+02 0.  0.
          5    1    3    3  502    0  0.91116033613E+02 -0.85965497380E+01 -0.57304498623E+02  0.10808296726E+03  0.47000000000E+01 0. -1.
         -5    1    3    3    0  502 -0.42068507322E+02  0.54042453752E+01 -0.25870496311E+02  0.49903284017E+02  0.47000000000E+01 0. -1.
        -11    1    4    4    0    0 -0.18301304735E+02  0.19029324032E+02 -0.27918162653E+01  0.26548957911E+02  0.00000000000E+00 0.  1.
         11    1    4    4    0    0 -0.30746221557E+02 -0.15837019669E+02 -0.17310195723E+03  0.17652316825E+03  0.00000000000E+00 0. -1.
<mgrwt>
<rscale>  0 0.12522927E+03</rscale>
<asrwt>0</asrwt>
<pdfrwt beam="2">  1        1 0.47702087E-01 0.13431893E+03</pdfrwt>
<pdfrwt beam="1">  1       -1 0.78453548E-02 0.13431893E+03</pdfrwt>
<totfact> 0.70949100E+03</totfact>
</mgrwt>
</event>
<event>
 8    1  0.1646661E-005  0.1376895E+03  0.7546771E-02  0.1227739E+00
         -1   -1    0    0    0  501 -0.00000000000E+00  0.00000000000E+00  0.11781449555E+03  0.11781449555E+03  0.00000000000E+00 0.  1.
          1   -1    0    0  501    0  0.00000000000E+00 -0.00000000000E+00 -0.13971962460E+03  0.13971962460E+03  0.00000000000E+00 0. -1.
         23    2    1    2    0    0 -0.57771950231E+02  0.20275023491E+01  0.23469998922E+02  0.13967546195E+03  0.12496673487E+03 0.  0.
         23    2    1    2    0    0  0.57771950231E+02 -0.20275023491E+01 -0.45375127971E+02  0.11785865820E+03  0.92141478576E+02 0.  0.
          5    1    3    3  502    0 -0.65976620114E+02 -0.43763945593E+02  0.41559901777E+02  0.89540564948E+02  0.47000000000E+01 0. -1.
         -5    1    3    3    0  502  0.82046698835E+01  0.45791447942E+02 -0.18089902855E+02  0.50134897006E+02  0.47000000000E+01 0. -1.
        -11    1    4    4    0    0  0.83211645246E+02 -0.18501303520E+01 -0.36885188768E+02  0.91039101694E+02  0.00000000000E+00 0. -1.
         11    1    4    4    0    0 -0.25439695015E+02 -0.17737199706E+00 -0.84899392027E+01  0.26819556502E+02  0.00000000000E+00 0.  1.
<mgrwt>
<rscale>  0 0.12980958E+03</rscale>
<asrwt>0</asrwt>
<pdfrwt beam="2">  1        1 0.21495327E-01 0.13768948E+03</pdfrwt>
<pdfrwt beam="1">  1       -1 0.18125307E-01 0.13768948E+03</pdfrwt>
<totfact> 0.52584908E+03</totfact>
</mgrwt>
</event>
<event>
 8    1  0.1646661E-005  0.1150009E+03  0.7546771E-02  0.1259932E+00
          3   -1    0    0  501    0  0.00000000000E+00  0.00000000000E+00  0.76056664266E+02  0.76056664266E+02  0.00000000000E+00 0. -1.
         -3   -1    0    0    0  501 -0.00000000000E+00 -0.00000000000E+00 -0.23102232273E+03  0.23102232273E+03  0.00000000000E+00 0.  1.
         23    2    1    2    0    0 -0.16182756978E+02 -0.29134444244E+02 -0.17320605612E+03  0.20790751951E+03  0.11006589539E+03 0.  0.
         23    2    1    2    0    0  0.16182756978E+02  0.29134444244E+02  0.18240397653E+02  0.99171467489E+02  0.91605515078E+02 0.  0.
          5    1    3    3  502    0  0.32282578585E+02  0.17606774657E+02 -0.24045437180E+02  0.44186383006E+02  0.47000000000E+01 0. -1.
         -5    1    3    3    0  502 -0.48465335563E+02 -0.46741218901E+02 -0.14916061894E+03  0.16372113650E+03  0.47000000000E+01 0.  1.
        -11    1    4    4    0    0 -0.10523076405E+02 -0.28100372211E+02 -0.75638418117E+01  0.30944753325E+02  0.00000000000E+00 0.  1.
         11    1    4    4    0    0  0.26705833382E+02  0.57234816455E+02  0.25804239465E+02  0.68226714164E+02  0.00000000000E+00 0. -1.
<mgrwt>
<rscale>  0 0.11034540E+03</rscale>
<asrwt>0</asrwt>
<pdfrwt beam="1">  1        3 0.11701025E-01 0.11500086E+03</pdfrwt>
<pdfrwt beam="2">  1       -3 0.35541895E-01 0.11500086E+03</pdfrwt>
<totfact> 0.99198511E+02</totfact>
</mgrwt>
</event>
<event>
 8    1  0.1646661E-005  0.1594237E+03  0.7546771E-02  0.1197030E+00
          1   -1    0    0  501    0  0.00000000000E+00  0.00000000000E+00  0.86855223321E+03  0.86855223321E+03  0.00000000000E+00 0. -1.
         -1   -1    0    0    0  501 -0.00000000000E+00 -0.00000000000E+00 -0.25844438302E+02  0.25844438302E+02  0.00000000000E+00 0.  1.
         23    2    1    2    0    0  0.89605967026E+02  0.41980262021E+02  0.37006144226E+03  0.40294092398E+03  0.12499738175E+03 0.  0.
         23    2    1    2    0    0 -0.89605967026E+02 -0.41980262021E+02  0.47264635265E+03  0.49145574753E+03  0.91337863906E+02 0.  0.
          5    1    3    3  502    0  0.11565697549E+03  0.32979257206E+02  0.34500425594E+03  0.36539594142E+03  0.47000000000E+01 0. -1.
         -5    1    3    3    0  502 -0.26051008463E+02  0.90010048144E+01  0.25057186313E+02  0.37544982561E+02  0.47000000000E+01 0. -1.
        -11    1    4    4    0    0 -0.70532127333E+02  0.94445495082E+01  0.17708514277E+03  0.19084844325E+03  0.00000000000E+00 0.  1.
         11    1    4    4    0    0 -0.19073839693E+02 -0.51424811529E+02  0.29556120987E+03  0.30060730427E+03  0.00000000000E+00 0. -1.
<mgrwt>
<rscale>  0 0.15283644E+03</rscale>
<asrwt>0</asrwt>
<pdfrwt beam="1">  1        1 0.13362340E+00 0.15942370E+03</pdfrwt>
<pdfrwt beam="2">  1       -1 0.39760681E-02 0.15942370E+03</pdfrwt>
<totfact> 0.49210491E+03</totfact>
</mgrwt>
</event>
<event>
 8    1  0.1646661E-005  0.1945908E+03  0.7546771E-02  0.1158885E+00
          3   -1    0    0  501    0  0.00000000000E+00  0.00000000000E+00  0.15151423615E+03  0.15151423615E+03  0.00000000000E+00 0. -1.
         -3   -1    0    0    0  501 -0.00000000000E+00 -0.00000000000E+00 -0.62157372576E+03  0.62157372576E+03  0.00000000000E+00 0.  1.
         23    2    1    2    0    0 -0.23832999525E+02 -0.14705489264E+03 -0.54790906744E+03  0.58143782272E+03  0.12518962492E+03 0.  0.
         23    2    1    2    0    0  0.23832999525E+02  0.14705489264E+03  0.77849577830E+02  0.19165013919E+03  0.92065551469E+02 0.  0.
          5    1    3    3  502    0 -0.74678827477E+02 -0.88051734040E+02 -0.35551568402E+03  0.37382285474E+03  0.47000000000E+01 0. -1.
         -5    1    3    3    0  502  0.50845827952E+02 -0.59003158602E+02 -0.19239338342E+03  0.20761496798E+03  0.47000000000E+01 0. -1.
        -11    1    4    4    0    0 -0.58060748841E+01  0.14513557451E+03  0.67786629730E+02  0.16029058820E+03  0.00000000000E+00 0.  1.
         11    1    4    4    0    0  0.29639074409E+02  0.19193181270E+01  0.10062948100E+02  0.31359550991E+02  0.00000000000E+00 0. -1.
<mgrwt>
<rscale>  0 0.18953073E+03</rscale>
<asrwt>0</asrwt>
<pdfrwt beam="1">  1        3 0.23309882E-01 0.19459084E+03</pdfrwt>
<pdfrwt beam="2">  1       -3 0.95626729E-01 0.19459084E+03</pdfrwt>
<totfact> 0.41669526E+01</totfact>
</mgrwt>
</event>
<event>
 8    1  0.2252346E-005  0.1775908E+03  0.7546771E-02  0.1176095E+00
          2   -1    0    0  501    0  0.00000000000E+00  0.00000000000E+00  0.43251262156E+03  0.43251262156E+03  0.00000000000E+00 0. -1.
         -2   -1    0    0    0  501 -0.00000000000E+00 -0.00000000000E+00 -0.75477507240E+02  0.75477507240E+02  0.00000000000E+00 0.  1.
         23    2    1    2    0    0  0.11315527938E+03 -0.55765475680E+02  0.89846331804E+02  0.19902480360E+03  0.12499841431E+03 0.  0.
         23    2    1    2    0    0 -0.11315527938E+03  0.55765475680E+02  0.26718878252E+03  0.30896532520E+03  0.90309584996E+02 0.  0.
          5    1    3    3  502    0  0.62012840815E+02  0.34420832706E+02  0.53848167505E+02  0.89174555193E+02  0.47000000000E+01 0.  1.
         -5    1    3    3    0  502  0.51142438566E+02 -0.90186308386E+02  0.35998164298E+02  0.10985024841E+03  0.47000000000E+01 0.  1.
        -11    1    4    4    0    0 -0.16744572656E+02  0.44702130566E+02  0.14661272020E+03  0.15418803752E+03  0.00000000000E+00 0.  1.
         11    1    4    4    0    0 -0.96410706725E+02  0.11063345113E+02  0.12057606232E+03  0.15477728768E+03  0.00000000000E+00 0. -1.
<mgrwt>
<rscale>  0 0.17169171E+03</rscale>
<asrwt>0</asrwt>
<pdfrwt beam="1">  1        2 0.66540402E-01 0.17759085E+03</pdfrwt>
<pdfrwt beam="2">  1       -2 0.11611924E-01 0.17759085E+03</pdfrwt>
<totfact> 0.37407696E+03</totfact>
</mgrwt>
</event>
<event>
 8    1  0.1646661E-005  0.1547045E+03  0.7546771E-02  0.1203137E+00
         -2   -1    0    0    0  501 -0.00000000000E+00  0.00000000000E+00  0.12249778932E+03  0.12249778932E+03  0.00000000000E+00 0.  1.
          2   -1    0    0  501    0  0.00000000000E+00 -0.00000000000E+00 -0.16551640083E+03  0.16551640083E+03  0.00000000000E+00 0. -1.
         23    2    1    2    0    0  0.40131384126E+02  0.81843182884E+02 -0.11344145457E+02  0.15511988988E+03  0.12499862409E+03 0.  0.
         23    2    1    2    0    0 -0.40131384126E+02 -0.81843182884E+02 -0.31674466058E+02  0.13289430026E+03  0.91371706048E+02 0.  0.
          5    1    3    3  502    0  0.62820623673E+02  0.10409766432E+03 -0.15756644934E+02  0.12269114204E+03  0.47000000000E+01 0. -1.
         -5    1    3    3    0  502 -0.22689239548E+02 -0.22254481433E+02  0.44124994771E+01  0.32428747844E+02  0.47000000000E+01 0. -1.
        -11    1    4    4    0    0 -0.68924673612E+02 -0.50431172911E+02 -0.29018781266E+02  0.90199797671E+02  0.00000000000E+00 0.  1.
         11    1    4    4    0    0  0.28793289486E+02 -0.31412009973E+02 -0.26556847920E+01  0.42694502593E+02  0.00000000000E+00 0. -1.
<mgrwt>
<rscale>  0 0.14785258E+03</rscale>
<asrwt>0</asrwt>
<pdfrwt beam="2">  1        2 0.25464062E-01 0.15470453E+03</pdfrwt>
<pdfrwt beam="1">  1       -2 0.18845814E-01 0.15470453E+03</pdfrwt>
<totfact> 0.47277463E+03</totfact>
</mgrwt>
</event>
<event>
 8    1  0.1646661E-005  0.1501220E+03  0.7546771E-02  0.1208099E+00
          2   -1    0    0  501    0  0.00000000000E+00  0.00000000000E+00  0.15996889408E+03  0.15996889408E+03  0.00000000000E+00 0.  1.
         -2   -1    0    0    0  501 -0.00000000000E+00 -0.00000000000E+00 -0.12058306841E+03  0.12058306841E+03  0.00000000000E+00 0. -1.
         23    2    1    2    0    0  0.14345116136E+02 -0.81885364720E+02  0.11370856178E+02  0.15055205229E+03  0.12500251504E+03 0.  0.
         23    2    1    2    0    0 -0.14345116136E+02  0.81885364720E+02  0.28014969494E+02  0.12999991020E+03  0.95938224000E+02 0.  0.
          5    1    3    3  502    0  0.54923910126E+02 -0.73340410085E+02  0.39848888601E+02  0.10002737414E+03  0.47000000000E+01 0.  1.
         -5    1    3    3    0  502 -0.40578793989E+02 -0.85449546353E+01 -0.28478032423E+02  0.50524678149E+02  0.47000000000E+01 0.  1.
        -11    1    4    4    0    0  0.25877129984E+02  0.51688316952E+02  0.48731285512E+02  0.75604537914E+02  0.00000000000E+00 0. -1.
         11    1    4    4    0    0 -0.40222246120E+02  0.30197047769E+02 -0.20716316018E+02  0.54395372287E+02  0.00000000000E+00 0.  1.
<mgrwt>
<rscale>  0 0.14395859E+03</rscale>
<asrwt>0</asrwt>
<pdfrwt beam="1">  1        2 0.24610599E-01 0.15012203E+03</pdfrwt>
<pdfrwt beam="2">  1       -2 0.18551241E-01 0.15012203E+03</pdfrwt>
<totfact> 0.50322105E+03</totfact>
</mgrwt>
</event>
<event>
 8    1  0.1646661E-005  0.3020786E+03  0.7546771E-02  0.1085745E+00
          1   -1    0    0  501    0  0.00000000000E+00  0.00000000000E+00  0.20943627749E+03  0.20943627749E+03  0.00000000000E+00 0. -1.
         -1   -1    0    0    0  501 -0.00000000000E+00 -0.00000000000E+00 -0.42469123185E+03  0.42469123185E+03  0.00000000000E+00 0.  1.
         23    2    1    2    0    0  0.18167907773E+03  0.20644265508E+03 -0.14855062123E+03  0.33662853792E+03  0.12500251339E+03 0.  0.
         23    2    1    2    0    0 -0.18167907773E+03 -0.20644265508E+03 -0.66704333118E+02  0.29749897142E+03  0.91816734961E+02 0.  0.
          5    1    3    3  502    0  0.13269389065E+03  0.20928251009E+03 -0.99456909611E+02  0.26705917792E+03  0.47000000000E+01 0. -1.
         -5    1    3    3    0  502  0.48985187078E+02 -0.28398550099E+01 -0.49093711622E+02  0.69569359997E+02  0.47000000000E+01 0. -1.
        -11    1    4    4    0    0 -0.37891907493E+02 -0.31333856503E+02  0.22397755682E+02  0.54030238537E+02  0.00000000000E+00 0.  1.
         11    1    4    4    0    0 -0.14378717023E+03 -0.17510879858E+03 -0.89102088800E+02  0.24346873288E+03  0.00000000000E+00 0. -1.
<mgrwt>
<rscale>  0 0.29899311E+03</rscale>
<asrwt>0</asrwt>
<pdfrwt beam="1">  1        1 0.32220966E-01 0.30207861E+03</pdfrwt>
<pdfrwt beam="2">  1       -1 0.65337112E-01 0.30207861E+03</pdfrwt>
<totfact> 0.34145290E+02</totfact>
</mgrwt>
</event>
<event>
 8    1  0.1646661E-005  0.2060130E+03  0.7546771E-02  0.1148641E+00
         -2   -1    0    0    0  501 -0.00000000000E+00  0.00000000000E+00  0.51149608798E+03  0.51149608798E+03  0.00000000000E+00 0.  1.
          2   -1    0    0  501    0  0.00000000000E+00 -0.00000000000E+00 -0.79964354880E+02  0.79964354880E+02  0.00000000000E+00 0. -1.
         23    2    1    2    0    0 -0.16133041655E+03  0.28188767803E+02  0.29253877746E+03  0.35779925276E+03  0.12497703399E+03 0.  0.
         23    2    1    2    0    0  0.16133041655E+03 -0.28188767803E+02  0.13899295563E+03  0.23366119009E+03  0.91958686956E+02 0.  0.
          5    1    3    3  502    0 -0.50924071698E+02  0.25296177838E+02  0.21583833427E+03  0.22325195236E+03  0.47000000000E+01 0.  1.
         -5    1    3    3    0  502 -0.11040634485E+03  0.28925899651E+01  0.76700443191E+02  0.13454730040E+03  0.47000000000E+01 0.  1.
        -11    1    4    4    0    0  0.15589189381E+03 -0.42141501608E+02  0.14546842043E+03  0.21734592256E+03  0.00000000000E+00 0.  1.
         11    1    4    4    0    0  0.54385227407E+01  0.13952733806E+02 -0.64754647968E+01  0.16315267530E+02  0.00000000000E+00 0. -1.
<mgrwt>
<rscale>  0 0.20130743E+03</rscale>
<asrwt>0</asrwt>
<pdfrwt beam="2">  1        2 0.12302209E-01 0.20601303E+03</pdfrwt>
<pdfrwt beam="1">  1       -2 0.78691704E-01 0.20601303E+03</pdfrwt>
<totfact> 0.72782308E+02</totfact>
</mgrwt>
</event>
<event>
 8    1  0.1646661E-005  0.1344851E+03  0.7546771E-02  0.1234843E+00
         -1   -1    0    0    0  501 -0.00000000000E+00  0.00000000000E+00  0.70768432778E+03  0.70768432778E+03  0.00000000000E+00 0.  1.
          1   -1    0    0  501    0  0.00000000000E+00 -0.00000000000E+00 -0.20564746761E+02  0.20564746761E+02  0.00000000000E+00 0. -1.
         23    2    1    2    0    0 -0.36768925188E+02  0.33311120354E+02  0.46987277046E+03  0.48873986070E+03  0.12499858567E+03 0.  0.
         23    2    1    2    0    0  0.36768925188E+02 -0.33311120354E+02  0.21724681056E+03  0.23950921384E+03  0.87788964095E+02 0.  0.
          5    1    3    3  502    0  0.35189329049E+02  0.36247363756E+02  0.29863660308E+03  0.30291594702E+03  0.47000000000E+01 0. -1.
         -5    1    3    3    0  502 -0.71958254237E+02 -0.29362434013E+01  0.17123616738E+03  0.18582391368E+03  0.47000000000E+01 0. -1.
        -11    1    4    4    0    0  0.33088208866E+02  0.48864520995E+01  0.18880254518E+03  0.19174229593E+03  0.00000000000E+00 0.  1.
         11    1    4    4    0    0  0.36807163217E+01 -0.38197572454E+02  0.28444265378E+02  0.47766917913E+02  0.00000000000E+00 0. -1.
<mgrwt>
<rscale>  0 0.12514473E+03</rscale>
<asrwt>0</asrwt>
<pdfrwt beam="2">  1        1 0.31638077E-02 0.13448506E+03</pdfrwt>
<pdfrwt beam="1">  1       -1 0.10887449E+00 0.13448506E+03</pdfrwt>
<totfact> 0.25372473E+03</totfact>
</mgrwt>
</event>
<event>
 8    1  0.1646661E-005  0.1408108E+03  0.7546771E-02  0.1223082E+00
          2   -1    0    0  501    0  0.00000000000E+00  0.00000000000E+00  0.30929740082E+03  0.30929740082E+03  0.00000000000E+00 0. -1.
         -2   -1    0    0    0  501 -0.00000000000E+00 -0.00000000000E+00 -0.57760326208E+02  0.57760326208E+02  0.00000000000E+00 0.  1.
         23    2    1    2    0    0 -0.32920700007E+02  0.55848520282E+02  0.79363768333E+02  0.16163626254E+03  0.12499937575E+03 0.  0.
         23    2    1    2    0    0  0.32920700007E+02 -0.55848520282E+02  0.17217330628E+03  0.20542146449E+03  0.91386546991E+02 0.  0.
          5    1    3    3  502    0 -0.20810312132E+02  0.46024679035E+01  0.10186733273E+03  0.10417914993E+03  0.47000000000E+01 0.  1.
         -5    1    3    3    0  502 -0.12110387874E+02  0.51246052379E+02 -0.22503564400E+02  0.57457112611E+02  0.47000000000E+01 0.  1.
        -11    1    4    4    0    0  0.12417862781E+02 -0.29209833441E+02  0.18294696982E+01  0.31792524988E+02  0.00000000000E+00 0.  1.
         11    1    4    4    0    0  0.20502837226E+02 -0.26638686841E+02  0.17034383659E+03  0.17362893950E+03  0.00000000000E+00 0. -1.
<mgrwt>
<rscale>  0 0.13299218E+03</rscale>
<asrwt>0</asrwt>
<pdfrwt beam="1">  1        2 0.47584215E-01 0.14081077E+03</pdfrwt>
<pdfrwt beam="2">  1       -2 0.88862042E-02 0.14081077E+03</pdfrwt>
<totfact> 0.80706880E+03</totfact>
</mgrwt>
</event>
<event>
 7    1  0.1646661E-005  0.1952980E+03  0.7546771E-02  0.1164986E+00
         -3   -1    0    0    0  501 -0.00000000000E+00  0.00000000000E+00  0.13358223734E+03  0.13358223734E+03  0.00000000000E+00 0.  1.
          3   -1    0    0  501    0  0.00000000000E+00 -0.00000000000E+00 -0.22372566667E+03  0.22372566667E+03  0.00000000000E+00 0. -1.
         23    2    1    2    0    0 -0.12215734548E+03  0.47444740549E+01 -0.43095743650E+02  0.15642291715E+03  0.87555461275E+02 0.  0.
          5    1    1    2  502    0  0.15408137703E+03  0.82290853988E+01 -0.57241228113E+02  0.16464336242E+03  0.47000000000E+01 0. -1.
         -5    1    1    2    0  502 -0.31924031542E+02 -0.12973559454E+02  0.10193542426E+02  0.36241624439E+02  0.47000000000E+01 0.  1.
        -11    1    3    3    0    0 -0.38411019264E+00 -0.23606480494E+02  0.15512937055E+01  0.23660515086E+02  0.00000000000E+00 0. -1.
         11    1    3    3    0    0 -0.12177323529E+03  0.28350954549E+02 -0.44647037356E+02  0.13276240206E+03  0.00000000000E+00 0.  1.
<mgrwt>
<rscale>  0 0.18294181E+03</rscale>
<asrwt>0</asrwt>
<pdfrwt beam="2">  1        3 0.34419333E-01 0.19529796E+03</pdfrwt>
<pdfrwt beam="1">  1       -3 0.20551114E-01 0.19529796E+03</pdfrwt>
<totfact> 0.43161371E+02</totfact>
</mgrwt>
</event>
<event>
 8    1  0.1646661E-005  0.2255851E+03  0.7546771E-02  0.1133367E+00
          2   -1    0    0  501    0  0.00000000000E+00  0.00000000000E+00  0.45186231858E+03  0.45186231858E+03  0.00000000000E+00 0. -1.
         -2   -1    0    0    0  501 -0.00000000000E+00 -0.00000000000E+00 -0.10740979679E+03  0.10740979679E+03  0.00000000000E+00 0.  1.
         23    2    1    2    0    0 -0.14194239570E+03  0.12294278367E+03  0.23370995979E+03  0.32482149659E+03  0.12500435027E+03 0.  0.
         23    2    1    2    0    0  0.14194239570E+03 -0.12294278367E+03  0.11074256201E+03  0.23445061878E+03  0.86258946511E+02 0.  0.
          5    1    3    3  502    0 -0.14368191231E+03  0.14131545138E+03  0.22922765065E+03  0.30525719410E+03  0.47000000000E+01 0. -1.
         -5    1    3    3    0  502  0.17395166121E+01 -0.18372667709E+02  0.44823091401E+01  0.19564302493E+02  0.47000000000E+01 0. -1.
        -11    1    4    4    0    0  0.98835682622E+02 -0.43843322428E+02  0.93042977794E+02  0.14264545137E+03  0.00000000000E+00 0. -1.
         11    1    4    4    0    0  0.43106713079E+02 -0.79099461242E+02  0.17699584212E+02  0.91805167407E+02  0.00000000000E+00 0.  1.
<mgrwt>
<rscale>  0 0.22069394E+03</rscale>
<asrwt>0</asrwt>
<pdfrwt beam="1">  1        2 0.69517279E-01 0.22558515E+03</pdfrwt>
<pdfrwt beam="2">  1       -2 0.16524584E-01 0.22558515E+03</pdfrwt>
<totfact> 0.20181056E+03</totfact>
</mgrwt>
</event>
<event>
 8    1  0.1646661E-005  0.1455832E+03  0.7546771E-02  0.1216692E+00
          3   -1    0    0  501    0  0.00000000000E+00  0.00000000000E+00  0.20329084320E+03  0.20329084320E+03  0.00000000000E+00 0. -1.
         -3   -1    0    0    0  501 -0.00000000000E+00 -0.00000000000E+00 -0.86262173354E+02  0.86262173354E+02  0.00000000000E+00 0.  1.
         23    2    1    2    0    0  0.48620201355E+01  0.74472445987E+02  0.42272412016E+02  0.15159629153E+03  0.12499877734E+03 0.  0.
         23    2    1    2    0    0 -0.48620201355E+01 -0.74472445987E+02  0.74756257827E+02  0.13795672502E+03  0.88734296885E+02 0.  0.
          5    1    3    3  502    0  0.64180055114E+02  0.48461926816E+02  0.25960645094E+02  0.84638542750E+02  0.47000000000E+01 0. -1.
         -5    1    3    3    0  502 -0.59318034978E+02  0.26010519172E+02  0.16311766921E+02  0.66957748778E+02  0.47000000000E+01 0. -1.
        -11    1    4    4    0    0 -0.24055570905E+02 -0.48965916927E+02  0.87884700217E+02  0.10344105589E+03  0.00000000000E+00 0. -1.
         11    1    4    4    0    0  0.19193550770E+02 -0.25506529060E+02 -0.13128442391E+02  0.34515669130E+02  0.00000000000E+00 0.  1.
<mgrwt>
<rscale>  0 0.13753012E+03</rscale>
<asrwt>0</asrwt>
<pdfrwt beam="1">  1        3 0.31275514E-01 0.14558324E+03</pdfrwt>
<pdfrwt beam="2">  1       -3 0.13271104E-01 0.14558324E+03</pdfrwt>
<totfact> 0.10599959E+03</totfact>
</mgrwt>
</event>
<event>
 8    1  0.1646661E-005  0.1663164E+03  0.7546771E-02  0.1188976E+00
         -1   -1    0    0    0  501 -0.00000000000E+00  0.00000000000E+00  0.44410851162E+02  0.44410851162E+02  0.00000000000E+00 0.  1.
          1   -1    0    0  501    0  0.00000000000E+00 -0.00000000000E+00 -0.55720675285E+03  0.55720675285E+03  0.00000000000E+00 0. -1.
         23    2    1    2    0    0 -0.16949301390E+02 -0.10839569138E+03 -0.33779452788E+03  0.37651864178E+03  0.12499695922E+03 0.  0.
         23    2    1    2    0    0  0.16949301390E+02  0.10839569138E+03 -0.17500137381E+03  0.22509896224E+03  0.89482720337E+02 0.  0.
          5    1    3    3  502    0  0.43078869683E+02 -0.82548005535E+02 -0.14042452831E+03  0.16855592657E+03  0.47000000000E+01 0. -1.
         -5    1    3    3    0  502 -0.60028171073E+02 -0.25847685840E+02 -0.19736999957E+03  0.20796271520E+03  0.47000000000E+01 0. -1.
        -11    1    4    4    0    0 -0.10839870524E+02  0.76324327499E+02 -0.47096480389E+02  0.90338165945E+02  0.00000000000E+00 0.  1.
         11    1    4    4    0    0  0.27789171914E+02  0.32071363876E+02 -0.12790489342E+03  0.13476079629E+03  0.00000000000E+00 0. -1.
<mgrwt>
<rscale>  0 0.15975318E+03</rscale>
<asrwt>0</asrwt>
<pdfrwt beam="2">  1        1 0.85724118E-01 0.16631640E+03</pdfrwt>
<pdfrwt beam="1">  1       -1 0.68324384E-02 0.16631640E+03</pdfrwt>
<totfact> 0.41790024E+03</totfact>
</mgrwt>
</event>
<event>
 8    1  0.1646661E-005  0.1263448E+03  0.7546771E-02  0.1247901E+00
         -3   -1    0    0    0  501 -0.00000000000E+00  0.00000000000E+00  0.69385973528E+02  0.69385973528E+02  0.00000000000E+00 0.  1.
          3   -1    0    0  501    0  0.00000000000E+00 -0.00000000000E+00 -0.17418133491E+03  0.17418133491E+03  0.00000000000E+00 0. -1.
         23    2    1    2    0    0 -0.16437427053E+02 -0.82156151620E+01 -0.55289824269E+02  0.13791295470E+03  0.12500133226E+03 0.  0.
         23    2    1    2    0    0  0.16437427053E+02  0.82156151620E+01 -0.49505537117E+02  0.10565435374E+03  0.91511523417E+02 0.  0.
          5    1    3    3  502    0  0.13904325031E+02  0.44756139896E+02 -0.60260908367E+02  0.76484700367E+02  0.47000000000E+01 0. -1.
         -5    1    3    3    0  502 -0.30341752084E+02 -0.52971755058E+02  0.49710840985E+01  0.61428254335E+02  0.47000000000E+01 0. -1.
        -11    1    4    4    0    0  0.44662212071E+02  0.21478348304E+02 -0.29851005201E+01  0.49648196927E+02  0.00000000000E+00 0.  1.
         11    1    4    4    0    0 -0.28224785018E+02 -0.13262733142E+02 -0.46520436597E+02  0.56006156812E+02  0.00000000000E+00 0. -1.
<mgrwt>
<rscale>  0 0.11713404E+03</rscale>
<asrwt>0</asrwt>
<pdfrwt beam="2">  1        3 0.26797128E-01 0.12634484E+03</pdfrwt>
<pdfrwt beam="1">  1       -3 0.10674765E-01 0.12634484E+03</pdfrwt>
<totfact> 0.19816651E+03</totfact>
</mgrwt>
</event>
<event>
 8    1  0.1646661E-005  0.1458348E+03  0.7546771E-02  0.1215635E+00
         -2   -1    0    0    0  501 -0.00000000000E+00  0.00000000000E+00  0.19946808910E+03  0.19946808910E+03  0.00000000000E+00 0.  1.
          2   -1    0    0  501    0  0.00000000000E+00 -0.00000000000E+00 -0.10245230746E+03  0.10245230746E+03  0.00000000000E+00 0. -1.
         23    2    1    2    0    0 -0.44791120997E+02  0.60307676158E+02  0.11082117961E+03  0.18316417315E+03  0.12499808060E+03 0.  0.
         23    2    1    2    0    0  0.44791120997E+02 -0.60307676158E+02 -0.13805397970E+02  0.11875622341E+03  0.90935093674E+02 0.  0.
          5    1    3    3  502    0 -0.38287107846E+02  0.71538685516E+02  0.10562062207E+02  0.81959339374E+02  0.47000000000E+01 0.  1.
         -5    1    3    3    0  502 -0.65040131512E+01 -0.11231009358E+02  0.10025911740E+03  0.10120483378E+03  0.47000000000E+01 0.  1.
        -11    1    4    4    0    0  0.48736898984E+02 -0.80837710312E+02 -0.13123872870E+01  0.94402029064E+02  0.00000000000E+00 0.  1.
         11    1    4    4    0    0 -0.39457779871E+01  0.20530034154E+02 -0.12493010683E+02  0.24354194345E+02  0.00000000000E+00 0. -1.
<mgrwt>
<rscale>  0 0.13829971E+03</rscale>
<asrwt>0</asrwt>
<pdfrwt beam="2">  1        2 0.15761893E-01 0.14583477E+03</pdfrwt>
<pdfrwt beam="1">  1       -2 0.30687398E-01 0.14583477E+03</pdfrwt>
<totfact> 0.34723078E+03</totfact>
</mgrwt>
</event>
<event>
 8    1  0.1646661E-005  0.1446029E+03  0.7546771E-02  0.1217735E+00
          3   -1    0    0  501    0  0.00000000000E+00  0.00000000000E+00  0.21395458811E+02  0.21395458811E+02  0.00000000000E+00 0. -1.
         -3   -1    0    0    0  501 -0.00000000000E+00 -0.00000000000E+00 -0.80595877340E+03  0.80595877340E+03  0.00000000000E+00 0.  1.
         23    2    1    2    0    0 -0.41834663389E+02  0.59827472141E+02 -0.48913887319E+03  0.51006553236E+03  0.12482205153E+03 0.  0.
         23    2    1    2    0    0  0.41834663389E+02 -0.59827472141E+02 -0.29542444139E+03  0.31728869985E+03  0.89816774585E+02 0.  0.
          5    1    3    3  502    0 -0.30431316700E+02 -0.34831894050E+02 -0.11751741678E+03  0.12637942525E+03  0.47000000000E+01 0.  1.
         -5    1    3    3    0  502 -0.11403346688E+02  0.94659366191E+02 -0.37162145641E+03  0.38368610711E+03  0.47000000000E+01 0.  1.
        -11    1    4    4    0    0  0.42761742178E+02 -0.16357380226E+01 -0.53745292835E+02  0.68700791370E+02  0.00000000000E+00 0.  1.
         11    1    4    4    0    0 -0.92707878945E+00 -0.58191734119E+02 -0.24167914856E+03  0.24858790848E+03  0.00000000000E+00 0. -1.
<mgrwt>
<rscale>  0 0.13677503E+03</rscale>
<asrwt>0</asrwt>
<pdfrwt beam="1">  1        3 0.32916090E-02 0.14460294E+03</pdfrwt>
<pdfrwt beam="2">  1       -3 0.12399366E+00 0.14460294E+03</pdfrwt>
<totfact> 0.56445465E+02</totfact>
</mgrwt>
</event>
<event>
 8    1  0.1646661E-005  0.1324310E+03  0.7546771E-02  0.1237274E+00
         -2   -1    0    0    0  501 -0.00000000000E+00  0.00000000000E+00  0.17559585347E+03  0.17559585347E+03  0.00000000000E+00 0.  1.
          2   -1    0    0  501    0  0.00000000000E+00 -0.00000000000E+00 -0.91599786918E+02  0.91599786918E+02  0.00000000000E+00 0. -1.
         23    2    1    2    0    0  0.39597305428E+02 -0.18638738684E+02  0.99336251782E+02  0.16554657353E+03  0.12499051129E+03 0.  0.
         23    2    1    2    0    0 -0.39597305428E+02  0.18638738684E+02 -0.15340185232E+02  0.10164906685E+03  0.90453647423E+02 0.  0.
          5    1    3    3  502    0 -0.34678143159E+02  0.81017920716E+01 -0.31926103157E+01  0.36062382178E+02  0.47000000000E+01 0. -1.
         -5    1    3    3    0  502  0.74275448587E+02 -0.26740530755E+02  0.10252886210E+03  0.12948419135E+03  0.47000000000E+01 0. -1.
        -11    1    4    4    0    0  0.21501031096E+02 -0.66532903499E+01 -0.26305280681E+02  0.34619768954E+02  0.00000000000E+00 0. -1.
         11    1    4    4    0    0 -0.61098336524E+02  0.25292029034E+02  0.10965095449E+02  0.67029297899E+02  0.00000000000E+00 0.  1.
<mgrwt>
<rscale>  0 0.12359972E+03</rscale>
<asrwt>0</asrwt>
<pdfrwt beam="2">  1        2 0.14092275E-01 0.13243103E+03</pdfrwt>
<pdfrwt beam="1">  1       -2 0.27014747E-01 0.13243103E+03</pdfrwt>
<totfact> 0.49431048E+03</totfact>
</mgrwt>
</event>
<event>
 8    1  0.1646661E-005  0.4781537E+03  0.7546771E-02  0.1020211E+00
          2   -1    0    0  501    0  0.00000000000E+00  0.00000000000E+00  0.21488165975E+04  0.21488165975E+04  0.00000000000E+00 0.  1.
         -2   -1    0    0    0  501 -0.00000000000E+00 -0.00000000000E+00 -0.12660971060E+03  0.12660971060E+03  0.00000000000E+00 0. -1.
         23    2    1    2    0    0  0.36375648534E+03 -0.28405518103E+03  0.54387495636E+03  0.72417601271E+03  0.12499921091E+03 0.  0.
         23    2    1    2    0    0 -0.36375648534E+03  0.28405518103E+03  0.14783319306E+04  0.15512502954E+04  0.88916003140E+02 0.  0.
          5    1    3    3  502    0  0.18021932080E+03 -0.13224587659E+03  0.17009307065E+03  0.28093009477E+03  0.47000000000E+01 0. -1.
         -5    1    3    3    0  502  0.18353716454E+03 -0.15180930444E+03  0.37378188571E+03  0.44324591794E+03  0.47000000000E+01 0. -1.
        -11    1    4    4    0    0 -0.38020037551E+02  0.33947876312E+01  0.87262571164E+02  0.95246019154E+02  0.00000000000E+00 0.  1.
         11    1    4    4    0    0 -0.32573644779E+03  0.28066039340E+03  0.13910693594E+04  0.14560042763E+04  0.00000000000E+00 0. -1.
<mgrwt>
<rscale>  0 0.47610537E+03</rscale>
<asrwt>0</asrwt>
<pdfrwt beam="1">  1        2 0.33058714E+00 0.47815367E+03</pdfrwt>
<pdfrwt beam="2">  1       -2 0.19478419E-01 0.47815367E+03</pdfrwt>
<totfact> 0.13135915E+02</totfact>
</mgrwt>
</event>
<event>
 8    1  0.1646661E-005  0.1687644E+03  0.7546771E-02  0.1185765E+00
         -1   -1    0    0    0  501 -0.00000000000E+00  0.00000000000E+00  0.13451518246E+03  0.13451518246E+03  0.00000000000E+00 0.  1.
          1   -1    0    0  501    0  0.00000000000E+00 -0.00000000000E+00 -0.19398556337E+03  0.19398556337E+03  0.00000000000E+00 0. -1.
         23    2    1    2    0    0  0.31483333427E+02  0.10893378456E+03  0.61479144737E+01  0.16887634498E+03  0.12499461324E+03 0.  0.
         23    2    1    2    0    0 -0.31483333427E+02 -0.10893378456E+03 -0.65618295376E+02  0.15962440085E+03  0.91194401999E+02 0.  0.
          5    1    3    3  502    0  0.59900846941E+02  0.73939100830E+02  0.48443440517E+02  0.10688292205E+03  0.47000000000E+01 0. -1.
         -5    1    3    3    0  502 -0.28417513513E+02  0.34994683733E+02 -0.42295526043E+02  0.61993422934E+02  0.47000000000E+01 0. -1.
        -11    1    4    4    0    0 -0.70994316183E+01 -0.13290479905E+02  0.22654121247E+02  0.27207498872E+02  0.00000000000E+00 0.  1.
         11    1    4    4    0    0 -0.24383901809E+02 -0.95643304658E+02 -0.88272416622E+02  0.13241690198E+03  0.00000000000E+00 0. -1.
<mgrwt>
<rscale>  0 0.16262469E+03</rscale>
<asrwt>0</asrwt>
<pdfrwt beam="2">  1        1 0.29843933E-01 0.16876440E+03</pdfrwt>
<pdfrwt beam="1">  1       -1 0.20694643E-01 0.16876440E+03</pdfrwt>
<totfact> 0.28422647E+03</totfact>
</mgrwt>
</event>
<event>
 8    1  0.1646661E-005  0.1545421E+03  0.7546771E-02  0.1203766E+00
         -1   -1    0    0    0  501 -0.00000000000E+00  0.00000000000E+00  0.52369456731E+02  0.52369456731E+02  0.00000000000E+00 0.  1.
          1   -1    0    0  501    0  0.00000000000E+00 -0.00000000000E+00 -0.49040519905E+03  0.49040519905E+03  0.00000000000E+00 0. -1.
         23    2    1    2    0    0 -0.84083983740E+02  0.34471472579E+02 -0.10704273966E+03  0.18799314691E+03  0.12499950572E+03 0.  0.
         23    2    1    2    0    0  0.84083983740E+02 -0.34471472579E+02 -0.33099300267E+03  0.35478150887E+03  0.89750501276E+02 0.  0.
          5    1    3    3  502    0 -0.63453560010E+02  0.74890006023E+02 -0.38258759077E+02  0.10545468186E+03  0.47000000000E+01 0.  1.
         -5    1    3    3    0  502 -0.20630423730E+02 -0.40418533443E+02 -0.68783980580E+02  0.82538465053E+02  0.47000000000E+01 0.  1.
        -11    1    4    4    0    0  0.16342620517E+02 -0.46346551429E+02 -0.74656972775E+02  0.89379794465E+02  0.00000000000E+00 0.  1.
         11    1    4    4    0    0  0.67741363223E+02  0.11875078850E+02 -0.25633602989E+03  0.26540171441E+03  0.00000000000E+00 0. -1.
<mgrwt>
<rscale>  0 0.14735123E+03</rscale>
<asrwt>0</asrwt>
<pdfrwt beam="2">  1        1 0.75446955E-01 0.15454215E+03</pdfrwt>
<pdfrwt beam="1">  1       -1 0.80568393E-02 0.15454215E+03</pdfrwt>
<totfact> 0.38467883E+03</totfact>
</mgrwt>
</event>
<event>
 8    1  0.1646661E-005  0.4656004E+03  0.7546771E-02  0.1023657E+00
          1   -1    0    0  501    0  0.00000000000E+00  0.00000000000E+00  0.16937498179E+04  0.16937498179E+04  0.00000000000E+00 0. -1.
         -1   -1    0    0    0  501 -0.00000000000E+00 -0.00000000000E+00 -0.24938688009E+03  0.24938688009E+03  0.00000000000E+00 0.  1.
         23    2    1    2    0    0 -0.17479340403E+03  0.41304660025E+03  0.41847974853E+02  0.46747724645E+03  0.12499397938E+03 0.  0.
         23    2    1    2    0    0  0.17479340403E+03 -0.41304660025E+03  0.14025149630E+04  0.14756594516E+04  0.96759327909E+02 0.  0.
          5    1    3    3  502    0 -0.12317202562E+03  0.13522724908E+03  0.14821010432E+02  0.18357426056E+03  0.47000000000E+01 0.  1.
         -5    1    3    3    0  502 -0.51621378407E+02  0.27781935117E+03  0.27026964422E+02  0.28390298589E+03  0.47000000000E+01 0.  1.
        -11    1    4    4    0    0  0.13053522937E+03 -0.26688994976E+03  0.10557483628E+04  0.10967562614E+04  0.00000000000E+00 0. -1.
         11    1    4    4    0    0  0.44258174661E+02 -0.14615665049E+03  0.34676660016E+03  0.37890319013E+03  0.00000000000E+00 0.  1.
<mgrwt>
<rscale>  0 0.46389783E+03</rscale>
<asrwt>0</asrwt>
<pdfrwt beam="1">  1        1 0.26057689E+00 0.46560039E+03</pdfrwt>
<pdfrwt beam="2">  1       -1 0.38367213E-01 0.46560039E+03</pdfrwt>
<totfact> 0.34173362E+01</totfact>
</mgrwt>
</event>
<event>
 8    1  0.1646661E-005  0.1323507E+03  0.7546771E-02  0.1236915E+00
          2   -1    0    0  501    0  0.00000000000E+00  0.00000000000E+00  0.11056630419E+03  0.11056630419E+03  0.00000000000E+00 0. -1.
         -2   -1    0    0    0  501 -0.00000000000E+00 -0.00000000000E+00 -0.12714768523E+03  0.12714768523E+03  0.00000000000E+00 0.  1.
         23    2    1    2    0    0 -0.36418644305E+02 -0.23772854371E+02 -0.29167942562E+02  0.13552665340E+03  0.12500095460E+03 0.  0.
         23    2    1    2    0    0  0.36418644305E+02  0.23772854371E+02  0.12586561519E+02  0.10218733602E+03  0.91609845832E+02 0.  0.
          5    1    3    3  502    0 -0.64369230101E+02 -0.40857805283E+02  0.17452173823E+02  0.78354491942E+02  0.47000000000E+01 0.  1.
         -5    1    3    3    0  502  0.27950585796E+02  0.17084950913E+02 -0.46620116385E+02  0.57172161458E+02  0.47000000000E+01 0.  1.
        -11    1    4    4    0    0  0.23058363749E+01  0.41629688103E+02  0.37705541908E+02  0.56214372749E+02  0.00000000000E+00 0. -1.
         11    1    4    4    0    0  0.34112807930E+02 -0.17856833732E+02 -0.25118980390E+02  0.45972963268E+02  0.00000000000E+00 0.  1.
<mgrwt>
<rscale>  0 0.12382662E+03</rscale>
<asrwt>0</asrwt>
<pdfrwt beam="1">  1        2 0.17010201E-01 0.13235069E+03</pdfrwt>
<pdfrwt beam="2">  1       -2 0.19561182E-01 0.13235069E+03</pdfrwt>
<totfact> 0.69270948E+03</totfact>
</mgrwt>
</event>
<event>
 8    1  0.1646661E-005  0.1825983E+03  0.7546771E-02  0.1170137E+00
          1   -1    0    0  501    0  0.00000000000E+00  0.00000000000E+00  0.30497539126E+03  0.30497539126E+03  0.00000000000E+00 0. -1.
         -1   -1    0    0    0  501 -0.00000000000E+00 -0.00000000000E+00 -0.10402569368E+03  0.10402569368E+03  0.00000000000E+00 0.  1.
         23    2    1    2    0    0 -0.13025446122E+03  0.27331307669E+02  0.57231764131E+02  0.19135732257E+03  0.12501569912E+03 0.  0.
         23    2    1    2    0    0  0.13025446122E+03 -0.27331307669E+02  0.14371793344E+03  0.21764376237E+03  0.94872218590E+02 0.  0.
          5    1    3    3  502    0 -0.15086677091E+03  0.16601305816E+02  0.66667272040E+02  0.16584028787E+03  0.47000000000E+01 0. -1.
         -5    1    3    3    0  502  0.20612309685E+02  0.10730001854E+02 -0.94355079097E+01  0.25517034699E+02  0.47000000000E+01 0. -1.
        -11    1    4    4    0    0  0.85424120577E+02 -0.50985711248E+02  0.50571738079E+02  0.11159894184E+03  0.00000000000E+00 0.  1.
         11    1    4    4    0    0  0.44830340644E+02  0.23654403579E+02  0.93146195364E+02  0.10604482053E+03  0.00000000000E+00 0. -1.
<mgrwt>
<rscale>  0 0.17760897E+03</rscale>
<asrwt>0</asrwt>
<pdfrwt beam="1">  1        1 0.46919291E-01 0.18259833E+03</pdfrwt>
<pdfrwt beam="2">  1       -1 0.16003953E-01 0.18259833E+03</pdfrwt>
<totfact> 0.24469336E+03</totfact>
</mgrwt>
</event>
<event>
 8    1  0.1646661E-005  0.1403389E+03  0.7546771E-02  0.1224053E+00
         -2   -1    0    0    0  501 -0.00000000000E+00  0.00000000000E+00  0.23868185250E+03  0.23868185250E+03  0.00000000000E+00 0.  1.
          2   -1    0    0  501    0  0.00000000000E+00 -0.00000000000E+00 -0.66129596605E+02  0.66129596605E+02  0.00000000000E+00 0. -1.
         23    2    1    2    0    0  0.85936238989E+01 -0.63240624351E+02  0.98260348975E+02  0.17131873385E+03  0.12498714113E+03 0.  0.
         23    2    1    2    0    0 -0.85936238989E+01  0.63240624351E+02  0.74291906921E+02  0.13349271526E+03  0.90707169795E+02 0.  0.
          5    1    3    3  502    0 -0.56301305421E+02 -0.24340542341E+02  0.61803231096E+02  0.87201080082E+02  0.47000000000E+01 0. -1.
         -5    1    3    3    0  502  0.64894929320E+02 -0.38900082010E+02  0.36457117880E+02  0.84117653771E+02  0.47000000000E+01 0. -1.
        -11    1    4    4    0    0  0.18617634382E+02  0.42310801680E+02 -0.55746593754E+01  0.46560681653E+02  0.00000000000E+00 0. -1.
         11    1    4    4    0    0 -0.27211258281E+02  0.20929822671E+02  0.79866566297E+02  0.86932033603E+02  0.00000000000E+00 0.  1.
<mgrwt>
<rscale>  0 0.13232022E+03</rscale>
<asrwt>0</asrwt>
<pdfrwt beam="2">  1        2 0.10173784E-01 0.14033892E+03</pdfrwt>
<pdfrwt beam="1">  1       -2 0.36720285E-01 0.14033892E+03</pdfrwt>
<totfact> 0.42071661E+03</totfact>
</mgrwt>
</event>
<event>
 8    1  0.1646661E-005  0.1432415E+03  0.7546771E-02  0.1219612E+00
         -2   -1    0    0    0  501 -0.00000000000E+00  0.00000000000E+00  0.28964759920E+02  0.28964759920E+02  0.00000000000E+00 0.  1.
          2   -1    0    0  501    0  0.00000000000E+00 -0.00000000000E+00 -0.63530717265E+03  0.63530717265E+03  0.00000000000E+00 0. -1.
         23    2    1    2    0    0 -0.69923052434E+02 -0.20197829966E+01 -0.23046931314E+03  0.27135626291E+03  0.12499921734E+03 0.  0.
         23    2    1    2    0    0  0.69923052434E+02  0.20197829966E+01 -0.37587309959E+03  0.39291566966E+03  0.90602558930E+02 0.  0.
          5    1    3    3  502    0 -0.49674660599E+02 -0.37243912390E+02 -0.22068731766E+03  0.22930255797E+03  0.47000000000E+01 0. -1.
         -5    1    3    3    0  502 -0.20248391835E+02  0.35224129393E+02 -0.97819954782E+01  0.42053704937E+02  0.47000000000E+01 0. -1.
        -11    1    4    4    0    0  0.22624855700E+02 -0.33524341790E+02 -0.65705360959E+02  0.77155427849E+02  0.00000000000E+00 0.  1.
         11    1    4    4    0    0  0.47298196734E+02  0.35544124787E+02 -0.31016773863E+03  0.31576024181E+03  0.00000000000E+00 0. -1.
<mgrwt>
<rscale>  0 0.13543139E+03</rscale>
<asrwt>0</asrwt>
<pdfrwt beam="2">  1        2 0.97739560E-01 0.14324146E+03</pdfrwt>
<pdfrwt beam="1">  1       -2 0.44561171E-02 0.14324146E+03</pdfrwt>
<totfact> 0.10547496E+04</totfact>
</mgrwt>
</event>
<event>
 8    1  0.1646661E-005  0.1738348E+03  0.7546771E-02  0.1180213E+00
          1   -1    0    0  501    0  0.00000000000E+00  0.00000000000E+00  0.38250562227E+03  0.38250562227E+03  0.00000000000E+00 0. -1.
         -1   -1    0    0    0  501 -0.00000000000E+00 -0.00000000000E+00 -0.93014366781E+02  0.93014366781E+02  0.00000000000E+00 0.  1.
         23    2    1    2    0    0  0.33807130212E+02 -0.11597595680E+03  0.31430244384E+02  0.17665336929E+03  0.12500083205E+03 0.  0.
         23    2    1    2    0    0 -0.33807130212E+02  0.11597595680E+03  0.25806101111E+03  0.29886661976E+03  0.90179966423E+02 0.  0.
          5    1    3    3  502    0 -0.26146639615E+02 -0.25883083363E+02 -0.33823466069E+02  0.50196589769E+02  0.47000000000E+01 0. -1.
         -5    1    3    3    0  502  0.59953769827E+02 -0.90092873433E+02  0.65253710453E+02  0.12645677952E+03  0.47000000000E+01 0. -1.
        -11    1    4    4    0    0 -0.27959231236E+02  0.39560254141E+02  0.19094291309E+03  0.19699220385E+03  0.00000000000E+00 0. -1.
         11    1    4    4    0    0 -0.58478989753E+01  0.76415702656E+02  0.67118098016E+02  0.10187441591E+03  0.00000000000E+00 0.  1.
<mgrwt>
<rscale>  0 0.16775190E+03</rscale>
<asrwt>0</asrwt>
<pdfrwt beam="1">  1        1 0.58847018E-01 0.17383484E+03</pdfrwt>
<pdfrwt beam="2">  1       -1 0.14309903E-01 0.17383484E+03</pdfrwt>
<totfact> 0.21928833E+03</totfact>
</mgrwt>
</event>
<event>
 8    1  0.1646661E-005  0.1886864E+03  0.7546771E-02  0.1164458E+00
         -1   -1    0    0    0  501 -0.00000000000E+00  0.00000000000E+00  0.40747952396E+02  0.40747952396E+02  0.00000000000E+00 0.  1.
          1   -1    0    0  501    0  0.00000000000E+00 -0.00000000000E+00 -0.10375781292E+04  0.10375781292E+04  0.00000000000E+00 0. -1.
         23    2    1    2    0    0  0.69467504952E+02  0.12308495172E+03 -0.25314832934E+03  0.31573191316E+03  0.12500769881E+03 0.  0.
         23    2    1    2    0    0 -0.69467504952E+02 -0.12308495172E+03 -0.74368184743E+03  0.76259416839E+03  0.92257985500E+02 0.  0.
          5    1    3    3  502    0 -0.51311770305E+01  0.51593800796E+01  0.12745384660E+02  0.15410483790E+02  0.47000000000E+01 0.  1.
         -5    1    3    3    0  502  0.74598681982E+02  0.11792557164E+03 -0.26589371400E+03  0.30032142937E+03  0.47000000000E+01 0.  1.
        -11    1    4    4    0    0  0.13408600515E+02 -0.36092949302E+02 -0.88897100241E+02  0.96877169593E+02  0.00000000000E+00 0. -1.
         11    1    4    4    0    0 -0.82876105466E+02 -0.86992002413E+02 -0.65478474719E+03  0.66571699880E+03  0.00000000000E+00 0.  1.
<mgrwt>
<rscale>  0 0.18350025E+03</rscale>
<asrwt>0</asrwt>
<pdfrwt beam="2">  1        1 0.15962739E+00 0.18868642E+03</pdfrwt>
<pdfrwt beam="1">  1       -1 0.62689162E-02 0.18868642E+03</pdfrwt>
<totfact> 0.18690967E+03</totfact>
</mgrwt>
</event>
<event>
 8    1  0.1646661E-005  0.1275605E+03  0.7546771E-02  0.1245198E+00
          2   -1    0    0  501    0  0.00000000000E+00  0.00000000000E+00  0.10539730455E+03  0.10539730455E+03  0.00000000000E+00 0. -1.
         -2   -1    0    0    0  501 -0.00000000000E+00 -0.00000000000E+00 -0.13591128154E+03  0.13591128154E+03  0.00000000000E+00 0.  1.
         23    2    1    2    0    0  0.11828392443E+02 -0.22525593316E+02 -0.60204353218E+02  0.14105404228E+03  0.12499746188E+03 0.  0.
         23    2    1    2    0    0 -0.11828392443E+02  0.22525593316E+02  0.29690376224E+02  0.10025454381E+03  0.92315447745E+02 0.  0.
          5    1    3    3  502    0  0.32161671049E+02 -0.47701622089E+02 -0.83066878922E+02  0.10115341916E+03  0.47000000000E+01 0. -1.
         -5    1    3    3    0  502 -0.20333278605E+02  0.25176028773E+02  0.22862525704E+02  0.39900623118E+02  0.47000000000E+01 0. -1.
        -11    1    4    4    0    0 -0.36767283572E+02  0.17251251945E+02 -0.19348198355E+02  0.44986571491E+02  0.00000000000E+00 0. -1.
         11    1    4    4    0    0  0.24938891129E+02  0.52743413703E+01  0.49038574579E+02  0.55267972320E+02  0.00000000000E+00 0.  1.
<mgrwt>
<rscale>  0 0.11873536E+03</rscale>
<asrwt>0</asrwt>
<pdfrwt beam="1">  1        2 0.16214970E-01 0.12756049E+03</pdfrwt>
<pdfrwt beam="2">  1       -2 0.20909428E-01 0.12756049E+03</pdfrwt>
<totfact> 0.65215770E+03</totfact>
</mgrwt>
</event>
<event>
 8    1  0.1646661E-005  0.1641813E+03  0.7546771E-02  0.1189372E+00
         -2   -1    0    0    0  501 -0.00000000000E+00  0.00000000000E+00  0.45721335816E+02  0.45721335816E+02  0.00000000000E+00 0. -1.
          2   -1    0    0  501    0  0.00000000000E+00 -0.00000000000E+00 -0.54242975362E+03  0.54242975362E+03  0.00000000000E+00 0.  1.
         23    2    1    2    0    0  0.81593985229E+02  0.68356005856E+02 -0.21099534557E+03  0.26734719566E+03  0.12500146084E+03 0.  0.
         23    2    1    2    0    0 -0.81593985229E+02 -0.68356005856E+02 -0.28571307223E+03  0.32080389378E+03  0.99765007167E+02 0.  0.
          5    1    3    3  502    0  0.85825451826E+02 -0.67110617123E+01 -0.88588652582E+02  0.12361668939E+03  0.47000000000E+01 0.  1.
         -5    1    3    3    0  502 -0.42314665969E+01  0.75067067568E+02 -0.12240669298E+03  0.14373050626E+03  0.47000000000E+01 0.  1.
        -11    1    4    4    0    0 -0.50774619350E+02 -0.90099474574E+02 -0.24134304611E+03  0.26256893037E+03  0.00000000000E+00 0. -1.
         11    1    4    4    0    0 -0.30819365879E+02  0.21743468718E+02 -0.44370026120E+02  0.58234963406E+02  0.00000000000E+00 0.  1.
<mgrwt>
<rscale>  0 0.15940328E+03</rscale>
<asrwt>0</asrwt>
<pdfrwt beam="2">  1        2 0.83450726E-01 0.16418126E+03</pdfrwt>
<pdfrwt beam="1">  1       -2 0.70340521E-02 0.16418126E+03</pdfrwt>
<totfact> 0.63722549E+03</totfact>
</mgrwt>
</event>
<event>
 8    1  0.1646661E-005  0.1405414E+03  0.7546771E-02  0.1223953E+00
         -1   -1    0    0    0  501 -0.00000000000E+00  0.00000000000E+00  0.34648583169E+02  0.34648583169E+02  0.00000000000E+00 0.  1.
          1   -1    0    0  501    0  0.00000000000E+00 -0.00000000000E+00 -0.47810966588E+03  0.47810966588E+03  0.00000000000E+00 0. -1.
         23    2    1    2    0    0  0.13178371478E+02  0.62865355123E+02 -0.19123948531E+03  0.23732766155E+03  0.12500462329E+03 0.  0.
         23    2    1    2    0    0 -0.13178371478E+02 -0.62865355123E+02 -0.25222159740E+03  0.27543058750E+03  0.90114105365E+02 0.  0.
          5    1    3    3  502    0 -0.31151726148E+02  0.24825952857E+02 -0.17051423259E+03  0.17516835186E+03  0.47000000000E+01 0. -1.
         -5    1    3    3    0  502  0.44330097626E+02  0.38039402266E+02 -0.20725252715E+02  0.62159309684E+02  0.47000000000E+01 0. -1.
        -11    1    4    4    0    0 -0.48723460343E+02 -0.56324149057E+02 -0.16601551804E+03  0.18195476796E+03  0.00000000000E+00 0.  1.
         11    1    4    4    0    0  0.35545088865E+02 -0.65412060668E+01 -0.86206079368E+02  0.93475819543E+02  0.00000000000E+00 0. -1.
<mgrwt>
<rscale>  0 0.13238953E+03</rscale>
<asrwt>0</asrwt>
<pdfrwt beam="2">  1        1 0.73555329E-01 0.14054138E+03</pdfrwt>
<pdfrwt beam="1">  1       -1 0.53305515E-02 0.14054138E+03</pdfrwt>
<totfact> 0.73465654E+03</totfact>
</mgrwt>
</event>
<event>
 8    1  0.1646661E-005  0.1267246E+03  0.7546771E-02  0.1244575E+00
         -1   -1    0    0    0  501 -0.00000000000E+00  0.00000000000E+00  0.50070335349E+02  0.50070335349E+02  0.00000000000E+00 0.  1.
          1   -1    0    0  501    0  0.00000000000E+00 -0.00000000000E+00 -0.27818418704E+03  0.27818418704E+03  0.00000000000E+00 0. -1.
         23    2    1    2    0    0 -0.19743575349E+02 -0.67076663267E+01 -0.79022396779E+02  0.14934414643E+03  0.12499733327E+03 0.  0.
         23    2    1    2    0    0  0.19743575349E+02  0.67076663267E+01 -0.14909145491E+03  0.17891037596E+03  0.96673983794E+02 0.  0.
          5    1    3    3  502    0 -0.21999854435E+02  0.23056995247E+02  0.25155762909E+02  0.40872007934E+02  0.47000000000E+01 0. -1.
         -5    1    3    3    0  502  0.22562790862E+01 -0.29764661574E+02 -0.10417815969E+03  0.10847213850E+03  0.47000000000E+01 0. -1.
        -11    1    4    4    0    0  0.24773619369E+02  0.43051616469E+02 -0.12630315115E+03  0.13571904763E+03  0.00000000000E+00 0. -1.
         11    1    4    4    0    0 -0.50300440203E+01 -0.36343950143E+02 -0.22788303756E+02  0.43191328330E+02  0.00000000000E+00 0.  1.
<mgrwt>
<rscale>  0 0.11910825E+03</rscale>
<asrwt>0</asrwt>
<pdfrwt beam="2">  1        1 0.42797568E-01 0.12672464E+03</pdfrwt>
<pdfrwt beam="1">  1       -1 0.77031285E-02 0.12672464E+03</pdfrwt>
<totfact> 0.83051253E+03</totfact>
</mgrwt>
</event>
<event>
 8    1  0.1646661E-005  0.1339522E+03  0.7546771E-02  0.1232039E+00
         -1   -1    0    0    0  501 -0.00000000000E+00  0.00000000000E+00  0.15788650552E+03  0.15788650552E+03  0.00000000000E+00 0.  1.
          1   -1    0    0  501    0  0.00000000000E+00 -0.00000000000E+00 -0.95025165966E+02  0.95025165966E+02  0.00000000000E+00 0. -1.
         23    2    1    2    0    0 -0.22660746648E+01  0.48103163257E+02  0.15323284637E+02  0.13482576776E+03  0.12499654071E+03 0.  0.
         23    2    1    2    0    0  0.22660746648E+01 -0.48103163257E+02  0.47538054917E+02  0.11808590373E+03  0.96774813795E+02 0.  0.
          5    1    3    3  502    0 -0.40521120114E+02  0.82215293506E+01  0.53290275493E+02  0.67612855156E+02  0.47000000000E+01 0.  1.
         -5    1    3    3    0  502  0.38255045450E+02  0.39881633907E+02 -0.37966990856E+02  0.67212912599E+02  0.47000000000E+01 0.  1.
        -11    1    4    4    0    0 -0.14818682177E+02 -0.47241219528E+02  0.72519421032E+02  0.87808841188E+02  0.00000000000E+00 0.  1.
         11    1    4    4    0    0  0.17084756842E+02 -0.86194372909E+00 -0.24981366114E+02  0.30277062544E+02  0.00000000000E+00 0. -1.
<mgrwt>
<rscale>  0 0.12695891E+03</rscale>
<asrwt>0</asrwt>
<pdfrwt beam="2">  1        1 0.14619256E-01 0.13395217E+03</pdfrwt>
<pdfrwt beam="1">  1       -1 0.24290232E-01 0.13395217E+03</pdfrwt>
<totfact> 0.53630231E+03</totfact>
</mgrwt>
</event>
<event>
 8    1  0.1646661E-005  0.3289631E+03  0.7546771E-02  0.1073141E+00
         -2   -1    0    0    0  501 -0.00000000000E+00  0.00000000000E+00  0.32814214232E+03  0.32814214232E+03  0.00000000000E+00 0. -1.
          2   -1    0    0  501    0  0.00000000000E+00 -0.00000000000E+00 -0.31937376376E+03  0.31937376376E+03  0.00000000000E+00 0.  1.
         23    2    1    2    0    0 -0.15509420040E+03 -0.26179510902E+03  0.36238065482E+02  0.33095299769E+03  0.12500319669E+03 0.  0.
         23    2    1    2    0    0  0.15509420040E+03  0.26179510902E+03 -0.27469686919E+02  0.31656290839E+03  0.82864957371E+02 0.  0.
          5    1    3    3  502    0 -0.14389848031E+03 -0.26144953615E+03  0.59838562005E+02  0.30440988173E+03  0.47000000000E+01 0. -1.
         -5    1    3    3    0  502 -0.11195720095E+02 -0.34557287221E+00 -0.23600496523E+02  0.26543115966E+02  0.47000000000E+01 0. -1.
        -11    1    4    4    0    0  0.13016656688E+03  0.25190966267E+03 -0.84345194897E+01  0.28367755356E+03  0.00000000000E+00 0. -1.
         11    1    4    4    0    0  0.24927633525E+02  0.98854463590E+01 -0.19035167429E+02  0.32885354824E+02  0.00000000000E+00 0.  1.
<mgrwt>
<rscale>  0 0.32551052E+03</rscale>
<asrwt>0</asrwt>
<pdfrwt beam="2">  1        2 0.49134425E-01 0.32896305E+03</pdfrwt>
<pdfrwt beam="1">  1       -2 0.50483406E-01 0.32896305E+03</pdfrwt>
<totfact> 0.38632763E+02</totfact>
</mgrwt>
</event>
<event>
 8    1  0.1646661E-005  0.1605512E+03  0.7546771E-02  0.1195698E+00
         -2   -1    0    0    0  501 -0.00000000000E+00  0.00000000000E+00  0.11320443089E+04  0.11320443089E+04  0.00000000000E+00 0.  1.
          2   -1    0    0  501    0  0.00000000000E+00 -0.00000000000E+00 -0.30962611817E+02  0.30962611817E+02  0.00000000000E+00 0. -1.
         23    2    1    2    0    0 -0.63666133168E+02 -0.78090560675E+02  0.93417738926E+03  0.94787345579E+03  0.12500072564E+03 0.  0.
         23    2    1    2    0    0  0.63666133168E+02  0.78090560675E+02  0.16690430779E+03  0.21513346490E+03  0.90960692497E+02 0.  0.
          5    1    3    3  502    0 -0.28788177294E+02 -0.10815927308E+02  0.71938350763E+03  0.72005587595E+03  0.47000000000E+01 0.  1.
         -5    1    3    3    0  502 -0.34877955874E+02 -0.67274633367E+02  0.21479388163E+03  0.22781757985E+03  0.47000000000E+01 0.  1.
        -11    1    4    4    0    0  0.37141929163E+02  0.27514306753E+02  0.14788471299E+03  0.15494014429E+03  0.00000000000E+00 0.  1.
         11    1    4    4    0    0  0.26524204005E+02  0.50576253922E+02  0.19019594807E+02  0.60193320605E+02  0.00000000000E+00 0. -1.
<mgrwt>
<rscale>  0 0.15395266E+03</rscale>
<asrwt>0</asrwt>
<pdfrwt beam="2">  1        2 0.47634796E-02 0.16055122E+03</pdfrwt>
<pdfrwt beam="1">  1       -2 0.17416063E+00 0.16055122E+03</pdfrwt>
<totfact> 0.35356666E+02</totfact>
</mgrwt>
</event>
<event>
 8    1  0.1646661E-005  0.2498469E+03  0.7546771E-02  0.1115763E+00
          2   -1    0    0  501    0  0.00000000000E+00  0.00000000000E+00  0.14487577998E+03  0.14487577998E+03  0.00000000000E+00 0.  1.
         -2   -1    0    0    0  501 -0.00000000000E+00 -0.00000000000E+00 -0.42719605418E+03  0.42719605418E+03  0.00000000000E+00 0. -1.
         23    2    1    2    0    0  0.21446162230E+03 -0.28407059075E+02 -0.20841195431E+03  0.32535985544E+03  0.12499097722E+03 0.  0.
         23    2    1    2    0    0 -0.21446162230E+03  0.28407059075E+02 -0.73908319884E+02  0.24671197871E+03  0.92755658845E+02 0.  0.
          5    1    3    3  502    0  0.14631934142E+03 -0.96822037018E+01 -0.20799650693E+03  0.25453434274E+03  0.47000000000E+01 0.  1.
         -5    1    3    3    0  502  0.68142280880E+02 -0.18724855373E+02 -0.41544738656E+00  0.70825512697E+02  0.47000000000E+01 0.  1.
        -11    1    4    4    0    0 -0.90700205447E+02  0.27301118447E+02 -0.78261936324E+02  0.12286907265E+03  0.00000000000E+00 0. -1.
         11    1    4    4    0    0 -0.12376141685E+03  0.11059406282E+01  0.43536164400E+01  0.12384290606E+03  0.00000000000E+00 0.  1.
<mgrwt>
<rscale>  0 0.24614925E+03</rscale>
<asrwt>0</asrwt>
<pdfrwt beam="1">  1        2 0.22288582E-01 0.24984694E+03</pdfrwt>
<pdfrwt beam="2">  1       -2 0.65722468E-01 0.24984694E+03</pdfrwt>
<totfact> 0.53594418E+02</totfact>
</mgrwt>
</event>
<event>
 8    1  0.1646661E-005  0.1777086E+03  0.7546771E-02  0.1175854E+00
          2   -1    0    0  501    0  0.00000000000E+00  0.00000000000E+00  0.23276134317E+03  0.23276134317E+03  0.00000000000E+00 0.  1.
         -2   -1    0    0    0  501 -0.00000000000E+00 -0.00000000000E+00 -0.11943288382E+03  0.11943288382E+03  0.00000000000E+00 0. -1.
         23    2    1    2    0    0  0.20742653384E+02 -0.12460068506E+03  0.56824650875E+02  0.18657273248E+03  0.12499902068E+03 0.  0.
         23    2    1    2    0    0 -0.20742653384E+02  0.12460068506E+03  0.56503808468E+02  0.16562149452E+03  0.91006651885E+02 0.  0.
          5    1    3    3  502    0 -0.23322569234E+02  0.14038976416E+02 -0.56241385958E+01  0.28191417655E+02  0.47000000000E+01 0.  1.
         -5    1    3    3    0  502  0.44065222617E+02 -0.13863966148E+03  0.62448789471E+02  0.15838131482E+03  0.47000000000E+01 0.  1.
        -11    1    4    4    0    0 -0.12760579255E+02  0.45151479152E+02  0.70369379474E+02  0.84577408450E+02  0.00000000000E+00 0.  1.
         11    1    4    4    0    0 -0.79820741289E+01  0.79449205908E+02 -0.13865571006E+02  0.81044086065E+02  0.00000000000E+00 0. -1.
<mgrwt>
<rscale>  0 0.17192656E+03</rscale>
<asrwt>0</asrwt>
<pdfrwt beam="1">  1        2 0.35809437E-01 0.17770859E+03</pdfrwt>
<pdfrwt beam="2">  1       -2 0.18374290E-01 0.17770859E+03</pdfrwt>
<totfact> 0.34267935E+03</totfact>
</mgrwt>
</event>
<event>
 8    1  0.1646661E-005  0.1413148E+03  0.7546771E-02  0.1221814E+00
          1   -1    0    0  501    0  0.00000000000E+00  0.00000000000E+00  0.15021468303E+03  0.15021468303E+03  0.00000000000E+00 0. -1.
         -1   -1    0    0    0  501 -0.00000000000E+00 -0.00000000000E+00 -0.15431290161E+03  0.15431290161E+03  0.00000000000E+00 0.  1.
         23    2    1    2    0    0  0.42042792590E+02 -0.50764122942E+02 -0.84970637274E+02  0.16489358839E+03  0.12500117483E+03 0.  0.
         23    2    1    2    0    0 -0.42042792590E+02  0.50764122942E+02  0.80872418691E+02  0.13963399624E+03  0.92804699316E+02 0.  0.
          5    1    3    3  502    0  0.35619599679E+02 -0.58887879086E+02  0.95946609795E+01  0.69646864278E+02  0.47000000000E+01 0. -1.
         -5    1    3    3    0  502  0.64231929110E+01  0.81237561438E+01 -0.94565298254E+02  0.95246724116E+02  0.47000000000E+01 0. -1.
        -11    1    4    4    0    0 -0.46658153381E+02 -0.62670083085E+01  0.92747800814E+01  0.47982082235E+02  0.00000000000E+00 0.  1.
         11    1    4    4    0    0  0.46153607907E+01  0.57031131250E+02  0.71597638610E+02  0.91651914008E+02  0.00000000000E+00 0. -1.
<mgrwt>
<rscale>  0 0.13387676E+03</rscale>
<asrwt>0</asrwt>
<pdfrwt beam="1">  1        1 0.23109951E-01 0.14131485E+03</pdfrwt>
<pdfrwt beam="2">  1       -1 0.23740446E-01 0.14131485E+03</pdfrwt>
<totfact> 0.31096580E+03</totfact>
</mgrwt>
</event>
<event>
 8    1  0.1646661E-005  0.3158975E+03  0.7546771E-02  0.1078935E+00
          4   -1    0    0  501    0  0.00000000000E+00  0.00000000000E+00  0.15829039789E+04  0.15829039789E+04  0.00000000000E+00 0. -1.
         -4   -1    0    0    0  501 -0.00000000000E+00 -0.00000000000E+00 -0.66665617651E+02  0.66665617651E+02  0.00000000000E+00 0.  1.
         23    2    1    2    0    0  0.25209249281E+03 -0.14358141266E+03  0.52543388533E+03  0.61308399050E+03  0.12499985824E+03 0.  0.
         23    2    1    2    0    0 -0.25209249281E+03  0.14358141266E+03  0.99080447594E+03  0.10364856061E+04  0.91883921667E+02 0.  0.
          5    1    3    3  502    0  0.24919897466E+03 -0.14598376846E+03  0.53125981245E+03  0.60470692732E+03  0.47000000000E+01 0.  1.
         -5    1    3    3    0  502  0.28935181574E+01  0.24023558004E+01 -0.58259271204E+01  0.83770631805E+01  0.47000000000E+01 0.  1.
        -11    1    4    4    0    0 -0.39741855428E+02  0.16316164093E+01  0.66030538839E+02  0.77085078351E+02  0.00000000000E+00 0.  1.
         11    1    4    4    0    0 -0.21235063738E+03  0.14194979625E+03  0.92477393710E+03  0.95940052773E+03  0.00000000000E+00 0. -1.
<mgrwt>
<rscale>  0 0.31296171E+03</rscale>
<asrwt>0</asrwt>
<pdfrwt beam="1">  1        4 0.24352366E+00 0.31589747E+03</pdfrwt>
<pdfrwt beam="2">  1       -4 0.10256250E-01 0.31589747E+03</pdfrwt>
<totfact> 0.10451957E+01</totfact>
</mgrwt>
</event>
<event>
 7    1  0.1646661E-005  0.1390800E+03  0.7546771E-02  0.1230324E+00
          2   -1    0    0  501    0  0.00000000000E+00  0.00000000000E+00  0.33538117011E+03  0.33538117011E+03  0.00000000000E+00 0. -1.
         -2   -1    0    0    0  501 -0.00000000000E+00 -0.00000000000E+00 -0.42682150213E+02  0.42682150213E+02  0.00000000000E+00 0.  1.
         23    2    1    2    0    0  0.12329923055E+02  0.33463803692E+02  0.11564560880E+03  0.15291636923E+03  0.93475429837E+02 0.  0.
          5    1    1    2  502    0 -0.66845202094E+02 -0.14895182666E+01  0.12983594444E+03  0.14611626253E+03  0.47000000000E+01 0. -1.
         -5    1    1    2    0  502  0.54515279040E+02 -0.31974285425E+02  0.47217466662E+02  0.79030688566E+02  0.47000000000E+01 0.  1.
        -11    1    3    3    0    0 -0.28411289462E+02  0.28581249660E+02  0.10200246978E+03  0.10967494264E+03  0.00000000000E+00 0. -1.
         11    1    3    3    0    0  0.40741212517E+02  0.48825540318E+01  0.13643139015E+02  0.43241426589E+02  0.00000000000E+00 0.  1.
<mgrwt>
<rscale>  0 0.12808552E+03</rscale>
<asrwt>0</asrwt>
<pdfrwt beam="1">  1        2 0.51597101E-01 0.13907997E+03</pdfrwt>
<pdfrwt beam="2">  1       -2 0.65664849E-02 0.13907997E+03</pdfrwt>
<totfact> 0.11793799E+04</totfact>
</mgrwt>
</event>
<event>
 8    1  0.1646661E-005  0.1264217E+03  0.7546771E-02  0.1249697E+00
         -1   -1    0    0    0  501 -0.00000000000E+00  0.00000000000E+00  0.49454479651E+02  0.49454479651E+02  0.00000000000E+00 0.  1.
          1   -1    0    0  501    0  0.00000000000E+00 -0.00000000000E+00 -0.25692129842E+03  0.25692129842E+03  0.00000000000E+00 0. -1.
         23    2    1    2    0    0  0.18832743860E+02  0.17737316377E+01 -0.77259964672E+02  0.14816052318E+03  0.12499848048E+03 0.  0.
         23    2    1    2    0    0 -0.18832743860E+02 -0.17737316377E+01 -0.13020685410E+03  0.15821525489E+03  0.87865941419E+02 0.  0.
          5    1    3    3  502    0  0.24369240369E+02 -0.14250356351E+02  0.28829510012E+02  0.40622200578E+02  0.47000000000E+01 0.  1.
         -5    1    3    3    0  502 -0.55364965095E+01  0.16024087989E+02 -0.10608947468E+03  0.10753832260E+03  0.47000000000E+01 0.  1.
        -11    1    4    4    0    0 -0.20006684648E+01  0.34170505247E+02 -0.10676871313E+03  0.11212129239E+03  0.00000000000E+00 0. -1.
         11    1    4    4    0    0 -0.16832075395E+02 -0.35944236884E+02 -0.23438140965E+02  0.46093962502E+02  0.00000000000E+00 0.  1.
<mgrwt>
<rscale>  0 0.11608624E+03</rscale>
<asrwt>0</asrwt>
<pdfrwt beam="2">  1        1 0.39526353E-01 0.12642167E+03</pdfrwt>
<pdfrwt beam="1">  1       -1 0.76083816E-02 0.12642167E+03</pdfrwt>
<totfact> 0.93305164E+03</totfact>
</mgrwt>
</event>
<event>
 8    1  0.1646661E-005  0.1566455E+03  0.7546771E-02  0.1207541E+00
         -1   -1    0    0    0  501 -0.00000000000E+00  0.00000000000E+00  0.82608480763E+02  0.82608480763E+02  0.00000000000E+00 0.  1.
          1   -1    0    0  501    0  0.00000000000E+00 -0.00000000000E+00 -0.24423981914E+03  0.24423981914E+03  0.00000000000E+00 0. -1.
         23    2    1    2    0    0  0.89110633712E+02  0.31181021754E+02 -0.41889835254E+02  0.16214983895E+03  0.12499940326E+03 0.  0.
         23    2    1    2    0    0 -0.89110633712E+02 -0.31181021754E+02 -0.11974150313E+03  0.16469846096E+03  0.62246239342E+02 0.  0.
          5    1    3    3  502    0  0.10022770370E+03 -0.32783882665E+01 -0.64385526231E+02  0.11926410360E+03  0.47000000000E+01 0.  1.
         -5    1    3    3    0  502 -0.11117069991E+02  0.34459410020E+02  0.22495690976E+02  0.42885735351E+02  0.47000000000E+01 0.  1.
        -11    1    4    4    0    0 -0.61112509161E+02 -0.23969985959E+02 -0.33417652855E+02  0.73661648944E+02  0.00000000000E+00 0.  1.
         11    1    4    4    0    0 -0.27998124551E+02 -0.72110357944E+01 -0.86323850272E+02  0.91036812012E+02  0.00000000000E+00 0. -1.
<mgrwt>
<rscale>  0 0.14438992E+03</rscale>
<asrwt>0</asrwt>
<pdfrwt beam="2">  1        1 0.37575356E-01 0.15664550E+03</pdfrwt>
<pdfrwt beam="1">  1       -1 0.12708997E-01 0.15664550E+03</pdfrwt>
<totfact> 0.46024259E+03</totfact>
</mgrwt>
</event>
<event>
 7    1  0.1646661E-005  0.1366278E+03  0.7546771E-02  0.1255173E+00
         -2   -1    0    0    0  501 -0.00000000000E+00  0.00000000000E+00  0.18343540383E+03  0.18343540383E+03  0.00000000000E+00 0.  1.
          2   -1    0    0  501    0  0.00000000000E+00 -0.00000000000E+00 -0.63886036866E+02  0.63886036866E+02  0.00000000000E+00 0. -1.
         23    2    1    2    0    0 -0.53250872643E+02  0.14406155553E+02  0.12235576079E+03  0.18340690293E+03  0.12499586828E+03 0.  0.
          5    1    3    3  502    0  0.24699568379E+02  0.44569564582E+02  0.60963061597E+02  0.79593339196E+02  0.47000000000E+01 0.  1.
         -5    1    3    3    0  502 -0.77950441022E+02 -0.30163409029E+02  0.61392699195E+02  0.10381356373E+03  0.47000000000E+01 0.  1.
        -11    1    1    2    0    0  0.45746499970E+01 -0.13887165534E+02 -0.42101053811E+01  0.15215313881E+02  0.00000000000E+00 0.  1.
         11    1    1    2    0    0  0.48676222646E+02 -0.51899001904E+00  0.14037115575E+01  0.48699223893E+02  0.00000000000E+00 0. -1.
<mgrwt>
<rscale>  0 0.11296645E+03</rscale>
<asrwt>0</asrwt>
<pdfrwt beam="2">  1        2 0.98286211E-02 0.13662782E+03</pdfrwt>
<pdfrwt beam="1">  1       -2 0.28220831E-01 0.13662782E+03</pdfrwt>
<totfact> 0.70757251E+03</totfact>
</mgrwt>
</event>
<event>
 8    1  0.1646661E-005  0.1751507E+03  0.7546771E-02  0.1177096E+00
          3   -1    0    0  501    0  0.00000000000E+00  0.00000000000E+00  0.11210662468E+04  0.11210662468E+04  0.00000000000E+00 0. -1.
         -3   -1    0    0    0  501 -0.00000000000E+00 -0.00000000000E+00 -0.24831913422E+02  0.24831913422E+02  0.00000000000E+00 0.  1.
         23    2    1    2    0    0  0.11821619944E+03 -0.32813362956E+02  0.54656540183E+03  0.57394380938E+03  0.12500388492E+03 0.  0.
         23    2    1    2    0    0 -0.11821619944E+03  0.32813362956E+02  0.54966893150E+03  0.57195435080E+03  0.99719900430E+02 0.  0.
          5    1    3    3  502    0  0.10455318939E+03 -0.75486495062E+02  0.37592038443E+03  0.39745163955E+03  0.47000000000E+01 0.  1.
         -5    1    3    3    0  502  0.13663010044E+02  0.42673132107E+02  0.17064501740E+03  0.17649216983E+03  0.47000000000E+01 0.  1.
        -11    1    4    4    0    0  0.14329653043E+02 -0.84334261193E+01  0.32861068437E+02  0.36828133964E+02  0.00000000000E+00 0.  1.
         11    1    4    4    0    0 -0.13254585248E+03  0.41246789075E+02  0.51680786307E+03  0.53512621684E+03  0.00000000000E+00 0. -1.
<mgrwt>
<rscale>  0 0.17072312E+03</rscale>
<asrwt>0</asrwt>
<pdfrwt beam="1">  1        3 0.17247169E+00 0.17515067E+03</pdfrwt>
<pdfrwt beam="2">  1       -3 0.38202952E-02 0.17515067E+03</pdfrwt>
<totfact> 0.20233261E+02</totfact>
</mgrwt>
</event>
<event>
 8    1  0.1646661E-005  0.1421270E+03  0.7546771E-02  0.1226273E+00
          3   -1    0    0  501    0  0.00000000000E+00  0.00000000000E+00  0.57888720750E+02  0.57888720750E+02  0.00000000000E+00 0. -1.
         -3   -1    0    0    0  501 -0.00000000000E+00 -0.00000000000E+00 -0.25746874730E+03  0.25746874730E+03  0.00000000000E+00 0.  1.
         23    2    1    2    0    0  0.65001340227E+02 -0.18736396357E+02 -0.12032887496E+03  0.18622332451E+03  0.12499544658E+03 0.  0.
         23    2    1    2    0    0 -0.65001340227E+02  0.18736396357E+02 -0.79251151591E+02  0.12913414354E+03  0.76280110242E+02 0.  0.
          5    1    3    3  502    0  0.13278002203E+02  0.52270149022E+02 -0.47317066078E+02  0.71899016430E+02  0.47000000000E+01 0. -1.
         -5    1    3    3    0  502  0.51723338024E+02 -0.71006545379E+02 -0.73011808881E+02  0.11432430808E+03  0.47000000000E+01 0. -1.
        -11    1    4    4    0    0 -0.26988032415E+02 -0.29055483722E+02 -0.41194600401E+02  0.57180155038E+02  0.00000000000E+00 0.  1.
         11    1    4    4    0    0 -0.38013307812E+02  0.47791880079E+02 -0.38056551190E+02  0.71953988498E+02  0.00000000000E+00 0. -1.
<mgrwt>
<rscale>  0 0.13080066E+03</rscale>
<asrwt>0</asrwt>
<pdfrwt beam="1">  1        3 0.89059572E-02 0.14212702E+03</pdfrwt>
<pdfrwt beam="2">  1       -3 0.39610576E-01 0.14212702E+03</pdfrwt>
<totfact> 0.13119908E+03</totfact>
</mgrwt>
</event>
<event>
 8    1  0.1646661E-005  0.2847723E+03  0.7546771E-02  0.1095019E+00
         -1   -1    0    0    0  501 -0.00000000000E+00  0.00000000000E+00  0.17979558642E+03  0.17979558642E+03  0.00000000000E+00 0.  1.
          1   -1    0    0  501    0  0.00000000000E+00 -0.00000000000E+00 -0.53303148073E+03  0.53303148073E+03  0.00000000000E+00 0. -1.
         23    2    1    2    0    0  0.25576569543E+03  0.75406275104E+01 -0.22975795921E+02  0.28569761712E+03  0.12498915635E+03 0.  0.
         23    2    1    2    0    0 -0.25576569543E+03 -0.75406275104E+01 -0.33026009839E+03  0.42712945004E+03  0.88853151205E+02 0.  0.
          5    1    3    3  502    0  0.22522903390E+03  0.28807610341E+02  0.20785394685E+02  0.22806165560E+03  0.47000000000E+01 0. -1.
         -5    1    3    3    0  502  0.30536661534E+02 -0.21266982831E+02 -0.43761190606E+02  0.57635961514E+02  0.47000000000E+01 0. -1.
        -11    1    4    4    0    0 -0.39358039190E+02 -0.35066822761E+02 -0.64256593696E+02  0.83112256261E+02  0.00000000000E+00 0. -1.
         11    1    4    4    0    0 -0.21640765624E+03  0.27526195251E+02 -0.26600350469E+03  0.34401719377E+03  0.00000000000E+00 0.  1.
<mgrwt>
<rscale>  0 0.28122989E+03</rscale>
<asrwt>0</asrwt>
<pdfrwt beam="2">  1        1 0.82004843E-01 0.28477226E+03</pdfrwt>
<pdfrwt beam="1">  1       -1 0.27660859E-01 0.28477226E+03</pdfrwt>
<totfact> 0.48851211E+02</totfact>
</mgrwt>
</event>
<event>
 8    1  0.1646661E-005  0.1539472E+03  0.7546771E-02  0.1203231E+00
         -2   -1    0    0    0  501 -0.00000000000E+00  0.00000000000E+00  0.50480772644E+03  0.50480772644E+03  0.00000000000E+00 0.  1.
          2   -1    0    0  501    0  0.00000000000E+00 -0.00000000000E+00 -0.41558754886E+02  0.41558754886E+02  0.00000000000E+00 0. -1.
         23    2    1    2    0    0  0.66967625589E+02 -0.59909921335E+02  0.30037439178E+03  0.33752704519E+03  0.12500347775E+03 0.  0.
         23    2    1    2    0    0 -0.66967625589E+02  0.59909921335E+02  0.16287457978E+03  0.20883943613E+03  0.94931131858E+02 0.  0.
          5    1    3    3  502    0  0.53223308634E+02 -0.81413554108E+02  0.29548829477E+03  0.31112105316E+03  0.47000000000E+01 0. -1.
         -5    1    3    3    0  502  0.13744316955E+02  0.21503632772E+02  0.48860970042E+01  0.26405992027E+02  0.47000000000E+01 0. -1.
        -11    1    4    4    0    0 -0.67621208163E+02  0.40612116076E+02  0.17066984679E+03  0.18801640452E+03  0.00000000000E+00 0.  1.
         11    1    4    4    0    0  0.65358257364E+00  0.19297805259E+02 -0.77952670086E+01  0.20823031618E+02  0.00000000000E+00 0. -1.
<mgrwt>
<rscale>  0 0.14777744E+03</rscale>
<asrwt>0</asrwt>
<pdfrwt beam="2">  1        2 0.63936550E-02 0.15394717E+03</pdfrwt>
<pdfrwt beam="1">  1       -2 0.77662723E-01 0.15394717E+03</pdfrwt>
<totfact> 0.16802474E+03</totfact>
</mgrwt>
</event>
<event>
 8    1  0.1646661E-005  0.1546493E+03  0.7546771E-02  0.1203599E+00
         -1   -1    0    0    0  501 -0.00000000000E+00  0.00000000000E+00  0.16900314127E+02  0.16900314127E+02  0.00000000000E+00 0.  1.
          1   -1    0    0  501    0  0.00000000000E+00 -0.00000000000E+00 -0.11814643663E+04  0.11814643663E+04  0.00000000000E+00 0. -1.
         23    2    1    2    0    0  0.78878647428E+02  0.45472949418E+02 -0.62732409919E+03  0.64610519323E+03  0.12500706039E+03 0.  0.
         23    2    1    2    0    0 -0.78878647428E+02 -0.45472949418E+02 -0.53723995302E+03  0.55225948723E+03  0.89856240573E+02 0.  0.
          5    1    3    3  502    0 -0.29449934459E+02  0.34494074717E+02 -0.19375043741E+03  0.19904386911E+03  0.47000000000E+01 0.  1.
         -5    1    3    3    0  502  0.10832858189E+03  0.10978874702E+02 -0.43357366178E+03  0.44706132413E+03  0.47000000000E+01 0.  1.
        -11    1    4    4    0    0  0.18896549264E+01  0.99382233031E+01 -0.53846246917E+01  0.11460072479E+02  0.00000000000E+00 0.  1.
         11    1    4    4    0    0 -0.80768302354E+02 -0.55411172722E+02 -0.53185532833E+03  0.54079941475E+03  0.00000000000E+00 0. -1.
<mgrwt>
<rscale>  0 0.14748448E+03</rscale>
<asrwt>0</asrwt>
<pdfrwt beam="2">  1        1 0.18176381E+00 0.15464927E+03</pdfrwt>
<pdfrwt beam="1">  1       -1 0.26000475E-02 0.15464927E+03</pdfrwt>
<totfact> 0.54039275E+03</totfact>
</mgrwt>
</event>
<event>
 7    1  0.1646661E-005  0.3404275E+03  0.7546771E-02  0.1071609E+00
         -1   -1    0    0    0  501 -0.00000000000E+00  0.00000000000E+00  0.12703904296E+03  0.12703904296E+03  0.00000000000E+00 0.  1.
          1   -1    0    0  501    0  0.00000000000E+00 -0.00000000000E+00 -0.84107700237E+03  0.84107700237E+03  0.00000000000E+00 0. -1.
         23    2    1    2    0    0 -0.27518744833E+03  0.50186917787E+02 -0.22564484760E+03  0.37278530242E+03  0.99027400340E+02 0.  0.
          5    1    1    2  502    0  0.52470015790E+01  0.44242995366E+02 -0.12559809658E+03  0.13334896148E+03  0.47000000000E+01 0. -1.
         -5    1    1    2    0  502  0.26994044675E+03 -0.94429913153E+02 -0.36279501524E+03  0.46198178143E+03  0.47000000000E+01 0.  1.
        -11    1    3    3    0    0 -0.68279914114E+02 -0.18114771957E+02 -0.20591789475E+02  0.73582018376E+02  0.00000000000E+00 0. -1.
         11    1    3    3    0    0 -0.20690753421E+03  0.68301689744E+02 -0.20505305813E+03  0.29920328405E+03  0.00000000000E+00 0.  1.
<mgrwt>
<rscale>  0 0.32893618E+03</rscale>
<asrwt>0</asrwt>
<pdfrwt beam="2">  1        1 0.12939647E+00 0.34042747E+03</pdfrwt>
<pdfrwt beam="1">  1       -1 0.19544468E-01 0.34042747E+03</pdfrwt>
<totfact> 0.44611344E+02</totfact>
</mgrwt>
</event>
<event>
 8    1  0.1646661E-005  0.1849055E+03  0.7546771E-02  0.1168004E+00
         -1   -1    0    0    0  501 -0.00000000000E+00  0.00000000000E+00  0.73586017602E+02  0.73586017602E+02  0.00000000000E+00 0.  1.
          1   -1    0    0  501    0  0.00000000000E+00 -0.00000000000E+00 -0.49292213941E+03  0.49292213941E+03  0.00000000000E+00 0. -1.
         23    2    1    2    0    0 -0.12289440336E+03 -0.58833977100E+02 -0.10831040717E+03  0.21429231368E+03  0.12500232063E+03 0.  0.
         23    2    1    2    0    0  0.12289440336E+03  0.58833977100E+02 -0.31102571464E+03  0.35221584333E+03  0.93565666180E+02 0.  0.
          5    1    3    3  502    0 -0.10947688545E+03 -0.86285996550E+02 -0.49763105801E+02  0.14808415968E+03  0.47000000000E+01 0. -1.
         -5    1    3    3    0  502 -0.13417517912E+02  0.27452019450E+02 -0.58547301368E+02  0.66208154001E+02  0.47000000000E+01 0. -1.
        -11    1    4    4    0    0  0.39497202883E+02  0.34889103572E+02 -0.35985426595E+02  0.63814022839E+02  0.00000000000E+00 0.  1.
         11    1    4    4    0    0  0.83397200481E+02  0.23944873527E+02 -0.27504028804E+03  0.28840182049E+03  0.00000000000E+00 0. -1.
<mgrwt>
<rscale>  0 0.17979206E+03</rscale>
<asrwt>0</asrwt>
<pdfrwt beam="2">  1        1 0.75834178E-01 0.18490552E+03</pdfrwt>
<pdfrwt beam="1">  1       -1 0.11320925E-01 0.18490552E+03</pdfrwt>
<totfact> 0.22841879E+03</totfact>
</mgrwt>
</event>
<event>
 8    1  0.1646661E-005  0.1597714E+03  0.7546771E-02  0.1197197E+00
          3   -1    0    0  501    0  0.00000000000E+00  0.00000000000E+00  0.24445233247E+03  0.24445233247E+03  0.00000000000E+00 0. -1.
         -3   -1    0    0    0  501 -0.00000000000E+00 -0.00000000000E+00 -0.32971194961E+03  0.32971194961E+03  0.00000000000E+00 0.  1.
         23    2    1    2    0    0 -0.72664588989E+02  0.67981067655E+02 -0.28927283864E+03  0.33046279987E+03  0.12500127548E+03 0.  0.
         23    2    1    2    0    0  0.72664588989E+02 -0.67981067655E+02  0.20401322150E+03  0.24370148221E+03  0.88698646164E+02 0.  0.
          5    1    3    3  502    0 -0.76034702495E+02  0.80538914599E+02 -0.29526784953E+03  0.31539338248E+03  0.47000000000E+01 0.  1.
         -5    1    3    3    0  502  0.33701135054E+01 -0.12557846944E+02  0.59950108876E+01  0.15069417389E+02  0.47000000000E+01 0.  1.
        -11    1    4    4    0    0  0.59681182078E+02 -0.10857524468E+02  0.15789238737E+03  0.16914412588E+03  0.00000000000E+00 0. -1.
         11    1    4    4    0    0  0.12983406911E+02 -0.57123543187E+02  0.46120834131E+02  0.74557356325E+02  0.00000000000E+00 0.  1.
<mgrwt>
<rscale>  0 0.15269757E+03</rscale>
<asrwt>0</asrwt>
<pdfrwt beam="1">  1        3 0.37608051E-01 0.15977136E+03</pdfrwt>
<pdfrwt beam="2">  1       -3 0.50724915E-01 0.15977136E+03</pdfrwt>
<totfact> 0.65093117E+01</totfact>
</mgrwt>
</event>
<event>
 8    1  0.1646661E-005  0.1543680E+03  0.7546771E-02  0.1203759E+00
          2   -1    0    0  501    0  0.00000000000E+00  0.00000000000E+00  0.50064218493E+03  0.50064218493E+03  0.00000000000E+00 0.  1.
         -2   -1    0    0    0  501 -0.00000000000E+00 -0.00000000000E+00 -0.41058275583E+02  0.41058275583E+02  0.00000000000E+00 0. -1.
         23    2    1    2    0    0  0.31273267928E+02 -0.85005411882E+02  0.20448516548E+03  0.25621019136E+03  0.12500216765E+03 0.  0.
         23    2    1    2    0    0 -0.31273267928E+02  0.85005411882E+02  0.25509874387E+03  0.28549026916E+03  0.90693921096E+02 0.  0.
          5    1    3    3  502    0 -0.47977743341E+02 -0.42224403594E+02  0.80424888776E+02  0.10283490093E+03  0.47000000000E+01 0.  1.
         -5    1    3    3    0  502  0.79251011269E+02 -0.42781008287E+02  0.12406027670E+03  0.15337529043E+03  0.47000000000E+01 0.  1.
        -11    1    4    4    0    0  0.88357772248E+01  0.42985846213E+02  0.30352982677E+02  0.53358762085E+02  0.00000000000E+00 0. -1.
         11    1    4    4    0    0 -0.40109045152E+02  0.42019565669E+02  0.22474576119E+03  0.23213150707E+03  0.00000000000E+00 0.  1.
<mgrwt>
<rscale>  0 0.14735688E+03</rscale>
<asrwt>0</asrwt>
<pdfrwt beam="1">  1        2 0.77021870E-01 0.15436800E+03</pdfrwt>
<pdfrwt beam="2">  1       -2 0.63166581E-02 0.15436800E+03</pdfrwt>
<totfact> 0.81862286E+03</totfact>
</mgrwt>
</event>
<event>
 8    1  0.1646661E-005  0.1295005E+03  0.7546771E-02  0.1243232E+00
         -1   -1    0    0    0  501 -0.00000000000E+00  0.00000000000E+00  0.41846493575E+02  0.41846493575E+02  0.00000000000E+00 0.  1.
          1   -1    0    0  501    0  0.00000000000E+00 -0.00000000000E+00 -0.30191712159E+03  0.30191712159E+03  0.00000000000E+00 0. -1.
         23    2    1    2    0    0 -0.18914574816E+02 -0.28064640031E+02 -0.14522454454E+03  0.19457787979E+03  0.12499999123E+03 0.  0.
         23    2    1    2    0    0  0.18914574816E+02  0.28064640031E+02 -0.11484608348E+03  0.14918573538E+03  0.89002110019E+02 0.  0.
          5    1    3    3  502    0 -0.46196468614E+02 -0.16911862098E+02 -0.15538156035E+03  0.16305104749E+03  0.47000000000E+01 0. -1.
         -5    1    3    3    0  502  0.27281893798E+02 -0.11152777933E+02  0.10157015811E+02  0.31526832302E+02  0.47000000000E+01 0. -1.
        -11    1    4    4    0    0  0.44864609367E+02  0.22903691119E+02 -0.26409202706E+02  0.56875814087E+02  0.00000000000E+00 0.  1.
         11    1    4    4    0    0 -0.25950034551E+02  0.51609489114E+01 -0.88436880776E+02  0.92309921288E+02  0.00000000000E+00 0. -1.
<mgrwt>
<rscale>  0 0.11991821E+03</rscale>
<asrwt>0</asrwt>
<pdfrwt beam="2">  1        1 0.46448786E-01 0.12950051E+03</pdfrwt>
<pdfrwt beam="1">  1       -1 0.64379224E-02 0.12950051E+03</pdfrwt>
<totfact> 0.98368584E+03</totfact>
</mgrwt>
</event>
<event>
 8    1  0.1646661E-005  0.1781935E+03  0.7546771E-02  0.1176177E+00
         -2   -1    0    0    0  501 -0.00000000000E+00  0.00000000000E+00  0.28288509579E+02  0.28288509579E+02  0.00000000000E+00 0.  1.
          2   -1    0    0  501    0  0.00000000000E+00 -0.00000000000E+00 -0.10141424737E+04  0.10141424737E+04  0.00000000000E+00 0. -1.
         23    2    1    2    0    0  0.36024868636E+02  0.12178189313E+03 -0.42127535366E+03  0.45741212557E+03  0.12499723340E+03 0.  0.
         23    2    1    2    0    0 -0.36024868636E+02 -0.12178189313E+03 -0.56457861050E+03  0.58501885775E+03  0.85845418272E+02 0.  0.
          5    1    3    3  502    0  0.33874028565E+02  0.89107083555E+02 -0.41220427107E+03  0.42310988317E+03  0.47000000000E+01 0. -1.
         -5    1    3    3    0  502  0.21508400707E+01  0.32674809577E+02 -0.90710825957E+01  0.34302242396E+02  0.47000000000E+01 0. -1.
        -11    1    4    4    0    0  0.28200496760E+01  0.12851727726E+02 -0.50142064312E+02  0.51839619975E+02  0.00000000000E+00 0.  1.
         11    1    4    4    0    0 -0.38844918312E+02 -0.13463362086E+03 -0.51443654619E+03  0.53317923778E+03  0.00000000000E+00 0. -1.
<mgrwt>
<rscale>  0 0.17161210E+03</rscale>
<asrwt>0</asrwt>
<pdfrwt beam="2">  1        2 0.15602192E+00 0.17819352E+03</pdfrwt>
<pdfrwt beam="1">  1       -2 0.43520783E-02 0.17819352E+03</pdfrwt>
<totfact> 0.61232491E+03</totfact>
</mgrwt>
</event>
<event>
 8    1  0.1646661E-005  0.2567117E+03  0.7546771E-02  0.1111364E+00
          2   -1    0    0  501    0  0.00000000000E+00  0.00000000000E+00  0.61650579156E+03  0.61650579156E+03  0.00000000000E+00 0. -1.
         -2   -1    0    0    0  501 -0.00000000000E+00 -0.00000000000E+00 -0.10541816977E+03  0.10541816977E+03  0.00000000000E+00 0.  1.
         23    2    1    2    0    0  0.19544900155E+03 -0.10987678795E+03  0.18928819505E+03  0.31895283054E+03  0.12501066588E+03 0.  0.
         23    2    1    2    0    0 -0.19544900155E+03  0.10987678795E+03  0.32179942673E+03  0.40297113079E+03  0.92507515729E+02 0.  0.
          5    1    3    3  502    0  0.74663433871E+02  0.19822368635E+02  0.76518849672E+02  0.10883372185E+03  0.47000000000E+01 0.  1.
         -5    1    3    3    0  502  0.12078556768E+03 -0.12969915659E+03  0.11276934538E+03  0.21011910869E+03  0.47000000000E+01 0.  1.
        -11    1    4    4    0    0 -0.71882127924E+02  0.32510523344E+01  0.14791950713E+03  0.16449252337E+03  0.00000000000E+00 0. -1.
         11    1    4    4    0    0 -0.12356687363E+03  0.10662573562E+03  0.17387991960E+03  0.23847860742E+03  0.00000000000E+00 0.  1.
<mgrwt>
<rscale>  0 0.25309576E+03</rscale>
<asrwt>0</asrwt>
<pdfrwt beam="1">  1        2 0.94847043E-01 0.25671168E+03</pdfrwt>
<pdfrwt beam="2">  1       -2 0.16218180E-01 0.25671168E+03</pdfrwt>
<totfact> 0.14671538E+03</totfact>
</mgrwt>
</event>
<event>
 8    1  0.2312685E-005  0.1869218E+03  0.7546771E-02  0.1166268E+00
         -2   -1    0    0    0  501 -0.00000000000E+00  0.00000000000E+00  0.63895227326E+02  0.63895227326E+02  0.00000000000E+00 0.  1.
          2   -1    0    0  501    0  0.00000000000E+00 -0.00000000000E+00 -0.49918216710E+03  0.49918216710E+03  0.00000000000E+00 0. -1.
         23    2    1    2    0    0  0.10318423634E+03  0.93104202660E+02 -0.18930236632E+03  0.26603600675E+03  0.12499756723E+03 0.  0.
         23    2    1    2    0    0 -0.10318423634E+03 -0.93104202660E+02 -0.24598457345E+03  0.29704138767E+03  0.91704942221E+02 0.  0.
          5    1    3    3  502    0  0.13232028902E+03  0.73415006718E+02 -0.15572090468E+03  0.21718543288E+03  0.47000000000E+01 0.  1.
         -5    1    3    3    0  502 -0.29136052680E+02  0.19689195941E+02 -0.33581461636E+02  0.48850573878E+02  0.47000000000E+01 0.  1.
        -11    1    4    4    0    0 -0.37838949463E+02 -0.55304109689E+02 -0.40903711070E+02  0.78507606156E+02  0.00000000000E+00 0.  1.
         11    1    4    4    0    0 -0.65345286881E+02 -0.37800092970E+02 -0.20508086238E+03  0.21853378151E+03  0.00000000000E+00 0. -1.
<mgrwt>
<rscale>  0 0.18159518E+03</rscale>
<asrwt>0</asrwt>
<pdfrwt beam="2">  1        2 0.76797259E-01 0.18692183E+03</pdfrwt>
<pdfrwt beam="1">  1       -2 0.98300346E-02 0.18692183E+03</pdfrwt>
<totfact> 0.41747686E+03</totfact>
</mgrwt>
</event>
<event>
 8    1  0.1646661E-005  0.1492368E+03  0.7546771E-02  0.1210694E+00
         -1   -1    0    0    0  501 -0.00000000000E+00  0.00000000000E+00  0.20076061355E+03  0.20076061355E+03  0.00000000000E+00 0.  1.
          1   -1    0    0  501    0  0.00000000000E+00 -0.00000000000E+00 -0.93118510348E+02  0.93118510348E+02  0.00000000000E+00 0. -1.
         23    2    1    2    0    0  0.64199753474E+02  0.51358935462E+02  0.76619993823E+02  0.16775646474E+03  0.12454822123E+03 0.  0.
         23    2    1    2    0    0 -0.64199753474E+02 -0.51358935462E+02  0.31022109379E+02  0.12612265916E+03  0.90472124350E+02 0.  0.
          5    1    3    3  502    0 -0.20882260375E+02  0.30257572764E+02  0.70633534927E+02  0.79767009247E+02  0.47000000000E+01 0. -1.
         -5    1    3    3    0  502  0.85082013849E+02  0.21101362698E+02  0.59864588956E+01  0.87989455495E+02  0.47000000000E+01 0. -1.
        -11    1    4    4    0    0 -0.71861710258E+02 -0.95755060800E+01  0.39861074526E+02  0.82732708044E+02  0.00000000000E+00 0.  1.
         11    1    4    4    0    0  0.76619567843E+01 -0.41783429382E+02 -0.88389651465E+01  0.43389951113E+02  0.00000000000E+00 0. -1.
<mgrwt>
<rscale>  0 0.14197674E+03</rscale>
<asrwt>0</asrwt>
<pdfrwt beam="2">  1        1 0.14325925E-01 0.14923675E+03</pdfrwt>
<pdfrwt beam="1">  1       -1 0.30886248E-01 0.14923675E+03</pdfrwt>
<totfact> 0.37167797E+03</totfact>
</mgrwt>
</event>
<event>
 8    1  0.1646661E-005  0.1683726E+03  0.7546771E-02  0.1186141E+00
          1   -1    0    0  501    0  0.00000000000E+00  0.00000000000E+00  0.50355039852E+02  0.50355039852E+02  0.00000000000E+00 0. -1.
         -1   -1    0    0    0  501 -0.00000000000E+00 -0.00000000000E+00 -0.77959918987E+03  0.77959918987E+03  0.00000000000E+00 0.  1.
         23    2    1    2    0    0  0.95710780734E+02  0.59688518283E+02 -0.63455637132E+03  0.65651437078E+03  0.12500423150E+03 0.  0.
         23    2    1    2    0    0 -0.95710780734E+02 -0.59688518283E+02 -0.94687778699E+02  0.17343985894E+03  0.91609696384E+02 0.  0.
          5    1    3    3  502    0 -0.26845108934E+01  0.69188991115E+02 -0.25848784832E+03  0.26764226277E+03  0.47000000000E+01 0. -1.
         -5    1    3    3    0  502  0.98395291627E+02 -0.95004728319E+01 -0.37606852300E+03  0.38887210801E+03  0.47000000000E+01 0. -1.
        -11    1    4    4    0    0 -0.59746716609E+02 -0.66207114180E+02 -0.21654597476E+02  0.91771311996E+02  0.00000000000E+00 0. -1.
         11    1    4    4    0    0 -0.35964064125E+02  0.65185958968E+01 -0.73033181223E+02  0.81668546947E+02  0.00000000000E+00 0.  1.
<mgrwt>
<rscale>  0 0.16228523E+03</rscale>
<asrwt>0</asrwt>
<pdfrwt beam="1">  1        1 0.77469300E-02 0.16837259E+03</pdfrwt>
<pdfrwt beam="2">  1       -1 0.11993833E+00 0.16837259E+03</pdfrwt>
<totfact> 0.59934180E+02</totfact>
</mgrwt>
</event>
<event>
 8    1  0.1646661E-005  0.1544832E+03  0.7546771E-02  0.1203096E+00
         -2   -1    0    0    0  501 -0.00000000000E+00  0.00000000000E+00  0.39369867877E+02  0.39369867877E+02  0.00000000000E+00 0. -1.
          2   -1    0    0  501    0  0.00000000000E+00 -0.00000000000E+00 -0.52447402735E+03  0.52447402735E+03  0.00000000000E+00 0.  1.
         23    2    1    2    0    0  0.73538436730E+02  0.53224081080E+02 -0.22158402408E+03  0.27011951763E+03  0.12499747835E+03 0.  0.
         23    2    1    2    0    0 -0.73538436730E+02 -0.53224081080E+02 -0.26352013540E+03  0.29372437760E+03  0.92684646805E+02 0.  0.
          5    1    3    3  502    0  0.72618604920E+01  0.81457279661E+02 -0.12713727515E+03  0.15124152790E+03  0.47000000000E+01 0. -1.
         -5    1    3    3    0  502  0.66276576238E+02 -0.28233198581E+02 -0.94446748926E+02  0.11887798973E+03  0.47000000000E+01 0. -1.
        -11    1    4    4    0    0 -0.50387688834E+02 -0.15775984466E+02 -0.23593318964E+03  0.24176904444E+03  0.00000000000E+00 0.  1.
         11    1    4    4    0    0 -0.23150747896E+02 -0.37448096614E+02 -0.27586945752E+02  0.51955333163E+02  0.00000000000E+00 0. -1.
<mgrwt>
<rscale>  0 0.14788539E+03</rscale>
<asrwt>0</asrwt>
<pdfrwt beam="2">  1        2 0.80688313E-01 0.15448325E+03</pdfrwt>
<pdfrwt beam="1">  1       -2 0.60569027E-02 0.15448325E+03</pdfrwt>
<totfact> 0.82892643E+03</totfact>
</mgrwt>
</event>
<event>
 8    1  0.1646661E-005  0.1471670E+03  0.7546771E-02  0.1213527E+00
          1   -1    0    0  501    0  0.00000000000E+00  0.00000000000E+00  0.44202056950E+03  0.44202056950E+03  0.00000000000E+00 0. -1.
         -1   -1    0    0    0  501 -0.00000000000E+00 -0.00000000000E+00 -0.46652384198E+02  0.46652384198E+02  0.00000000000E+00 0.  1.
         23    2    1    2    0    0  0.27001386173E+02 -0.72830888801E+02  0.12585267744E+03  0.19364150865E+03  0.12499889693E+03 0.  0.
         23    2    1    2    0    0 -0.27001386173E+02  0.72830888801E+02  0.26951550786E+03  0.29503144504E+03  0.91496072979E+02 0.  0.
          5    1    3    3  502    0  0.66289980916E+02 -0.20659676888E+02  0.26118440980E+02  0.74333349031E+02  0.47000000000E+01 0. -1.
         -5    1    3    3    0  502 -0.39288594743E+02 -0.52171211913E+02  0.99734236460E+02  0.11930815962E+03  0.47000000000E+01 0. -1.
        -11    1    4    4    0    0 -0.51610725877E+02  0.10840337040E+02  0.13363364649E+03  0.14366325699E+03  0.00000000000E+00 0. -1.
         11    1    4    4    0    0  0.24609339704E+02  0.61990551762E+02  0.13588186136E+03  0.15136818806E+03  0.00000000000E+00 0.  1.
<mgrwt>
<rscale>  0 0.13985302E+03</rscale>
<asrwt>0</asrwt>
<pdfrwt beam="1">  1        1 0.68003162E-01 0.14716704E+03</pdfrwt>
<pdfrwt beam="2">  1       -1 0.71772902E-02 0.14716704E+03</pdfrwt>
<totfact> 0.52255234E+03</totfact>
</mgrwt>
</event>
<event>
 8    1  0.1646661E-005  0.1323474E+03  0.7546771E-02  0.1237069E+00
         -2   -1    0    0    0  501 -0.00000000000E+00  0.00000000000E+00  0.18658758938E+02  0.18658758938E+02  0.00000000000E+00 0.  1.
          2   -1    0    0  501    0  0.00000000000E+00 -0.00000000000E+00 -0.80419878384E+03  0.80419878384E+03  0.00000000000E+00 0. -1.
         23    2    1    2    0    0 -0.10450682994E+02  0.42218219751E+02 -0.31670503485E+03  0.34324613988E+03  0.12499695431E+03 0.  0.
         23    2    1    2    0    0  0.10450682994E+02 -0.42218219751E+02 -0.46883499005E+03  0.47961140290E+03  0.91264752462E+02 0.  0.
          5    1    3    3  502    0  0.41364449476E+02  0.26704311402E+02 -0.26030123897E+03  0.26495841737E+03  0.47000000000E+01 0.  1.
         -5    1    3    3    0  502 -0.51815132470E+02  0.15513908349E+02 -0.56403795888E+02  0.78287722509E+02  0.47000000000E+01 0.  1.
        -11    1    4    4    0    0  0.41841257168E+02 -0.53138595319E+02 -0.32913468651E+03  0.33601196850E+03  0.00000000000E+00 0.  1.
         11    1    4    4    0    0 -0.31390574174E+02  0.10920375568E+02 -0.13970030355E+03  0.14359943440E+03  0.00000000000E+00 0. -1.
<mgrwt>
<rscale>  0 0.12372926E+03</rscale>
<asrwt>0</asrwt>
<pdfrwt beam="2">  1        2 0.12372287E+00 0.13234740E+03</pdfrwt>
<pdfrwt beam="1">  1       -2 0.28705788E-02 0.13234740E+03</pdfrwt>
<totfact> 0.15167466E+04</totfact>
</mgrwt>
</event>
<event>
 8    1  0.1646661E-005  0.1373591E+03  0.7546771E-02  0.1228910E+00
          1   -1    0    0  501    0  0.00000000000E+00  0.00000000000E+00  0.23629567575E+02  0.23629567575E+02  0.00000000000E+00 0. -1.
         -1   -1    0    0    0  501 -0.00000000000E+00 -0.00000000000E+00 -0.65951190444E+03  0.65951190444E+03  0.00000000000E+00 0.  1.
         23    2    1    2    0    0 -0.34313079527E+02  0.45467714585E+02 -0.42583980580E+03  0.44744503875E+03  0.12499128772E+03 0.  0.
         23    2    1    2    0    0  0.34313079527E+02 -0.45467714585E+02 -0.21004253107E+03  0.23569643327E+03  0.90499962981E+02 0.  0.
          5    1    3    3  502    0  0.36971042170E+00 -0.14135535066E+02 -0.32412686980E+03  0.32446920927E+03  0.47000000000E+01 0. -1.
         -5    1    3    3    0  502 -0.34682789949E+02  0.59603249651E+02 -0.10171293600E+03  0.12297582948E+03  0.47000000000E+01 0. -1.
        -11    1    4    4    0    0  0.19660435670E+02  0.23361345759E+02 -0.31897272873E+02  0.44155647693E+02  0.00000000000E+00 0. -1.
         11    1    4    4    0    0  0.14652643858E+02 -0.68829060344E+02 -0.17814525820E+03  0.19154078557E+03  0.00000000000E+00 0.  1.
<mgrwt>
<rscale>  0 0.12902454E+03</rscale>
<asrwt>0</asrwt>
<pdfrwt beam="1">  1        1 0.36353185E-02 0.13735910E+03</pdfrwt>
<pdfrwt beam="2">  1       -1 0.10146336E+00 0.13735910E+03</pdfrwt>
<totfact> 0.24550038E+03</totfact>
</mgrwt>
</event>
<event>
 8    1  0.1646661E-005  0.1311625E+03  0.7546771E-02  0.1239370E+00
         -1   -1    0    0    0  501 -0.00000000000E+00  0.00000000000E+00  0.11219794095E+03  0.11219794095E+03  0.00000000000E+00 0.  1.
          1   -1    0    0  501    0  0.00000000000E+00 -0.00000000000E+00 -0.11884768276E+03  0.11884768276E+03  0.00000000000E+00 0. -1.
         23    2    1    2    0    0 -0.21545203437E+02  0.33396719927E+02  0.49965518427E+01  0.13125767267E+03  0.12499629759E+03 0.  0.
         23    2    1    2    0    0  0.21545203437E+02 -0.33396719927E+02 -0.11646293652E+02  0.99787951036E+02  0.90788007596E+02 0.  0.
          5    1    3    3  502    0 -0.28248568525E+02  0.11915750212E+02 -0.57134165984E+02  0.65010534912E+02  0.47000000000E+01 0.  1.
         -5    1    3    3    0  502  0.67033650886E+01  0.21480969715E+02  0.62130717826E+02  0.66247137757E+02  0.47000000000E+01 0.  1.
        -11    1    4    4    0    0 -0.16197199364E+02 -0.52481286706E+02  0.30647384401E+01  0.55009338692E+02  0.00000000000E+00 0.  1.
         11    1    4    4    0    0  0.37742402800E+02  0.19084566780E+02 -0.14711032092E+02  0.44778612345E+02  0.00000000000E+00 0. -1.
<mgrwt>
<rscale>  0 0.12228758E+03</rscale>
<asrwt>0</asrwt>
<pdfrwt beam="2">  1        1 0.18284259E-01 0.13116254E+03</pdfrwt>
<pdfrwt beam="1">  1       -1 0.17261222E-01 0.13116254E+03</pdfrwt>
<totfact> 0.69576520E+03</totfact>
</mgrwt>
</event>
<event>
 8    1  0.1646661E-005  0.1570131E+03  0.7546771E-02  0.1200710E+00
         -2   -1    0    0    0  501 -0.00000000000E+00  0.00000000000E+00  0.33060350593E+03  0.33060350593E+03  0.00000000000E+00 0.  1.
          2   -1    0    0  501    0  0.00000000000E+00 -0.00000000000E+00 -0.65497297418E+02  0.65497297418E+02  0.00000000000E+00 0. -1.
         23    2    1    2    0    0  0.22831631338E+02  0.92253842750E+02  0.18766285799E+03  0.24468441308E+03  0.12498423437E+03 0.  0.
         23    2    1    2    0    0 -0.22831631338E+02 -0.92253842750E+02  0.77443350522E+02  0.15141639027E+03  0.88867293264E+02 0.  0.
          5    1    3    3  502    0  0.32192414779E+02  0.69812658339E+01 -0.50809503551E+01  0.33660001463E+02  0.47000000000E+01 0.  1.
         -5    1    3    3    0  502 -0.93607834415E+01  0.85272576916E+02  0.19274380835E+03  0.21102441161E+03  0.47000000000E+01 0.  1.
        -11    1    4    4    0    0  0.99525711151E+00 -0.92254226813E+02  0.85973905948E+02  0.12610846683E+03  0.00000000000E+00 0.  1.
         11    1    4    4    0    0 -0.23826888449E+02  0.38406288110E-03 -0.85305554265E+01  0.25307923447E+02  0.00000000000E+00 0. -1.
<mgrwt>
<rscale>  0 0.14980706E+03</rscale>
<asrwt>0</asrwt>
<pdfrwt beam="2">  1        2 0.10076507E-01 0.15701310E+03</pdfrwt>
<pdfrwt beam="1">  1       -2 0.50862077E-01 0.15701310E+03</pdfrwt>
<totfact> 0.22888346E+03</totfact>
</mgrwt>
</event>
<event>
 8    1  0.1646661E-005  0.1256418E+03  0.7546771E-02  0.1249242E+00
          4   -1    0    0  501    0  0.00000000000E+00  0.00000000000E+00  0.56916919102E+02  0.56916919102E+02  0.00000000000E+00 0. -1.
         -4   -1    0    0    0  501 -0.00000000000E+00 -0.00000000000E+00 -0.21357939066E+03  0.21357939066E+03  0.00000000000E+00 0.  1.
         23    2    1    2    0    0  0.10669277640E+02  0.69717724926E+01 -0.10996004056E+03  0.16696429043E+03  0.12499369849E+03 0.  0.
         23    2    1    2    0    0 -0.10669277640E+02 -0.69717724926E+01 -0.46702431003E+02  0.10353201934E+03  0.91516790097E+02 0.  0.
          5    1    3    3  502    0 -0.48391613712E+02 -0.85666181176E+00 -0.87221304428E+01  0.49402911924E+02  0.47000000000E+01 0. -1.
         -5    1    3    3    0  502  0.59060891352E+02  0.78284343044E+01 -0.10123791011E+03  0.11756137850E+03  0.47000000000E+01 0. -1.
        -11    1    4    4    0    0 -0.29778687252E+02 -0.95128330396E+01  0.17962790210E+02  0.36054487086E+02  0.00000000000E+00 0. -1.
         11    1    4    4    0    0  0.19109409612E+02  0.25410605470E+01 -0.64665221213E+02  0.67477532253E+02  0.00000000000E+00 0.  1.
<mgrwt>
<rscale>  0 0.11635060E+03</rscale>
<asrwt>0</asrwt>
<pdfrwt beam="1">  1        4 0.87564491E-02 0.12564181E+03</pdfrwt>
<pdfrwt beam="2">  1       -4 0.32858368E-01 0.12564181E+03</pdfrwt>
<totfact> 0.13734707E+03</totfact>
</mgrwt>
</event>
<event>
 7    1  0.1646661E-005  0.2666803E+03  0.7546771E-02  0.1126148E+00
          2   -1    0    0  501    0  0.00000000000E+00  0.00000000000E+00  0.88217953334E+03  0.88217953334E+03  0.00000000000E+00 0. -1.
         -2   -1    0    0    0  501 -0.00000000000E+00 -0.00000000000E+00 -0.81168596415E+02  0.81168596415E+02  0.00000000000E+00 0.  1.
         23    2    1    2    0    0 -0.77223060720E+02  0.89640143729E+02  0.62787594978E+03  0.64539512589E+03  0.91147702897E+02 0.  0.
          5    1    1    2  502    0 -0.18710381499E+02 -0.12688195526E+03  0.17241137858E+03  0.21493460031E+03  0.47000000000E+01 0. -1.
         -5    1    1    2    0  502  0.95933442219E+02  0.37241811528E+02  0.72360857016E+00  0.10301840356E+03  0.47000000000E+01 0.  1.
        -11    1    3    3    0    0  0.10900195904E+02  0.50731588143E+02  0.18333820656E+03  0.19053977613E+03  0.00000000000E+00 0. -1.
         11    1    3    3    0    0 -0.88123256624E+02  0.38908555586E+02  0.44453774322E+03  0.45485534976E+03  0.00000000000E+00 0.  1.
<mgrwt>
<rscale>  0 0.23069997E+03</rscale>
<asrwt>0</asrwt>
<pdfrwt beam="1">  1        2 0.13571992E+00 0.26668031E+03</pdfrwt>
<pdfrwt beam="2">  1       -2 0.12487477E-01 0.26668031E+03</pdfrwt>
<totfact> 0.14461646E+03</totfact>
</mgrwt>
</event>
<event>
 8    1  0.1646661E-005  0.1674287E+03  0.7546771E-02  0.1186657E+00
         -2   -1    0    0    0  501 -0.00000000000E+00  0.00000000000E+00  0.55804380436E+02  0.55804380436E+02  0.00000000000E+00 0.  1.
          2   -1    0    0  501    0  0.00000000000E+00 -0.00000000000E+00 -0.45234341191E+03  0.45234341191E+03  0.00000000000E+00 0. -1.
         23    2    1    2    0    0 -0.83247951439E+02 -0.74011818598E+02 -0.17016087128E+03  0.23871966014E+03  0.12499753323E+03 0.  0.
         23    2    1    2    0    0  0.83247951439E+02  0.74011818598E+02 -0.22637816019E+03  0.26942813220E+03  0.94532937635E+02 0.  0.
          5    1    3    3  502    0 -0.83664997222E+02 -0.71713992951E+02 -0.18918324686E+03  0.21898657365E+03  0.47000000000E+01 0.  1.
         -5    1    3    3    0  502  0.41704578301E+00 -0.22978256471E+01  0.19022375581E+02  0.19733086495E+02  0.47000000000E+01 0.  1.
        -11    1    4    4    0    0  0.26561818424E+02 -0.83393985927E+00 -0.13783510123E+03  0.14037357581E+03  0.00000000000E+00 0. -1.
         11    1    4    4    0    0  0.56686133015E+02  0.74845758457E+02 -0.88543058958E+02  0.12905455639E+03  0.00000000000E+00 0.  1.
<mgrwt>
<rscale>  0 0.16182028E+03</rscale>
<asrwt>0</asrwt>
<pdfrwt beam="2">  1        2 0.69591296E-01 0.16742865E+03</pdfrwt>
<pdfrwt beam="1">  1       -2 0.85852890E-02 0.16742865E+03</pdfrwt>
<totfact> 0.57259832E+03</totfact>
</mgrwt>
</event>
<event>
 7    1  0.1646661E-005  0.5487750E+03  0.7546771E-02  0.1063317E+00
         -1   -1    0    0    0  501 -0.00000000000E+00  0.00000000000E+00  0.10471666252E+04  0.10471666252E+04  0.00000000000E+00 0.  1.
          1   -1    0    0  501    0  0.00000000000E+00 -0.00000000000E+00 -0.13777855444E+03  0.13777855444E+03  0.00000000000E+00 0. -1.
         23    2    1    2    0    0 -0.20908053108E+02 -0.75604599793E+01 -0.32549602375E+02  0.94807299932E+02  0.86224360048E+02 0.  0.
          5    1    1    2  502    0 -0.26273081399E+03 -0.67878576322E+01  0.40787930241E+03  0.48524341413E+03  0.47000000000E+01 0. -1.
         -5    1    1    2    0  502  0.28363886710E+03  0.14348317611E+02  0.53405837072E+03  0.60489446557E+03  0.47000000000E+01 0.  1.
        -11    1    3    3    0    0  0.26176519929E+02 -0.68671703537E+01  0.12345938938E+02  0.29745427086E+02  0.00000000000E+00 0. -1.
         11    1    3    3    0    0 -0.47084573037E+02 -0.69328962555E+00 -0.44895541312E+02  0.65061872846E+02  0.00000000000E+00 0.  1.
<mgrwt>
<rscale>  0 0.34829536E+03</rscale>
<asrwt>0</asrwt>
<pdfrwt beam="2">  1        1 0.21196701E-01 0.54877501E+03</pdfrwt>
<pdfrwt beam="1">  1       -1 0.16110255E+00 0.54877501E+03</pdfrwt>
<totfact> 0.71968984E+01</totfact>
</mgrwt>
</event>
<event>
 8    1  0.1646661E-005  0.2114088E+03  0.7546771E-02  0.1142770E+00
          1   -1    0    0  501    0  0.00000000000E+00  0.00000000000E+00  0.10687351940E+03  0.10687351940E+03  0.00000000000E+00 0. -1.
         -1   -1    0    0    0  501 -0.00000000000E+00 -0.00000000000E+00 -0.83200954764E+03  0.83200954764E+03  0.00000000000E+00 0.  1.
         23    2    1    2    0    0  0.15750029841E+03  0.81954400725E+02 -0.70719429436E+03  0.73811751657E+03  0.11476423871E+03 0.  0.
         23    2    1    2    0    0 -0.15750029841E+03 -0.81954400725E+02 -0.17941733883E+02  0.20076555048E+03  0.91989307236E+02 0.  0.
          5    1    3    3  502    0  0.57061165383E+02  0.23866592195E+02 -0.85268421642E+02  0.10544375063E+03  0.47000000000E+01 0. -1.
         -5    1    3    3    0  502  0.10043913303E+03  0.58087808530E+02 -0.62192587272E+03  0.63267376593E+03  0.47000000000E+01 0.  1.
        -11    1    4    4    0    0 -0.84583808798E-01  0.14786774876E+02  0.20190931176E+01  0.14924228713E+02  0.00000000000E+00 0.  1.
         11    1    4    4    0    0 -0.15741571460E+03 -0.96741175602E+02 -0.19960827000E+02  0.18584132176E+03  0.00000000000E+00 0. -1.
<mgrwt>
<rscale>  0 0.20848718E+03</rscale>
<asrwt>0</asrwt>
<pdfrwt beam="1">  1        1 0.16442080E-01 0.21140884E+03</pdfrwt>
<pdfrwt beam="2">  1       -1 0.12800147E+00 0.21140884E+03</pdfrwt>
<totfact> 0.18843181E+02</totfact>
</mgrwt>
</event>
<event>
 8    1  0.1646661E-005  0.2309666E+03  0.7546771E-02  0.1129143E+00
          1   -1    0    0  501    0  0.00000000000E+00  0.00000000000E+00  0.94715295620E+03  0.94715295620E+03  0.00000000000E+00 0. -1.
         -1   -1    0    0    0  501 -0.00000000000E+00 -0.00000000000E+00 -0.56226420540E+02  0.56226420540E+02  0.00000000000E+00 0.  1.
         23    2    1    2    0    0  0.16570987483E+03 -0.10129367339E+03  0.32669424983E+03  0.40009335054E+03  0.12500154154E+03 0.  0.
         23    2    1    2    0    0 -0.16570987483E+03  0.10129367339E+03  0.56423228583E+03  0.60328602621E+03  0.88745626104E+02 0.  0.
          5    1    3    3  502    0  0.89685842490E+02 -0.11949198356E+03  0.24443164806E+03  0.28651492989E+03  0.47000000000E+01 0.  1.
         -5    1    3    3    0  502  0.76024032339E+02  0.18198310168E+02  0.82262601768E+02  0.11357842064E+03  0.47000000000E+01 0.  1.
        -11    1    4    4    0    0 -0.17655663292E+03  0.91342447495E+02  0.52286024161E+03  0.55937332757E+03  0.00000000000E+00 0. -1.
         11    1    4    4    0    0  0.10846758093E+02  0.99512258979E+01  0.41372044228E+02  0.43912698637E+02  0.00000000000E+00 0.  1.
<mgrwt>
<rscale>  0 0.22647884E+03</rscale>
<asrwt>0</asrwt>
<pdfrwt beam="1">  1        1 0.14571583E+00 0.23096657E+03</pdfrwt>
<pdfrwt beam="2">  1       -1 0.86502192E-02 0.23096657E+03</pdfrwt>
<totfact> 0.13400436E+03</totfact>
</mgrwt>
</event>
<event>
 8    1  0.1646661E-005  0.1891505E+03  0.7546771E-02  0.1163273E+00
          2   -1    0    0  501    0  0.00000000000E+00  0.00000000000E+00  0.11325253068E+04  0.11325253068E+04  0.00000000000E+00 0. -1.
         -2   -1    0    0    0  501 -0.00000000000E+00 -0.00000000000E+00 -0.28823717888E+02  0.28823717888E+02  0.00000000000E+00 0.  1.
         23    2    1    2    0    0  0.12388343915E+03  0.69325115162E+02  0.57447369011E+03  0.60481231387E+03  0.12499934519E+03 0.  0.
         23    2    1    2    0    0 -0.12388343915E+03 -0.69325115162E+02  0.52922789881E+03  0.55653671082E+03  0.97456982948E+02 0.  0.
          5    1    3    3  502    0  0.33719058798E+02  0.81726104338E+02  0.37802331885E+03  0.38825230283E+03  0.47000000000E+01 0. -1.
         -5    1    3    3    0  502  0.90164380348E+02 -0.12400989176E+02  0.19645037125E+03  0.21656001104E+03  0.47000000000E+01 0. -1.
        -11    1    4    4    0    0 -0.37313764257E+02 -0.60380794914E+02  0.13186699468E+03  0.14975667492E+03  0.00000000000E+00 0.  1.
         11    1    4    4    0    0 -0.86569674889E+02 -0.89443202480E+01  0.39736090413E+03  0.40678003590E+03  0.00000000000E+00 0. -1.
<mgrwt>
<rscale>  0 0.18476106E+03</rscale>
<asrwt>0</asrwt>
<pdfrwt beam="1">  1        2 0.17423463E+00 0.18915051E+03</pdfrwt>
<pdfrwt beam="2">  1       -2 0.44344190E-02 0.18915051E+03</pdfrwt>
<totfact> 0.50836214E+03</totfact>
</mgrwt>
</event>
<event>
 8    1  0.1646661E-005  0.1443571E+03  0.7546771E-02  0.1217842E+00
         -2   -1    0    0    0  501 -0.00000000000E+00  0.00000000000E+00  0.17560598563E+03  0.17560598563E+03  0.00000000000E+00 0.  1.
          2   -1    0    0  501    0  0.00000000000E+00 -0.00000000000E+00 -0.97501065029E+02  0.97501065029E+02  0.00000000000E+00 0. -1.
         23    2    1    2    0    0  0.67454964827E+02 -0.25761491352E+02  0.56598643443E+02  0.15505602636E+03  0.12500055262E+03 0.  0.
         23    2    1    2    0    0 -0.67454964827E+02  0.25761491352E+02  0.21506277162E+02  0.11805102430E+03  0.90882878833E+02 0.  0.
          5    1    3    3  502    0  0.59293766350E+02 -0.74068343623E+02  0.33955971827E+02  0.10088096093E+03  0.47000000000E+01 0.  1.
         -5    1    3    3    0  502  0.81611984774E+01  0.48306852271E+02  0.22642671616E+02  0.54175065435E+02  0.47000000000E+01 0.  1.
        -11    1    4    4    0    0 -0.48639725441E+02 -0.20129874856E+02  0.38939646823E+02  0.65477712600E+02  0.00000000000E+00 0.  1.
         11    1    4    4    0    0 -0.18815239386E+02  0.45891366208E+02 -0.17433369660E+02  0.52573311702E+02  0.00000000000E+00 0. -1.
<mgrwt>
<rscale>  0 0.13669849E+03</rscale>
<asrwt>0</asrwt>
<pdfrwt beam="2">  1        2 0.15000164E-01 0.14435707E+03</pdfrwt>
<pdfrwt beam="1">  1       -2 0.27016305E-01 0.14435707E+03</pdfrwt>
<totfact> 0.46183680E+03</totfact>
</mgrwt>
</event>
<event>
 8    1  0.1646661E-005  0.1357408E+03  0.7546771E-02  0.1228884E+00
          2   -1    0    0  501    0  0.00000000000E+00  0.00000000000E+00  0.30866119955E+03  0.30866119955E+03  0.00000000000E+00 0. -1.
         -2   -1    0    0    0  501 -0.00000000000E+00 -0.00000000000E+00 -0.49758356227E+02  0.49758356227E+02  0.00000000000E+00 0.  1.
         23    2    1    2    0    0  0.28343471511E+02  0.44679991339E+02  0.12447279740E+03  0.18417121973E+03  0.12500362748E+03 0.  0.
         23    2    1    2    0    0 -0.28343471511E+02 -0.44679991339E+02  0.13443004593E+03  0.17424833604E+03  0.97423772064E+02 0.  0.
          5    1    3    3  502    0 -0.28151123233E+02  0.64475641771E+02  0.41720050276E+02  0.81928302290E+02  0.47000000000E+01 0.  1.
         -5    1    3    3    0  502  0.56494594744E+02 -0.19795650432E+02  0.82752747121E+02  0.10224291744E+03  0.47000000000E+01 0.  1.
        -11    1    4    4    0    0 -0.21624985928E+02  0.65647735143E+01 -0.70096838208E+01  0.23661613110E+02  0.00000000000E+00 0.  1.
         11    1    4    4    0    0 -0.67184855828E+01 -0.51244764853E+02  0.14143972975E+03  0.15058672293E+03  0.00000000000E+00 0. -1.
<mgrwt>
<rscale>  0 0.12904209E+03</rscale>
<asrwt>0</asrwt>
<pdfrwt beam="1">  1        2 0.47486337E-01 0.13574079E+03</pdfrwt>
<pdfrwt beam="2">  1       -2 0.76551319E-02 0.13574079E+03</pdfrwt>
<totfact> 0.10162878E+04</totfact>
</mgrwt>
</event>
<event>
 8    1  0.1646661E-005  0.1829368E+03  0.7546771E-02  0.1170342E+00
          2   -1    0    0  501    0  0.00000000000E+00  0.00000000000E+00  0.34300263725E+03  0.34300263725E+03  0.00000000000E+00 0. -1.
         -2   -1    0    0    0  501 -0.00000000000E+00 -0.00000000000E+00 -0.86641283155E+02  0.86641283155E+02  0.00000000000E+00 0.  1.
         23    2    1    2    0    0  0.87103486655E+02 -0.10132317693E+03  0.14008007842E+03  0.23040902350E+03  0.12494993465E+03 0.  0.
         23    2    1    2    0    0 -0.87103486655E+02  0.10132317693E+03  0.11628127568E+03  0.19923489691E+03  0.91212967845E+02 0.  0.
          5    1    3    3  502    0 -0.23651979339E+02 -0.57592987034E+02  0.61662847719E+02  0.87754003162E+02  0.47000000000E+01 0.  1.
         -5    1    3    3    0  502  0.11075546599E+03 -0.43730189895E+02  0.78417230701E+02  0.14265502033E+03  0.47000000000E+01 0.  1.
        -11    1    4    4    0    0  0.14637744423E+02  0.40734757753E+02  0.33944051173E+02  0.55007114640E+02  0.00000000000E+00 0.  1.
         11    1    4    4    0    0 -0.10174123108E+03  0.60588419175E+02  0.82337224503E+02  0.14422778227E+03  0.00000000000E+00 0. -1.
<mgrwt>
<rscale>  0 0.17740180E+03</rscale>
<asrwt>0</asrwt>
<pdfrwt beam="1">  1        2 0.52769636E-01 0.18293685E+03</pdfrwt>
<pdfrwt beam="2">  1       -2 0.13329428E-01 0.18293685E+03</pdfrwt>
<totfact> 0.38495895E+03</totfact>
</mgrwt>
</event>
<event>
 8    1  0.1646661E-005  0.1710698E+03  0.7546771E-02  0.1182104E+00
         -1   -1    0    0    0  501 -0.00000000000E+00  0.00000000000E+00  0.19019249373E+03  0.19019249373E+03  0.00000000000E+00 0.  1.
          1   -1    0    0  501    0  0.00000000000E+00 -0.00000000000E+00 -0.15031241906E+03  0.15031241906E+03  0.00000000000E+00 0. -1.
         23    2    1    2    0    0 -0.29955110000E+02 -0.11287915025E+03  0.71878403139E+02  0.18555696886E+03  0.12500349066E+03 0.  0.
         23    2    1    2    0    0  0.29955110000E+02  0.11287915025E+03 -0.31998328467E+02  0.15494794393E+03  0.96674511264E+02 0.  0.
          5    1    3    3  502    0  0.10811819667E+02 -0.20010040085E+02 -0.32498128466E+02  0.39943904448E+02  0.47000000000E+01 0.  1.
         -5    1    3    3    0  502 -0.40766929667E+02 -0.92869110166E+02  0.10437653161E+03  0.14561306441E+03  0.47000000000E+01 0.  1.
        -11    1    4    4    0    0 -0.17314253933E+02  0.76091808775E+01  0.20743236633E+02  0.28070712298E+02  0.00000000000E+00 0.  1.
         11    1    4    4    0    0  0.47269363933E+02  0.10526996937E+03 -0.52741565100E+02  0.12687723164E+03  0.00000000000E+00 0. -1.
<mgrwt>
<rscale>  0 0.16598183E+03</rscale>
<asrwt>0</asrwt>
<pdfrwt beam="2">  1        1 0.23124988E-01 0.17106982E+03</pdfrwt>
<pdfrwt beam="1">  1       -1 0.29260384E-01 0.17106982E+03</pdfrwt>
<totfact> 0.22145709E+03</totfact>
</mgrwt>
</event>
<event>
 8    1  0.1646661E-005  0.1782213E+03  0.7546771E-02  0.1175343E+00
         -1   -1    0    0    0  501 -0.00000000000E+00  0.00000000000E+00  0.23034709323E+02  0.23034709323E+02  0.00000000000E+00 0.  1.
          1   -1    0    0  501    0  0.00000000000E+00 -0.00000000000E+00 -0.13376038527E+04  0.13376038527E+04  0.00000000000E+00 0. -1.
         23    2    1    2    0    0  0.12418298328E+03  0.26327894149E+02 -0.90357630331E+03  0.92098478476E+03  0.12509303146E+03 0.  0.
         23    2    1    2    0    0 -0.12418298328E+03 -0.26327894149E+02 -0.41099284006E+03  0.43965377725E+03  0.90916213760E+02 0.  0.
          5    1    3    3  502    0 -0.13118835535E+02  0.86464162516E+01 -0.16880920904E+02  0.23535501914E+02  0.47000000000E+01 0.  1.
         -5    1    3    3    0  502  0.13730181881E+03  0.17681477897E+02 -0.88669538240E+03  0.89744928285E+03  0.47000000000E+01 0.  1.
        -11    1    4    4    0    0 -0.84590084405E+02 -0.48954718760E+02 -0.18629930903E+03  0.21037937022E+03  0.00000000000E+00 0.  1.
         11    1    4    4    0    0 -0.39592898870E+02  0.22626824611E+02 -0.22469353103E+03  0.22927440703E+03  0.00000000000E+00 0. -1.
<mgrwt>
<rscale>  0 0.17242478E+03</rscale>
<asrwt>0</asrwt>
<pdfrwt beam="2">  1        1 0.20578520E+00 0.17822132E+03</pdfrwt>
<pdfrwt beam="1">  1       -1 0.35438017E-02 0.17822132E+03</pdfrwt>
<totfact> 0.26985743E+03</totfact>
</mgrwt>
</event>
<event>
 8    1  0.3171425E-005  0.1714136E+03  0.7546771E-02  0.1182816E+00
         -1   -1    0    0    0  501 -0.00000000000E+00  0.00000000000E+00  0.40395791436E+02  0.40395791436E+02  0.00000000000E+00 0.  1.
          1   -1    0    0  501    0  0.00000000000E+00 -0.00000000000E+00 -0.64335022083E+03  0.64335022083E+03  0.00000000000E+00 0. -1.
         23    2    1    2    0    0  0.98192081591E+02 -0.64153793631E+02 -0.27892809268E+03  0.32738891081E+03  0.12500089566E+03 0.  0.
         23    2    1    2    0    0 -0.98192081591E+02  0.64153793631E+02 -0.32402633672E+03  0.35635710145E+03  0.90774020206E+02 0.  0.
          5    1    3    3  502    0  0.22907635514E+00 -0.66384359494E+02 -0.70062332102E+02  0.96632065284E+02  0.47000000000E+01 0. -1.
         -5    1    3    3    0  502  0.97963005235E+02  0.22305658636E+01 -0.20886576057E+03  0.23075684553E+03  0.47000000000E+01 0. -1.
        -11    1    4    4    0    0 -0.37951330078E+02 -0.21456775131E+02 -0.98926488406E+02  0.10810710782E+03  0.00000000000E+00 0.  1.
         11    1    4    4    0    0 -0.60240751513E+02  0.85610568762E+02 -0.22509984831E+03  0.24824999363E+03  0.00000000000E+00 0. -1.
<mgrwt>
<rscale>  0 0.16532181E+03</rscale>
<asrwt>0</asrwt>
<pdfrwt beam="2">  1        1 0.98976952E-01 0.17141359E+03</pdfrwt>
<pdfrwt beam="1">  1       -1 0.62147375E-02 0.17141359E+03</pdfrwt>
<totfact> 0.39608211E+03</totfact>
</mgrwt>
</event>
<event>
 8    1  0.1646661E-005  0.1292498E+03  0.7546771E-02  0.1242829E+00
         -1   -1    0    0    0  501 -0.00000000000E+00  0.00000000000E+00  0.49554543527E+02  0.49554543527E+02  0.00000000000E+00 0.  1.
          1   -1    0    0  501    0  0.00000000000E+00 -0.00000000000E+00 -0.30417136075E+03  0.30417136075E+03  0.00000000000E+00 0. -1.
         23    2    1    2    0    0  0.13556812771E+01  0.32781996830E+02 -0.74041130093E+02  0.14895501294E+03  0.12501603796E+03 0.  0.
         23    2    1    2    0    0 -0.13556812771E+01 -0.32781996830E+02 -0.18057568713E+03  0.20477089133E+03  0.90813225728E+02 0.  0.
          5    1    3    3  502    0 -0.50416550439E+02 -0.19885488946E+02 -0.39860315099E+02  0.67440313971E+02  0.47000000000E+01 0.  1.
         -5    1    3    3    0  502  0.51772231716E+02  0.52667485777E+02 -0.34180814994E+02  0.81514698972E+02  0.47000000000E+01 0.  1.
        -11    1    4    4    0    0 -0.23177902066E+02  0.21131361536E+02 -0.30206762358E+02  0.43545356546E+02  0.00000000000E+00 0.  1.
         11    1    4    4    0    0  0.21822220789E+02 -0.53913358367E+02 -0.15036892477E+03  0.16122553479E+03  0.00000000000E+00 0. -1.
<mgrwt>
<rscale>  0 0.12016278E+03</rscale>
<asrwt>0</asrwt>
<pdfrwt beam="2">  1        1 0.46795594E-01 0.12924979E+03</pdfrwt>
<pdfrwt beam="1">  1       -1 0.76237760E-02 0.12924979E+03</pdfrwt>
<totfact> 0.75656005E+03</totfact>
</mgrwt>
</event>
<event>
 7    1  0.1646661E-005  0.1450859E+03  0.7546771E-02  0.1227753E+00
         -1   -1    0    0    0  501 -0.00000000000E+00  0.00000000000E+00  0.15265747219E+03  0.15265747219E+03  0.00000000000E+00 0.  1.
          1   -1    0    0  501    0  0.00000000000E+00 -0.00000000000E+00 -0.16221848005E+03  0.16221848005E+03  0.00000000000E+00 0. -1.
         23    2    1    2    0    0  0.96713250147E+01  0.35834987941E+01 -0.10575836752E+03  0.14079593797E+03  0.92370384092E+02 0.  0.
          5    1    1    2  502    0  0.58114324678E+02 -0.36791691535E+02  0.53207609253E+02  0.87086411002E+02  0.47000000000E+01 0. -1.
         -5    1    1    2    0  502 -0.67785649693E+02  0.33208192741E+02  0.42989750410E+02  0.86993603269E+02  0.47000000000E+01 0.  1.
        -11    1    3    3    0    0 -0.94459337078E+00 -0.42629373780E+02 -0.67635663907E+02  0.79954604606E+02  0.00000000000E+00 0. -1.
         11    1    3    3    0    0  0.10615918386E+02  0.46212872574E+02 -0.38122703609E+02  0.60841333361E+02  0.00000000000E+00 0.  1.
<mgrwt>
<rscale>  0 0.12980001E+03</rscale>
<asrwt>0</asrwt>
<pdfrwt beam="2">  1        1 0.24956689E-01 0.14508590E+03</pdfrwt>
<pdfrwt beam="1">  1       -1 0.23485765E-01 0.14508590E+03</pdfrwt>
<totfact> 0.28763729E+03</totfact>
</mgrwt>
</event>
<event>
 8    1  0.1646661E-005  0.1702587E+03  0.7546771E-02  0.1186176E+00
         -2   -1    0    0    0  501 -0.00000000000E+00  0.00000000000E+00  0.88625305577E+03  0.88625305577E+03  0.00000000000E+00 0. -1.
          2   -1    0    0  501    0  0.00000000000E+00 -0.00000000000E+00 -0.27643827711E+02  0.27643827711E+02  0.00000000000E+00 0.  1.
         23    2    1    2    0    0  0.11278787177E+03  0.25326759205E+02  0.52566470219E+03  0.55254991356E+03  0.12500191637E+03 0.  0.
         23    2    1    2    0    0 -0.11278787177E+03 -0.25326759205E+02  0.33294452587E+03  0.36134696992E+03  0.79730963972E+02 0.  0.
          5    1    3    3  502    0  0.91717234991E+01 -0.84182949917E+01  0.31537545117E+03  0.31565606822E+03  0.47000000000E+01 0.  1.
         -5    1    3    3    0  502  0.10361614827E+03  0.33745054196E+02  0.21028925101E+03  0.23689384533E+03  0.47000000000E+01 0.  1.
        -11    1    4    4    0    0 -0.92094925479E+02  0.16631558482E+02  0.21702528841E+03  0.23634309773E+03  0.00000000000E+00 0.  1.
         11    1    4    4    0    0 -0.20692946290E+02 -0.41958317687E+02  0.11591923745E+03  0.12500387219E+03  0.00000000000E+00 0. -1.
<mgrwt>
<rscale>  0 0.16225355E+03</rscale>
<asrwt>0</asrwt>
<pdfrwt beam="2">  1        2 0.42528973E-02 0.17025871E+03</pdfrwt>
<pdfrwt beam="1">  1       -2 0.13634660E+00 0.17025871E+03</pdfrwt>
<totfact> 0.77632214E+02</totfact>
</mgrwt>
</event>
<event>
 8    1  0.1646661E-005  0.1934447E+03  0.7546771E-02  0.1160082E+00
          2   -1    0    0  501    0  0.00000000000E+00  0.00000000000E+00  0.83368829518E+03  0.83368829518E+03  0.00000000000E+00 0. -1.
         -2   -1    0    0    0  501 -0.00000000000E+00 -0.00000000000E+00 -0.43781818630E+02  0.43781818630E+02  0.00000000000E+00 0.  1.
         23    2    1    2    0    0 -0.42766915681E+02  0.14130165648E+03  0.53763618151E+03  0.57137861350E+03  0.12500275637E+03 0.  0.
         23    2    1    2    0    0  0.42766915681E+02 -0.14130165648E+03  0.25227029505E+03  0.30609150031E+03  0.90865491789E+02 0.  0.
          5    1    3    3  502    0  0.22453953254E+02 -0.10347863039E+01  0.17306468105E+03  0.17458157013E+03  0.47000000000E+01 0. -1.
         -5    1    3    3    0  502 -0.65220868936E+02  0.14233644278E+03  0.36457150045E+03  0.39679704337E+03  0.47000000000E+01 0. -1.
        -11    1    4    4    0    0 -0.12040357640E+02 -0.92530100913E+02  0.98296081820E+02  0.13553195006E+03  0.00000000000E+00 0.  1.
         11    1    4    4    0    0  0.54807273321E+02 -0.48771555568E+02  0.15397421322E+03  0.17055955024E+03  0.00000000000E+00 0. -1.
<mgrwt>
<rscale>  0 0.18821372E+03</rscale>
<asrwt>0</asrwt>
<pdfrwt beam="1">  1        2 0.12825973E+00 0.19344471E+03</pdfrwt>
<pdfrwt beam="2">  1       -2 0.67356650E-02 0.19344471E+03</pdfrwt>
<totfact> 0.41104154E+03</totfact>
</mgrwt>
</event>
<event>
 8    1  0.1646661E-005  0.1398992E+03  0.7546771E-02  0.1224686E+00
         -2   -1    0    0    0  501 -0.00000000000E+00  0.00000000000E+00  0.41024710293E+03  0.41024710293E+03  0.00000000000E+00 0. -1.
          2   -1    0    0  501    0  0.00000000000E+00 -0.00000000000E+00 -0.41911177862E+02  0.41911177862E+02  0.00000000000E+00 0.  1.
         23    2    1    2    0    0 -0.62556542553E+02  0.57644795213E+01  0.27068312813E+03  0.30469846384E+03  0.12500099110E+03 0.  0.
         23    2    1    2    0    0  0.62556542553E+02 -0.57644795213E+01  0.97652796938E+02  0.14745981694E+03  0.90894326683E+02 0.  0.
          5    1    3    3  502    0 -0.12303212307E+02 -0.44393689779E+02  0.33721353983E+02  0.57283404575E+02  0.47000000000E+01 0.  1.
         -5    1    3    3    0  502 -0.50253330246E+02  0.50158169300E+02  0.23696177414E+03  0.24741505927E+03  0.47000000000E+01 0.  1.
        -11    1    4    4    0    0 -0.15477593183E+02 -0.99739938265E+01  0.55906702077E+02  0.58860817024E+02  0.00000000000E+00 0. -1.
         11    1    4    4    0    0  0.78034135736E+02  0.42095143053E+01  0.41746094861E+02  0.88598999920E+02  0.00000000000E+00 0.  1.
<mgrwt>
<rscale>  0 0.13188444E+03</rscale>
<asrwt>0</asrwt>
<pdfrwt beam="2">  1        2 0.64478738E-02 0.13989924E+03</pdfrwt>
<pdfrwt beam="1">  1       -2 0.63114936E-01 0.13989924E+03</pdfrwt>
<totfact> 0.25699727E+03</totfact>
</mgrwt>
</event>
<event>
 8    1  0.1646661E-005  0.1382489E+03  0.7546771E-02  0.1227424E+00
         -2   -1    0    0    0  501 -0.00000000000E+00  0.00000000000E+00  0.50596683622E+02  0.50596683622E+02  0.00000000000E+00 0.  1.
          2   -1    0    0  501    0  0.00000000000E+00 -0.00000000000E+00 -0.35757833420E+03  0.35757833420E+03  0.00000000000E+00 0. -1.
         23    2    1    2    0    0 -0.56202039245E+02  0.18127192971E+02 -0.87841723078E+02  0.16379537521E+03  0.12500196913E+03 0.  0.
         23    2    1    2    0    0  0.56202039245E+02 -0.18127192971E+02 -0.21913992750E+03  0.24437964261E+03  0.90619189800E+02 0.  0.
          5    1    3    3  502    0 -0.83057560303E+02  0.46083569992E+02 -0.79292266990E+02  0.12382086800E+03  0.47000000000E+01 0.  1.
         -5    1    3    3    0  502  0.26855521058E+02 -0.27956377020E+02 -0.85494560878E+01  0.39974507211E+02  0.47000000000E+01 0.  1.
        -11    1    4    4    0    0  0.12679050821E+01 -0.40524614566E+02 -0.45793521892E+02  0.61162885938E+02  0.00000000000E+00 0. -1.
         11    1    4    4    0    0  0.54934134163E+02  0.22397421595E+02 -0.17334640561E+03  0.18321675668E+03  0.00000000000E+00 0.  1.
<mgrwt>
<rscale>  0 0.13002154E+03</rscale>
<asrwt>0</asrwt>
<pdfrwt beam="2">  1        2 0.55012051E-01 0.13824889E+03</pdfrwt>
<pdfrwt beam="1">  1       -2 0.77841052E-02 0.13824889E+03</pdfrwt>
<totfact> 0.84838622E+03</totfact>
</mgrwt>
</event>
<event>
 8    1  0.1646661E-005  0.1254993E+03  0.7546771E-02  0.1251044E+00
          3   -1    0    0  501    0  0.00000000000E+00  0.00000000000E+00  0.21244655895E+03  0.21244655895E+03  0.00000000000E+00 0. -1.
         -3   -1    0    0    0  501 -0.00000000000E+00 -0.00000000000E+00 -0.67665934895E+02  0.67665934895E+02  0.00000000000E+00 0.  1.
         23    2    1    2    0    0  0.39356863363E+01 -0.10556383119E+02  0.20757394311E+02  0.12720438249E+03  0.12499263440E+03 0.  0.
         23    2    1    2    0    0 -0.39356863363E+01  0.10556383119E+02  0.12402322975E+03  0.15290811136E+03  0.88725431256E+02 0.  0.
          5    1    3    3  502    0  0.22778161215E+02 -0.59892582164E+02  0.33806994597E+02  0.72601438762E+02  0.47000000000E+01 0. -1.
         -5    1    3    3    0  502 -0.18842474878E+02  0.49336199045E+02 -0.13049600286E+02  0.54602943725E+02  0.47000000000E+01 0. -1.
        -11    1    4    4    0    0 -0.22169496890E+02 -0.33537473490E+02  0.42905273727E+02  0.58797204305E+02  0.00000000000E+00 0.  1.
         11    1    4    4    0    0  0.18233810554E+02  0.44093856609E+02  0.81117956022E+02  0.94110907057E+02  0.00000000000E+00 0. -1.
<mgrwt>
<rscale>  0 0.11530853E+03</rscale>
<asrwt>0</asrwt>
<pdfrwt beam="1">  1        3 0.32684086E-01 0.12549934E+03</pdfrwt>
<pdfrwt beam="2">  1       -3 0.10410144E-01 0.12549934E+03</pdfrwt>
<totfact> 0.14310110E+03</totfact>
</mgrwt>
</event>
<event>
 8    1  0.1646661E-005  0.1398173E+03  0.7546771E-02  0.1222442E+00
          1   -1    0    0  501    0  0.00000000000E+00  0.00000000000E+00  0.13993675802E+03  0.13993675802E+03  0.00000000000E+00 0. -1.
         -1   -1    0    0    0  501 -0.00000000000E+00 -0.00000000000E+00 -0.11766813873E+03  0.11766813873E+03  0.00000000000E+00 0.  1.
         23    2    1    2    0    0  0.42026069825E+02  0.53376349881E+02  0.18581636912E+01  0.13982960251E+03  0.12220327203E+03 0.  0.
         23    2    1    2    0    0 -0.42026069825E+02 -0.53376349881E+02  0.20410455607E+02  0.11777529424E+03  0.94017062086E+02 0.  0.
          5    1    3    3  502    0 -0.69255367744E+01  0.81260075466E+02  0.11454125166E+02  0.82489089628E+02  0.47000000000E+01 0. -1.
         -5    1    3    3    0  502  0.48951606599E+02 -0.27883725586E+02 -0.95959614743E+01  0.57340512884E+02  0.47000000000E+01 0.  1.
        -11    1    4    4    0    0 -0.53375138715E+02 -0.47671301593E+02  0.48836798714E+02  0.86640010025E+02  0.00000000000E+00 0. -1.
         11    1    4    4    0    0  0.11349068890E+02 -0.57050482874E+01 -0.28426343106E+02  0.31135284213E+02  0.00000000000E+00 0.  1.
<mgrwt>
<rscale>  0 0.13343776E+03</rscale>
<asrwt>0</asrwt>
<pdfrwt beam="1">  1        1 0.21528732E-01 0.13981726E+03</pdfrwt>
<pdfrwt beam="2">  1       -1 0.18102791E-01 0.13981726E+03</pdfrwt>
<totfact> 0.52635511E+03</totfact>
</mgrwt>
</event>
<event>
 8    1  0.1646661E-005  0.2752156E+03  0.7546771E-02  0.1100164E+00
         -1   -1    0    0    0  501 -0.00000000000E+00  0.00000000000E+00  0.22202928724E+03  0.22202928724E+03  0.00000000000E+00 0.  1.
          1   -1    0    0  501    0  0.00000000000E+00 -0.00000000000E+00 -0.32548153901E+03  0.32548153901E+03  0.00000000000E+00 0. -1.
         23    2    1    2    0    0 -0.18053242883E+03  0.16590988895E+03 -0.50744648088E+02  0.27985469357E+03  0.12500232436E+03 0.  0.
         23    2    1    2    0    0  0.18053242883E+03 -0.16590988895E+03 -0.52707603678E+02  0.26765613267E+03  0.93507565255E+02 0.  0.
          5    1    3    3  502    0 -0.56874635080E+02  0.20557423693E+02 -0.64404240555E+02  0.88472187640E+02  0.47000000000E+01 0. -1.
         -5    1    3    3    0  502 -0.12365779375E+03  0.14535246525E+03  0.13659592467E+02  0.19138250593E+03  0.47000000000E+01 0. -1.
        -11    1    4    4    0    0  0.13368090268E+03 -0.59924398608E+02 -0.31703603370E+02  0.14988874459E+03  0.00000000000E+00 0. -1.
         11    1    4    4    0    0  0.46851526155E+02 -0.10598549034E+03 -0.21004000309E+02  0.11776738808E+03  0.00000000000E+00 0.  1.
<mgrwt>
<rscale>  0 0.27195811E+03</rscale>
<asrwt>0</asrwt>
<pdfrwt beam="2">  1        1 0.50074083E-01 0.27521561E+03</pdfrwt>
<pdfrwt beam="1">  1       -1 0.34158352E-01 0.27521561E+03</pdfrwt>
<totfact> 0.64686279E+02</totfact>
</mgrwt>
</event>
<event>
 8    1  0.1646661E-005  0.1404637E+03  0.7546771E-02  0.1223185E+00
         -2   -1    0    0    0  501 -0.00000000000E+00  0.00000000000E+00  0.68486289263E+02  0.68486289263E+02  0.00000000000E+00 0.  1.
          2   -1    0    0  501    0  0.00000000000E+00 -0.00000000000E+00 -0.23419440056E+03  0.23419440056E+03  0.00000000000E+00 0. -1.
         23    2    1    2    0    0  0.35970293542E+02 -0.53032370702E+02 -0.86120723553E+02  0.16476290845E+03  0.12499497036E+03 0.  0.
         23    2    1    2    0    0 -0.35970293542E+02  0.53032370702E+02 -0.79587387746E+02  0.13791778138E+03  0.92632973462E+02 0.  0.
          5    1    3    3  502    0  0.71982532907E+02  0.44498389076E+01 -0.40013139857E+02  0.82610093035E+02  0.47000000000E+01 0. -1.
         -5    1    3    3    0  502 -0.36012239365E+02 -0.57482209609E+02 -0.46107583696E+02  0.82152815411E+02  0.47000000000E+01 0. -1.
        -11    1    4    4    0    0 -0.53371186862E+02  0.61147427323E+02 -0.85440275929E+02  0.11784537414E+03  0.00000000000E+00 0.  1.
         11    1    4    4    0    0  0.17400893320E+02 -0.81150566216E+01  0.58528881828E+01  0.20072407239E+02  0.00000000000E+00 0. -1.
<mgrwt>
<rscale>  0 0.13292098E+03</rscale>
<asrwt>0</asrwt>
<pdfrwt beam="2">  1        2 0.36029908E-01 0.14046365E+03</pdfrwt>
<pdfrwt beam="1">  1       -2 0.10536352E-01 0.14046365E+03</pdfrwt>
<totfact> 0.83042686E+03</totfact>
</mgrwt>
</event>
<event>
 8    1  0.1646661E-005  0.1827205E+03  0.7546771E-02  0.1171462E+00
         -1   -1    0    0    0  501 -0.00000000000E+00  0.00000000000E+00  0.34314531653E+03  0.34314531653E+03  0.00000000000E+00 0.  1.
          1   -1    0    0  501    0  0.00000000000E+00 -0.00000000000E+00 -0.85107358967E+02  0.85107358967E+02  0.00000000000E+00 0. -1.
         23    2    1    2    0    0  0.13042147956E+03  0.27429880541E+02  0.12354857475E+03  0.22056982429E+03  0.12499854555E+03 0.  0.
         23    2    1    2    0    0 -0.13042147956E+03 -0.27429880541E+02  0.13448938282E+03  0.20768285121E+03  0.85338220730E+02 0.  0.
          5    1    3    3  502    0  0.66901774352E+02  0.21007208991E+02 -0.11408295429E+02  0.71199644982E+02  0.47000000000E+01 0. -1.
         -5    1    3    3    0  502  0.63519705208E+02  0.64226715496E+01  0.13495687018E+03  0.14937017931E+03  0.47000000000E+01 0. -1.
        -11    1    4    4    0    0 -0.10043988599E+03  0.87632953562E+00  0.46858825573E+02  0.11083631258E+03  0.00000000000E+00 0. -1.
         11    1    4    4    0    0 -0.29981593569E+02 -0.28306210076E+02  0.87630557243E+02  0.96846538630E+02  0.00000000000E+00 0.  1.
<mgrwt>
<rscale>  0 0.17627072E+03</rscale>
<asrwt>0</asrwt>
<pdfrwt beam="2">  1        1 0.13093440E-01 0.18272054E+03</pdfrwt>
<pdfrwt beam="1">  1       -1 0.52791586E-01 0.18272054E+03</pdfrwt>
<totfact> 0.16352233E+03</totfact>
</mgrwt>
</event>
<event>
 8    1  0.1646661E-005  0.1790525E+03  0.7546771E-02  0.1173328E+00
         -2   -1    0    0    0  501 -0.00000000000E+00  0.00000000000E+00  0.48895831531E+03  0.48895831531E+03  0.00000000000E+00 0.  1.
          2   -1    0    0  501    0  0.00000000000E+00 -0.00000000000E+00 -0.59412051019E+02  0.59412051019E+02  0.00000000000E+00 0. -1.
         23    2    1    2    0    0 -0.22813668634E+02  0.12616380502E+03  0.24284112681E+03  0.30171445371E+03  0.12498811758E+03 0.  0.
         23    2    1    2    0    0  0.22813668634E+02 -0.12616380502E+03  0.18670513748E+03  0.24665591261E+03  0.97686036327E+02 0.  0.
          5    1    3    3  502    0  0.21907691971E+01 -0.77960797760E+01  0.11313704955E+03  0.11352383146E+03  0.47000000000E+01 0.  1.
         -5    1    3    3    0  502 -0.25004437831E+02  0.13395988479E+03  0.12970407726E+03  0.18819062225E+03  0.47000000000E+01 0.  1.
        -11    1    4    4    0    0  0.45890129684E+02 -0.39118511888E+02  0.12096178370E+03  0.13515885132E+03  0.00000000000E+00 0.  1.
         11    1    4    4    0    0 -0.23076461050E+02 -0.87045293128E+02  0.65743353777E+02  0.11149706129E+03  0.00000000000E+00 0. -1.
<mgrwt>
<rscale>  0 0.17440779E+03</rscale>
<asrwt>0</asrwt>
<pdfrwt beam="2">  1        2 0.91403159E-02 0.17905250E+03</pdfrwt>
<pdfrwt beam="1">  1       -2 0.75224354E-01 0.17905250E+03</pdfrwt>
<totfact> 0.11525640E+03</totfact>
</mgrwt>
</event>
<event>
 8    1  0.1646661E-005  0.1403155E+03  0.7546771E-02  0.1225192E+00
          2   -1    0    0  501    0  0.00000000000E+00  0.00000000000E+00  0.31123200913E+03  0.31123200913E+03  0.00000000000E+00 0.  1.
         -2   -1    0    0    0  501 -0.00000000000E+00 -0.00000000000E+00 -0.51128358284E+02  0.51128358284E+02  0.00000000000E+00 0. -1.
         23    2    1    2    0    0 -0.30871106128E+00 -0.63748315138E+02  0.17659041258E+03  0.22554960532E+03  0.12499803063E+03 0.  0.
         23    2    1    2    0    0  0.30871106128E+00  0.63748315138E+02  0.83513238265E+02  0.13681076209E+03  0.87628652116E+02 0.  0.
          5    1    3    3  502    0 -0.18939421808E+02 -0.88954149166E+02  0.71499793204E+02  0.11578364643E+03  0.47000000000E+01 0.  1.
         -5    1    3    3    0  502  0.18630710747E+02  0.25205834028E+02  0.10509061937E+03  0.10976595889E+03  0.47000000000E+01 0.  1.
        -11    1    4    4    0    0  0.34802810009E+01  0.25756026020E+02  0.93790867096E+02  0.97325289534E+02  0.00000000000E+00 0.  1.
         11    1    4    4    0    0 -0.31715699396E+01  0.37992289118E+02 -0.10277628831E+02  0.39485472553E+02  0.00000000000E+00 0. -1.
<mgrwt>
<rscale>  0 0.13153776E+03</rscale>
<asrwt>0</asrwt>
<pdfrwt beam="1">  1        2 0.47881847E-01 0.14031554E+03</pdfrwt>
<pdfrwt beam="2">  1       -2 0.78659014E-02 0.14031554E+03</pdfrwt>
<totfact> 0.96840777E+03</totfact>
</mgrwt>
</event>
<event>
 8    1  0.1646661E-005  0.1350210E+03  0.7546771E-02  0.1231919E+00
          1   -1    0    0  501    0  0.00000000000E+00  0.00000000000E+00  0.95125551098E+03  0.95125551098E+03  0.00000000000E+00 0. -1.
         -1   -1    0    0    0  501 -0.00000000000E+00 -0.00000000000E+00 -0.15289173061E+02  0.15289173061E+02  0.00000000000E+00 0.  1.
         23    2    1    2    0    0 -0.15801828650E+02  0.48540248650E+02  0.49816210643E+03  0.51613579784E+03  0.12499929598E+03 0.  0.
         23    2    1    2    0    0  0.15801828650E+02 -0.48540248650E+02  0.43780423149E+03  0.45040888620E+03  0.92680991234E+02 0.  0.
          5    1    3    3  502    0 -0.63736613000E+02  0.43706688347E+02  0.39035952568E+03  0.39796391762E+03  0.47000000000E+01 0. -1.
         -5    1    3    3    0  502  0.47934784350E+02  0.48335603036E+01  0.10780258075E+03  0.11817188021E+03  0.47000000000E+01 0. -1.
        -11    1    4    4    0    0 -0.10321556876E+02  0.19802330707E+02  0.38930959169E+02  0.44880802351E+02  0.00000000000E+00 0.  1.
         11    1    4    4    0    0  0.26123385526E+02 -0.68342579357E+02  0.39887327232E+03  0.40552808385E+03  0.00000000000E+00 0. -1.
<mgrwt>
<rscale>  0 0.12703754E+03</rscale>
<asrwt>0</asrwt>
<pdfrwt beam="1">  1        1 0.14634696E+00 0.13502103E+03</pdfrwt>
<pdfrwt beam="2">  1       -1 0.23521812E-02 0.13502103E+03</pdfrwt>
<totfact> 0.90795334E+03</totfact>
</mgrwt>
</event>
<event>
 8    1  0.1646661E-005  0.1828491E+03  0.7546771E-02  0.1170425E+00
         -2   -1    0    0    0  501 -0.00000000000E+00  0.00000000000E+00  0.57991847838E+02  0.57991847838E+02  0.00000000000E+00 0.  1.
          2   -1    0    0  501    0  0.00000000000E+00 -0.00000000000E+00 -0.51254427457E+03  0.51254427457E+03  0.00000000000E+00 0. -1.
         23    2    1    2    0    0  0.68729851194E+02  0.11439283237E+03 -0.25212241442E+03  0.31144740861E+03  0.12499705571E+03 0.  0.
         23    2    1    2    0    0 -0.68729851194E+02 -0.11439283237E+03 -0.20243001232E+03  0.25908871380E+03  0.91321077458E+02 0.  0.
          5    1    3    3  502    0 -0.34227080904E+02  0.14506297058E+02 -0.35668948405E+02  0.51732867714E+02  0.47000000000E+01 0. -1.
         -5    1    3    3    0  502  0.10295693210E+03  0.99886535316E+02 -0.21645346601E+03  0.25971454090E+03  0.47000000000E+01 0. -1.
        -11    1    4    4    0    0 -0.86702737567E+02 -0.11171334182E+03 -0.16379228001E+03  0.21639118844E+03  0.00000000000E+00 0.  1.
         11    1    4    4    0    0  0.17972886373E+02 -0.26794905530E+01 -0.38637732312E+02  0.42697525366E+02  0.00000000000E+00 0. -1.
<mgrwt>
<rscale>  0 0.17731747E+03</rscale>
<asrwt>0</asrwt>
<pdfrwt beam="2">  1        2 0.78852964E-01 0.18284905E+03</pdfrwt>
<pdfrwt beam="1">  1       -2 0.89218229E-02 0.18284905E+03</pdfrwt>
<totfact> 0.47178786E+03</totfact>
</mgrwt>
</event>
<event>
 7    1  0.1646661E-005  0.2307504E+03  0.7546771E-02  0.1156623E+00
          2   -1    0    0  501    0  0.00000000000E+00  0.00000000000E+00  0.81537860719E+03  0.81537860719E+03  0.00000000000E+00 0. -1.
         -2   -1    0    0    0  501 -0.00000000000E+00 -0.00000000000E+00 -0.37209948052E+02  0.37209948052E+02  0.00000000000E+00 0.  1.
         23    2    1    2    0    0 -0.51179509130E+02 -0.48645307643E+02  0.33689682265E+03  0.35462612643E+03  0.85290751700E+02 0.  0.
          5    1    1    2  502    0  0.28904232933E+02 -0.79295239831E+02  0.27030853673E+03  0.28321720422E+03  0.47000000000E+01 0. -1.
         -5    1    1    2    0  502  0.22275276196E+02  0.12794054747E+03  0.17096329976E+03  0.21474522459E+03  0.47000000000E+01 0.  1.
        -11    1    3    3    0    0 -0.61897444343E+02 -0.65022839036E+02  0.29549276801E+03  0.30882881853E+03  0.00000000000E+00 0.  1.
         11    1    3    3    0    0  0.10717935213E+02  0.16377531393E+02  0.41404054643E+02  0.45797307897E+02  0.00000000000E+00 0. -1.
<mgrwt>
<rscale>  0 0.19205213E+03</rscale>
<asrwt>0</asrwt>
<pdfrwt beam="1">  1        2 0.12544285E+00 0.23075040E+03</pdfrwt>
<pdfrwt beam="2">  1       -2 0.57246080E-02 0.23075040E+03</pdfrwt>
<totfact> 0.54601472E+03</totfact>
</mgrwt>
</event>
<event>
 8    1  0.1646661E-005  0.1372272E+03  0.7546771E-02  0.1229280E+00
         -2   -1    0    0    0  501 -0.00000000000E+00  0.00000000000E+00  0.30241972736E+02  0.30241972736E+02  0.00000000000E+00 0. -1.
          2   -1    0    0  501    0  0.00000000000E+00 -0.00000000000E+00 -0.51690650716E+03  0.51690650716E+03  0.00000000000E+00 0.  1.
         23    2    1    2    0    0  0.12756222843E+02  0.55173557781E+02 -0.21148533350E+03  0.25210582302E+03  0.12499782805E+03 0.  0.
         23    2    1    2    0    0 -0.12756222843E+02 -0.55173557781E+02 -0.27517920092E+03  0.29504265687E+03  0.90109566942E+02 0.  0.
          5    1    3    3  502    0  0.23514318719E+02  0.77392296757E+02 -0.66100300998E+02  0.10456495863E+03  0.47000000000E+01 0.  1.
         -5    1    3    3    0  502 -0.10758095876E+02 -0.22218738976E+02 -0.14538503250E+03  0.14754086439E+03  0.47000000000E+01 0.  1.
        -11    1    4    4    0    0  0.21761619095E+02 -0.56635845937E+02 -0.10393541209E+03  0.12034848149E+03  0.00000000000E+00 0. -1.
         11    1    4    4    0    0 -0.34517841938E+02  0.14622881557E+01 -0.17124378884E+03  0.17469417539E+03  0.00000000000E+00 0.  1.
<mgrwt>
<rscale>  0 0.12877823E+03</rscale>
<asrwt>0</asrwt>
<pdfrwt beam="2">  1        2 0.79524072E-01 0.13722718E+03</pdfrwt>
<pdfrwt beam="1">  1       -2 0.46526116E-02 0.13722718E+03</pdfrwt>
<totfact> 0.12442795E+04</totfact>
</mgrwt>
</event>
<event>
 8    1  0.1646661E-005  0.1521707E+03  0.7546771E-02  0.1206630E+00
          1   -1    0    0  501    0  0.00000000000E+00  0.00000000000E+00  0.22335638419E+03  0.22335638419E+03  0.00000000000E+00 0. -1.
         -1   -1    0    0    0  501 -0.00000000000E+00 -0.00000000000E+00 -0.88057711967E+02  0.88057711967E+02  0.00000000000E+00 0.  1.
         23    2    1    2    0    0  0.83354126777E+02 -0.24128586833E+02  0.94718117151E+02  0.17924133362E+03  0.12500333918E+03 0.  0.
         23    2    1    2    0    0 -0.83354126777E+02  0.24128586833E+02  0.40580555075E+02  0.13217276254E+03  0.91064584524E+02 0.  0.
          5    1    3    3  502    0 -0.20609778863E+02 -0.30546597959E+02 -0.17550287749E+01  0.37189081162E+02  0.47000000000E+01 0. -1.
         -5    1    3    3    0  502  0.10396390564E+03  0.64180111260E+01  0.96473145925E+02  0.14205225245E+03  0.47000000000E+01 0. -1.
        -11    1    4    4    0    0 -0.34400666883E+02 -0.30947920933E+02 -0.33324491583E+01  0.46392724747E+02  0.00000000000E+00 0. -1.
         11    1    4    4    0    0 -0.48953459894E+02  0.55076507766E+02  0.43913004233E+02  0.85780037795E+02  0.00000000000E+00 0.  1.
<mgrwt>
<rscale>  0 0.14509718E+03</rscale>
<asrwt>0</asrwt>
<pdfrwt beam="1">  1        1 0.34362520E-01 0.15217074E+03</pdfrwt>
<pdfrwt beam="2">  1       -1 0.13547340E-01 0.15217074E+03</pdfrwt>
<totfact> 0.46486665E+03</totfact>
</mgrwt>
</event>
<event>
 8    1  0.1646661E-005  0.1299800E+03  0.7546771E-02  0.1240867E+00
          3   -1    0    0  501    0  0.00000000000E+00  0.00000000000E+00  0.18792411679E+03  0.18792411679E+03  0.00000000000E+00 0. -1.
         -3   -1    0    0    0  501 -0.00000000000E+00 -0.00000000000E+00 -0.71371256882E+02  0.71371256882E+02  0.00000000000E+00 0.  1.
         23    2    1    2    0    0  0.67933930026E+00 -0.35630663160E+02  0.45917297900E+02  0.13785213464E+03  0.12499922847E+03 0.  0.
         23    2    1    2    0    0 -0.67933930026E+00  0.35630663160E+02  0.70635562012E+02  0.12144323904E+03  0.92136160266E+02 0.  0.
          5    1    3    3  502    0  0.28185916096E+02  0.37988448123E+02  0.17256832033E+01  0.47567173970E+02  0.47000000000E+01 0.  1.
         -5    1    3    3    0  502 -0.27506576796E+02 -0.73619111283E+02  0.44191614696E+02  0.90284960667E+02  0.47000000000E+01 0.  1.
        -11    1    4    4    0    0 -0.27310260950E+02  0.56500222820E+02  0.33243235417E+02  0.71015760454E+02  0.00000000000E+00 0. -1.
         11    1    4    4    0    0  0.26630921650E+02 -0.20869559660E+02  0.37392326595E+02  0.50427478586E+02  0.00000000000E+00 0.  1.
<mgrwt>
<rscale>  0 0.12136225E+03</rscale>
<asrwt>0</asrwt>
<pdfrwt beam="1">  1        3 0.28911402E-01 0.12998005E+03</pdfrwt>
<pdfrwt beam="2">  1       -3 0.10980193E-01 0.12998005E+03</pdfrwt>
<totfact> 0.16541125E+03</totfact>
</mgrwt>
</event>
<event>
 8    1  0.1646661E-005  0.2001561E+03  0.7546771E-02  0.1154035E+00
         -2   -1    0    0    0  501 -0.00000000000E+00  0.00000000000E+00  0.88201723632E+02  0.88201723632E+02  0.00000000000E+00 0.  1.
          2   -1    0    0  501    0  0.00000000000E+00 -0.00000000000E+00 -0.53311010737E+03  0.53311010737E+03  0.00000000000E+00 0. -1.
         23    2    1    2    0    0 -0.13153774817E+03  0.84479915749E+02 -0.82408704154E+02  0.21645704320E+03  0.12499368653E+03 0.  0.
         23    2    1    2    0    0  0.13153774817E+03 -0.84479915749E+02 -0.36249967958E+03  0.40485478780E+03  0.89790568244E+02 0.  0.
          5    1    3    3  502    0 -0.38088476138E+02  0.87669795821E+02 -0.64890080756E+01  0.95921438374E+02  0.47000000000E+01 0.  1.
         -5    1    3    3    0  502 -0.93449272036E+02 -0.31898800726E+01 -0.75919696078E+02  0.12053560483E+03  0.47000000000E+01 0.  1.
        -11    1    4    4    0    0  0.10033303938E+03 -0.34639181217E+02 -0.30362521314E+03  0.32164399842E+03  0.00000000000E+00 0. -1.
         11    1    4    4    0    0  0.31204708798E+02 -0.49840734531E+02 -0.58874466442E+02  0.83210789377E+02  0.00000000000E+00 0.  1.
<mgrwt>
<rscale>  0 0.19499089E+03</rscale>
<asrwt>0</asrwt>
<pdfrwt beam="2">  1        2 0.82016940E-01 0.20015608E+03</pdfrwt>
<pdfrwt beam="1">  1       -2 0.13569496E-01 0.20015608E+03</pdfrwt>
<totfact> 0.23172623E+03</totfact>
</mgrwt>
</event>
<event>
 8    1  0.1646661E-005  0.1611206E+03  0.7546771E-02  0.1195092E+00
          2   -1    0    0  501    0  0.00000000000E+00  0.00000000000E+00  0.19728451511E+03  0.19728451511E+03  0.00000000000E+00 0. -1.
         -2   -1    0    0    0  501 -0.00000000000E+00 -0.00000000000E+00 -0.12449955324E+03  0.12449955324E+03  0.00000000000E+00 0.  1.
         23    2    1    2    0    0 -0.49320032817E+02 -0.88897466269E+02 -0.11779952466E+02  0.16155063861E+03  0.12499846563E+03 0.  0.
         23    2    1    2    0    0  0.49320032817E+02  0.88897466269E+02  0.84564914333E+02  0.16023342974E+03  0.90489237612E+02 0.  0.
          5    1    3    3  502    0  0.19887087889E+02 -0.81766920813E+02  0.17229945087E+02  0.86024918551E+02  0.47000000000E+01 0.  1.
         -5    1    3    3    0  502 -0.69207120706E+02 -0.71305454557E+01 -0.29009897552E+02  0.75525720062E+02  0.47000000000E+01 0.  1.
        -11    1    4    4    0    0 -0.15379459035E+02  0.38746009078E+02 -0.11574593095E+01  0.41702765997E+02  0.00000000000E+00 0.  1.
         11    1    4    4    0    0  0.64699491852E+02  0.50151457191E+02  0.85722373642E+02  0.11853066374E+03  0.00000000000E+00 0. -1.
<mgrwt>
<rscale>  0 0.15446452E+03</rscale>
<asrwt>0</asrwt>
<pdfrwt beam="1">  1        2 0.30351464E-01 0.16112058E+03</pdfrwt>
<pdfrwt beam="2">  1       -2 0.19153777E-01 0.16112058E+03</pdfrwt>
<totfact> 0.38035639E+03</totfact>
</mgrwt>
</event>
<event>
 8    1  0.1646661E-005  0.1354670E+03  0.7546771E-02  0.1231878E+00
          2   -1    0    0  501    0  0.00000000000E+00  0.00000000000E+00  0.78728660017E+03  0.78728660017E+03  0.00000000000E+00 0. -1.
         -2   -1    0    0    0  501 -0.00000000000E+00 -0.00000000000E+00 -0.20059835039E+02  0.20059835039E+02  0.00000000000E+00 0.  1.
         23    2    1    2    0    0 -0.51233602277E+02 -0.10079171751E+02  0.54561274236E+03  0.56217840915E+03  0.12499930952E+03 0.  0.
         23    2    1    2    0    0  0.51233602277E+02  0.10079171751E+02  0.22161402277E+03  0.24516802606E+03  0.90929171386E+02 0.  0.
          5    1    3    3  502    0  0.15467585596E+02  0.42932633320E+02  0.26275759768E+03  0.26673226716E+03  0.47000000000E+01 0.  1.
         -5    1    3    3    0  502 -0.66701187874E+02 -0.53011805071E+02  0.28285514468E+03  0.29544614199E+03  0.47000000000E+01 0.  1.
        -11    1    4    4    0    0  0.43103075513E+02 -0.26634409663E+02  0.56783959482E+02  0.76103120509E+02  0.00000000000E+00 0.  1.
         11    1    4    4    0    0  0.81305267640E+01  0.36713581414E+02  0.16483006328E+03  0.16906490555E+03  0.00000000000E+00 0. -1.
<mgrwt>
<rscale>  0 0.12706397E+03</rscale>
<asrwt>0</asrwt>
<pdfrwt beam="1">  1        2 0.12112099E+00 0.13546697E+03</pdfrwt>
<pdfrwt beam="2">  1       -2 0.30861291E-02 0.13546697E+03</pdfrwt>
<totfact> 0.14024316E+04</totfact>
</mgrwt>
</event>
<event>
 8    1  0.1646661E-005  0.1680716E+03  0.7546771E-02  0.1192931E+00
         -1   -1    0    0    0  501 -0.00000000000E+00  0.00000000000E+00  0.27909714658E+03  0.27909714658E+03  0.00000000000E+00 0.  1.
          1   -1    0    0  501    0  0.00000000000E+00 -0.00000000000E+00 -0.11136152771E+03  0.11136152771E+03  0.00000000000E+00 0. -1.
         23    2    1    2    0    0  0.10766391658E+03 -0.32320311189E+02  0.19942154777E+03  0.26080074160E+03  0.12494779573E+03 0.  0.
         23    2    1    2    0    0 -0.10766391658E+03  0.32320311189E+02 -0.31685928898E+02  0.12965793269E+03  0.56312165379E+02 0.  0.
          5    1    3    3  502    0  0.18027499417E+01 -0.37716212290E+02  0.12638906126E+03  0.13199260352E+03  0.47000000000E+01 0. -1.
         -5    1    3    3    0  502  0.10586116664E+03  0.53959011012E+01  0.73032486503E+02  0.12880813808E+03  0.47000000000E+01 0. -1.
        -11    1    4    4    0    0 -0.57799685899E+02 -0.19669638467E+01  0.63522098458E+01  0.58180952268E+02  0.00000000000E+00 0.  1.
         11    1    4    4    0    0 -0.49864230681E+02  0.34287275035E+02 -0.38038138743E+02  0.71476980419E+02  0.00000000000E+00 0. -1.
<mgrwt>
<rscale>  0 0.15630671E+03</rscale>
<asrwt>0</asrwt>
<pdfrwt beam="2">  1        1 0.17132543E-01 0.16807163E+03</pdfrwt>
<pdfrwt beam="1">  1       -1 0.42938022E-01 0.16807163E+03</pdfrwt>
<totfact> 0.16730298E+03</totfact>
</mgrwt>
</event>
<event>
 7    1  0.1646661E-005  0.1610626E+03  0.7546771E-02  0.1196388E+00
          2   -1    0    0  501    0  0.00000000000E+00  0.00000000000E+00  0.65733524971E+03  0.65733524971E+03  0.00000000000E+00 0. -1.
         -2   -1    0    0    0  501 -0.00000000000E+00 -0.00000000000E+00 -0.34096458987E+02  0.34096458987E+02  0.00000000000E+00 0.  1.
         23    2    1    2    0    0 -0.52797587949E+02  0.81008473447E+02  0.35049285480E+03  0.37468019548E+03  0.90498892532E+02 0.  0.
          5    1    1    2  502    0  0.45019910925E+02 -0.11619504471E+03  0.21332591189E+03  0.24709940404E+03  0.47000000000E+01 0. -1.
         -5    1    1    2    0  502  0.77776770243E+01  0.35186571263E+02  0.59420024028E+02  0.69652109176E+02  0.47000000000E+01 0.  1.
        -11    1    3    3    0    0 -0.16210889105E+02  0.92621242469E+02  0.25210250730E+03  0.26906720661E+03  0.00000000000E+00 0.  1.
         11    1    3    3    0    0 -0.36586698845E+02 -0.11612769022E+02  0.98390347499E+02  0.10561298887E+03  0.00000000000E+00 0. -1.
<mgrwt>
<rscale>  0 0.15337333E+03</rscale>
<asrwt>0</asrwt>
<pdfrwt beam="1">  1        2 0.10112849E+00 0.16106264E+03</pdfrwt>
<pdfrwt beam="2">  1       -2 0.52456096E-02 0.16106264E+03</pdfrwt>
<totfact> 0.79887681E+03</totfact>
</mgrwt>
</event>
<event>
 8    1  0.1646661E-005  0.1631332E+03  0.7546771E-02  0.1191293E+00
         -2   -1    0    0    0  501 -0.00000000000E+00  0.00000000000E+00  0.22283240194E+03  0.22283240194E+03  0.00000000000E+00 0. -1.
          2   -1    0    0  501    0  0.00000000000E+00 -0.00000000000E+00 -0.11117113741E+03  0.11117113741E+03  0.00000000000E+00 0.  1.
         23    2    1    2    0    0  0.51493388911E+02  0.91290613747E+02  0.99183121918E+02  0.19091810749E+03  0.12500754711E+03 0.  0.
         23    2    1    2    0    0 -0.51493388911E+02 -0.91290613747E+02  0.12478142612E+02  0.14308543186E+03  0.96603268618E+02 0.  0.
          5    1    3    3  502    0  0.88009835238E+02  0.90467207898E+02  0.77385330952E+02  0.14812368565E+03  0.47000000000E+01 0. -1.
         -5    1    3    3    0  502 -0.36516446328E+02  0.82340584930E+00  0.21797790966E+02  0.42794421840E+02  0.47000000000E+01 0. -1.
        -11    1    4    4    0    0 -0.21551142441E+02  0.27284952118E+01 -0.28845058436E+02  0.36110023854E+02  0.00000000000E+00 0.  1.
         11    1    4    4    0    0 -0.29942246470E+02 -0.94019108959E+02  0.41323201048E+02  0.10697540801E+03  0.00000000000E+00 0. -1.
<mgrwt>
<rscale>  0 0.15772158E+03</rscale>
<asrwt>0</asrwt>
<pdfrwt beam="2">  1        2 0.17103252E-01 0.16313317E+03</pdfrwt>
<pdfrwt beam="1">  1       -2 0.34281908E-01 0.16313317E+03</pdfrwt>
<totfact> 0.25945225E+03</totfact>
</mgrwt>
</event>
<event>
 8    1  0.1734841E-005  0.1782029E+03  0.7546771E-02  0.1175371E+00
         -2   -1    0    0    0  501 -0.00000000000E+00  0.00000000000E+00  0.33900477238E+02  0.33900477238E+02  0.00000000000E+00 0.  1.
          2   -1    0    0  501    0  0.00000000000E+00 -0.00000000000E+00 -0.86867466642E+03  0.86867466642E+03  0.00000000000E+00 0. -1.
         23    2    1    2    0    0 -0.66824917742E+02  0.10800419561E+03 -0.34157782771E+03  0.38526831329E+03  0.12500313974E+03 0.  0.
         23    2    1    2    0    0  0.66824917742E+02 -0.10800419561E+03 -0.49319636148E+03  0.51730683037E+03  0.90737147152E+02 0.  0.
          5    1    3    3  502    0 -0.69377611848E+02  0.68954482158E+02 -0.32994805113E+03  0.34417405492E+03  0.47000000000E+01 0. -1.
         -5    1    3    3    0  502  0.25526941061E+01  0.39049713449E+02 -0.11629776576E+02  0.41094258369E+02  0.47000000000E+01 0. -1.
        -11    1    4    4    0    0  0.10526226052E+01 -0.68140176185E+02 -0.32909054403E+03  0.33607257817E+03  0.00000000000E+00 0. -1.
         11    1    4    4    0    0  0.65772295137E+02 -0.39864019422E+02 -0.16410581745E+03  0.18123425220E+03  0.00000000000E+00 0.  1.
<mgrwt>
<rscale>  0 0.17239669E+03</rscale>
<asrwt>0</asrwt>
<pdfrwt beam="2">  1        2 0.13364225E+00 0.17820286E+03</pdfrwt>
<pdfrwt beam="1">  1       -2 0.52154583E-02 0.17820286E+03</pdfrwt>
<totfact> 0.57436151E+03</totfact>
</mgrwt>
</event>
<event>
 8    1  0.1646661E-005  0.3416227E+03  0.7546771E-02  0.1067242E+00
          2   -1    0    0  501    0  0.00000000000E+00  0.00000000000E+00  0.81424343438E+03  0.81424343438E+03  0.00000000000E+00 0. -1.
         -2   -1    0    0    0  501 -0.00000000000E+00 -0.00000000000E+00 -0.18328656370E+03  0.18328656370E+03  0.00000000000E+00 0.  1.
         23    2    1    2    0    0  0.29989031187E+03 -0.10557709191E+03  0.73914052373E+02  0.34952734995E+03  0.12500143893E+03 0.  0.
         23    2    1    2    0    0 -0.29989031187E+03  0.10557709191E+03  0.55704281831E+03  0.64800264813E+03  0.92358048221E+02 0.  0.
          5    1    3    3  502    0  0.17461081093E+03  0.22043524621E+01  0.54879772413E+02  0.18310563586E+03  0.47000000000E+01 0. -1.
         -5    1    3    3    0  502  0.12527950093E+03 -0.10778144437E+03  0.19034279960E+02  0.16642171408E+03  0.47000000000E+01 0. -1.
        -11    1    4    4    0    0 -0.22516882262E+03  0.41923551912E+02  0.34191644097E+03  0.41154032061E+03  0.00000000000E+00 0.  1.
         11    1    4    4    0    0 -0.74721489246E+02  0.63653539995E+02  0.21512637734E+03  0.23646232752E+03  0.00000000000E+00 0. -1.
<mgrwt>
<rscale>  0 0.33895472E+03</rscale>
<asrwt>0</asrwt>
<pdfrwt beam="1">  1        2 0.12526822E+00 0.34162272E+03</pdfrwt>
<pdfrwt beam="2">  1       -2 0.28197933E-01 0.34162272E+03</pdfrwt>
<totfact> 0.39750458E+02</totfact>
</mgrwt>
</event>
<event>
 8    1  0.1646661E-005  0.1306817E+03  0.7546771E-02  0.1240422E+00
         -1   -1    0    0    0  501 -0.00000000000E+00  0.00000000000E+00  0.13143139211E+03  0.13143139211E+03  0.00000000000E+00 0. -1.
          1   -1    0    0  501    0  0.00000000000E+00 -0.00000000000E+00 -0.99613700407E+02  0.99613700407E+02  0.00000000000E+00 0.  1.
         23    2    1    2    0    0 -0.19625865739E+02 -0.32643407556E+02  0.21109983748E+02  0.13237572736E+03  0.12500774023E+03 0.  0.
         23    2    1    2    0    0  0.19625865739E+02  0.32643407556E+02  0.10707707954E+02  0.98669365156E+02  0.90389280049E+02 0.  0.
          5    1    3    3  502    0 -0.24071245105E+02 -0.26283646258E+02  0.72110521990E+02  0.80574637965E+02  0.47000000000E+01 0.  1.
         -5    1    3    3    0  502  0.44453793664E+01 -0.63597612982E+01 -0.51000538242E+02  0.51801089394E+02  0.47000000000E+01 0.  1.
        -11    1    4    4    0    0 -0.28650605361E+02  0.32085626764E+02  0.23098436353E+02  0.48825018119E+02  0.00000000000E+00 0. -1.
         11    1    4    4    0    0  0.48276471100E+02  0.55778079245E+00 -0.12390728399E+02  0.49844347037E+02  0.00000000000E+00 0.  1.
<mgrwt>
<rscale>  0 0.12163638E+03</rscale>
<asrwt>0</asrwt>
<pdfrwt beam="2">  1        1 0.15325185E-01 0.13068168E+03</pdfrwt>
<pdfrwt beam="1">  1       -1 0.20220214E-01 0.13068168E+03</pdfrwt>
<totfact> 0.67805897E+03</totfact>
</mgrwt>
</event>
<event>
 8    1  0.1646661E-005  0.1287129E+03  0.7546771E-02  0.1244867E+00
          1   -1    0    0  501    0  0.00000000000E+00  0.00000000000E+00  0.33900879085E+03  0.33900879085E+03  0.00000000000E+00 0. -1.
         -1   -1    0    0    0  501 -0.00000000000E+00 -0.00000000000E+00 -0.36561368995E+02  0.36561368995E+02  0.00000000000E+00 0.  1.
         23    2    1    2    0    0 -0.30094604828E+02 -0.60339797401E+01  0.16889059600E+03  0.21234652381E+03  0.12499967442E+03 0.  0.
         23    2    1    2    0    0  0.30094604828E+02  0.60339797401E+01  0.13355682586E+03  0.16322363604E+03  0.88670375417E+02 0.  0.
          5    1    3    3  502    0  0.39195533247E+02  0.29291768378E+02  0.82277754916E+02  0.95843708585E+02  0.47000000000E+01 0.  1.
         -5    1    3    3    0  502 -0.69290138075E+02 -0.35325748118E+02  0.86612841079E+02  0.11650281522E+03  0.47000000000E+01 0.  1.
        -11    1    4    4    0    0  0.57740481251E+02  0.19873760646E+02  0.10308582968E+03  0.11981493153E+03  0.00000000000E+00 0. -1.
         11    1    4    4    0    0 -0.27645876423E+02 -0.13839780906E+02  0.30470996181E+02  0.43408704507E+02  0.00000000000E+00 0.  1.
<mgrwt>
<rscale>  0 0.11893368E+03</rscale>
<asrwt>0</asrwt>
<pdfrwt beam="1">  1        1 0.52155196E-01 0.12871291E+03</pdfrwt>
<pdfrwt beam="2">  1       -1 0.56248262E-02 0.12871291E+03</pdfrwt>
<totfact> 0.10412073E+04</totfact>
</mgrwt>
</event>
<event>
 8    1  0.1646661E-005  0.1463379E+03  0.7546771E-02  0.1214726E+00
          1   -1    0    0  501    0  0.00000000000E+00  0.00000000000E+00  0.49897376909E+02  0.49897376909E+02  0.00000000000E+00 0. -1.
         -1   -1    0    0    0  501 -0.00000000000E+00 -0.00000000000E+00 -0.36332707431E+03  0.36332707431E+03  0.00000000000E+00 0.  1.
         23    2    1    2    0    0 -0.71182841367E+02  0.26894863825E+02 -0.13733898878E+03  0.20069076464E+03  0.12499781825E+03 0.  0.
         23    2    1    2    0    0  0.71182841367E+02 -0.26894863825E+02 -0.17609070863E+03  0.21253368659E+03  0.91500271391E+02 0.  0.
          5    1    3    3  502    0 -0.19744629736E+02  0.33915239104E+02 -0.14290214923E+03  0.14826735346E+03  0.47000000000E+01 0.  1.
         -5    1    3    3    0  502 -0.51438211630E+02 -0.70203752786E+01  0.55631604566E+01  0.52423411173E+02  0.47000000000E+01 0.  1.
        -11    1    4    4    0    0  0.95318555615E+01  0.31981719017E+02 -0.42088600724E+02  0.53713470682E+02  0.00000000000E+00 0. -1.
         11    1    4    4    0    0  0.61650985805E+02 -0.58876582843E+02 -0.13400210790E+03  0.15882021590E+03  0.00000000000E+00 0.  1.
<mgrwt>
<rscale>  0 0.13896667E+03</rscale>
<asrwt>0</asrwt>
<pdfrwt beam="1">  1        1 0.76765196E-02 0.14633791E+03</pdfrwt>
<pdfrwt beam="2">  1       -1 0.55896472E-01 0.14633791E+03</pdfrwt>
<totfact> 0.29663080E+03</totfact>
</mgrwt>
</event>
<event>
 8    1  0.1646661E-005  0.1552232E+03  0.7546771E-02  0.1201802E+00
          1   -1    0    0  501    0  0.00000000000E+00  0.00000000000E+00  0.44075397900E+03  0.44075397900E+03  0.00000000000E+00 0. -1.
         -1   -1    0    0    0  501 -0.00000000000E+00 -0.00000000000E+00 -0.50469364342E+02  0.50469364342E+02  0.00000000000E+00 0.  1.
         23    2    1    2    0    0  0.75906467313E+02  0.52012092851E+02  0.14257325136E+03  0.21076380145E+03  0.12500879335E+03 0.  0.
         23    2    1    2    0    0 -0.75906467313E+02 -0.52012092851E+02  0.24771136330E+03  0.28045954189E+03  0.93965874383E+02 0.  0.
          5    1    3    3  502    0 -0.38013478497E+01  0.71656556693E+02  0.54172223413E+02  0.90032395015E+02  0.47000000000E+01 0.  1.
         -5    1    3    3    0  502  0.79707815163E+02 -0.19644463843E+02  0.88401027944E+02  0.12073140643E+03  0.47000000000E+01 0.  1.
        -11    1    4    4    0    0  0.58879728292E+01 -0.29436072985E+02  0.16687418657E+02  0.34345604642E+02  0.00000000000E+00 0.  1.
         11    1    4    4    0    0 -0.81794440143E+02 -0.22576019866E+02  0.23102394464E+03  0.24611393725E+03  0.00000000000E+00 0. -1.
<mgrwt>
<rscale>  0 0.14892332E+03</rscale>
<asrwt>0</asrwt>
<pdfrwt beam="1">  1        1 0.67808302E-01 0.15522322E+03</pdfrwt>
<pdfrwt beam="2">  1       -1 0.77645179E-02 0.15522322E+03</pdfrwt>
<totfact> 0.46711257E+03</totfact>
</mgrwt>
</event>
<event>
 8    1  0.1646661E-005  0.1290364E+03  0.7546771E-02  0.1243027E+00
         -2   -1    0    0    0  501 -0.00000000000E+00  0.00000000000E+00  0.11536898089E+03  0.11536898089E+03  0.00000000000E+00 0.  1.
          2   -1    0    0  501    0  0.00000000000E+00 -0.00000000000E+00 -0.12891350083E+03  0.12891350083E+03  0.00000000000E+00 0. -1.
         23    2    1    2    0    0 -0.20932031183E+02  0.24235561977E+02  0.38305601322E+02  0.13460203694E+03  0.12499950745E+03 0.  0.
         23    2    1    2    0    0  0.20932031183E+02 -0.24235561977E+02 -0.51850121260E+02  0.10968044478E+03  0.91191296173E+02 0.  0.
          5    1    3    3  502    0 -0.38565799563E+02  0.64717355109E+02  0.47594785781E+02  0.89235702394E+02  0.47000000000E+01 0.  1.
         -5    1    3    3    0  502  0.17633768380E+02 -0.40481793132E+02 -0.92891844590E+01  0.45366334548E+02  0.47000000000E+01 0.  1.
        -11    1    4    4    0    0 -0.53299248974E+01 -0.48382976125E+02 -0.24401962474E+01  0.48736793450E+02  0.00000000000E+00 0.  1.
         11    1    4    4    0    0  0.26261956081E+02  0.24147414147E+02 -0.49409925013E+02  0.60943651326E+02  0.00000000000E+00 0. -1.
<mgrwt>
<rscale>  0 0.12004261E+03</rscale>
<asrwt>0</asrwt>
<pdfrwt beam="2">  1        2 0.19832846E-01 0.12903639E+03</pdfrwt>
<pdfrwt beam="1">  1       -2 0.17749074E-01 0.12903639E+03</pdfrwt>
<totfact> 0.68289616E+03</totfact>
</mgrwt>
</event>
<event>
 8    1  0.1646661E-005  0.1327279E+03  0.7546771E-02  0.1241710E+00
          1   -1    0    0  501    0  0.00000000000E+00  0.00000000000E+00  0.37133393443E+03  0.37133393443E+03  0.00000000000E+00 0. -1.
         -1   -1    0    0    0  501 -0.00000000000E+00 -0.00000000000E+00 -0.54712710662E+02  0.54712710662E+02  0.00000000000E+00 0.  1.
         23    2    1    2    0    0  0.12756261559E+02  0.42782523166E+02  0.46006449017E+02  0.14047522644E+03  0.12499451746E+03 0.  0.
         23    2    1    2    0    0 -0.12756261559E+02 -0.42782523166E+02  0.27061477475E+03  0.28557141865E+03  0.79533718259E+02 0.  0.
          5    1    3    3  502    0  0.45020976104E+02  0.74543145829E+02  0.30197100223E+02  0.92290431472E+02  0.47000000000E+01 0. -1.
         -5    1    3    3    0  502 -0.32264714546E+02 -0.31760622663E+02  0.15809348794E+02  0.48184794966E+02  0.47000000000E+01 0. -1.
        -11    1    4    4    0    0 -0.24188096000E+02  0.11929943465E+02  0.15290224837E+03  0.15526263265E+03  0.00000000000E+00 0. -1.
         11    1    4    4    0    0  0.11431834442E+02 -0.54712466631E+02  0.11771252637E+03  0.13030878600E+03  0.00000000000E+00 0.  1.
<mgrwt>
<rscale>  0 0.12084494E+03</rscale>
<asrwt>0</asrwt>
<pdfrwt beam="1">  1        1 0.57128296E-01 0.13272790E+03</pdfrwt>
<pdfrwt beam="2">  1       -1 0.84173403E-02 0.13272790E+03</pdfrwt>
<totfact> 0.50938314E+03</totfact>
</mgrwt>
</event>
<event>
 8    1  0.1646661E-005  0.1304283E+03  0.7546771E-02  0.1240245E+00
         -2   -1    0    0    0  501 -0.00000000000E+00  0.00000000000E+00  0.30332390578E+03  0.30332390578E+03  0.00000000000E+00 0.  1.
          2   -1    0    0  501    0  0.00000000000E+00 -0.00000000000E+00 -0.49833555201E+02  0.49833555201E+02  0.00000000000E+00 0. -1.
         23    2    1    2    0    0 -0.30549709254E+02  0.21198159587E+02  0.20483219715E+03  0.24283281306E+03  0.12501559664E+03 0.  0.
         23    2    1    2    0    0  0.30549709254E+02 -0.21198159587E+02  0.48658153428E+02  0.11032464792E+03  0.91767452504E+02 0.  0.
          5    1    3    3  502    0 -0.32071521121E+02 -0.59272403695E+01  0.21183764510E+03  0.21438514997E+03  0.47000000000E+01 0. -1.
         -5    1    3    3    0  502  0.15218118673E+01  0.27125399957E+02 -0.70054479508E+01  0.28447663088E+02  0.47000000000E+01 0. -1.
        -11    1    4    4    0    0  0.34745018501E+02  0.26129301013E+01 -0.18142237051E+02  0.39283386814E+02  0.00000000000E+00 0. -1.
         11    1    4    4    0    0 -0.41953092475E+01 -0.23811089688E+02  0.66800390479E+02  0.71041261110E+02  0.00000000000E+00 0.  1.
<mgrwt>
<rscale>  0 0.12174576E+03</rscale>
<asrwt>0</asrwt>
<pdfrwt beam="2">  1        2 0.76667010E-02 0.13042832E+03</pdfrwt>
<pdfrwt beam="1">  1       -2 0.46665215E-01 0.13042832E+03</pdfrwt>
<totfact> 0.37693286E+03</totfact>
</mgrwt>
</event>
<event>
 8    1  0.1646661E-005  0.2272251E+03  0.7546771E-02  0.1131740E+00
          2   -1    0    0  501    0  0.00000000000E+00  0.00000000000E+00  0.66180191862E+03  0.66180191862E+03  0.00000000000E+00 0. -1.
         -2   -1    0    0    0  501 -0.00000000000E+00 -0.00000000000E+00 -0.87724761416E+02  0.87724761416E+02  0.00000000000E+00 0.  1.
         23    2    1    2    0    0  0.12711248415E+03 -0.14088234780E+03  0.13933409181E+03  0.26654309569E+03  0.12500325266E+03 0.  0.
         23    2    1    2    0    0 -0.12711248415E+03  0.14088234780E+03  0.43474306539E+03  0.48298358434E+03  0.90918591549E+02 0.  0.
          5    1    3    3  502    0  0.14037823019E+03 -0.74049165756E+02  0.93022849388E+02  0.18402355004E+03  0.47000000000E+01 0.  1.
         -5    1    3    3    0  502 -0.13265746049E+02 -0.66833182041E+02  0.46311242421E+02  0.82519545652E+02  0.47000000000E+01 0.  1.
        -11    1    4    4    0    0 -0.39391300390E+02  0.34904581862E+02  0.43574668611E+02  0.68328296671E+02  0.00000000000E+00 0.  1.
         11    1    4    4    0    0 -0.87721183756E+02  0.10597776593E+03  0.39116839678E+03  0.41465528767E+03  0.00000000000E+00 0. -1.
<mgrwt>
<rscale>  0 0.22289886E+03</rscale>
<asrwt>0</asrwt>
<pdfrwt beam="1">  1        2 0.10181568E+00 0.22722507E+03</pdfrwt>
<pdfrwt beam="2">  1       -2 0.13496118E-01 0.22722507E+03</pdfrwt>
<totfact> 0.18253079E+03</totfact>
</mgrwt>
</event>
<event>
 8    1  0.1646661E-005  0.1449837E+03  0.7546771E-02  0.1216690E+00
         -2   -1    0    0    0  501 -0.00000000000E+00  0.00000000000E+00  0.22323696892E+03  0.22323696892E+03  0.00000000000E+00 0. -1.
          2   -1    0    0  501    0  0.00000000000E+00 -0.00000000000E+00 -0.10708336460E+03  0.10708336460E+03  0.00000000000E+00 0.  1.
         23    2    1    2    0    0  0.58532471682E+02 -0.44376215250E+02  0.14952506439E+03  0.20827387647E+03  0.12499985606E+03 0.  0.
         23    2    1    2    0    0 -0.58532471682E+02  0.44376215250E+02 -0.33371460077E+02  0.12204645706E+03  0.91577205740E+02 0.  0.
          5    1    3    3  502    0  0.55184905717E+02 -0.86360905187E+02  0.10690213435E+03  0.14816793206E+03  0.47000000000E+01 0. -1.
         -5    1    3    3    0  502  0.33475659654E+01  0.41984689937E+02  0.42622930046E+02  0.60105944404E+02  0.47000000000E+01 0. -1.
        -11    1    4    4    0    0  0.21827935601E+02 -0.40199206302E+01  0.79686656097E+00  0.22209311804E+02  0.00000000000E+00 0. -1.
         11    1    4    4    0    0 -0.80360407283E+02  0.48396135880E+02 -0.34168326638E+02  0.99837145252E+02  0.00000000000E+00 0.  1.
<mgrwt>
<rscale>  0 0.13753147E+03</rscale>
<asrwt>0</asrwt>
<pdfrwt beam="2">  1        2 0.16474364E-01 0.14498366E+03</pdfrwt>
<pdfrwt beam="1">  1       -2 0.34344149E-01 0.14498366E+03</pdfrwt>
<totfact> 0.26848684E+03</totfact>
</mgrwt>
</event>
<event>
 8    1  0.1646661E-005  0.1427458E+03  0.7546771E-02  0.1218708E+00
         -1   -1    0    0    0  501 -0.00000000000E+00  0.00000000000E+00  0.48098748346E+02  0.48098748346E+02  0.00000000000E+00 0.  1.
          1   -1    0    0  501    0  0.00000000000E+00 -0.00000000000E+00 -0.43402799140E+03  0.43402799140E+03  0.00000000000E+00 0. -1.
         23    2    1    2    0    0  0.56424127063E+02  0.39597431837E+02 -0.10420514915E+03  0.17673451418E+03  0.12499894668E+03 0.  0.
         23    2    1    2    0    0 -0.56424127063E+02 -0.39597431837E+02 -0.28172409391E+03  0.30539222557E+03  0.95625873204E+02 0.  0.
          5    1    3    3  502    0  0.81144607388E+02 -0.28519482068E+01 -0.97445803510E+02  0.12692657538E+03  0.47000000000E+01 0.  1.
         -5    1    3    3    0  502 -0.24720480325E+02  0.42449380044E+02 -0.67593456357E+01  0.49807938795E+02  0.47000000000E+01 0.  1.
        -11    1    4    4    0    0 -0.31939680946E+02 -0.14573752446E+00 -0.16152213508E+02  0.35791877005E+02  0.00000000000E+00 0.  1.
         11    1    4    4    0    0 -0.24484446117E+02 -0.39451694313E+02 -0.26557188040E+03  0.26960034857E+03  0.00000000000E+00 0. -1.
<mgrwt>
<rscale>  0 0.13607665E+03</rscale>
<asrwt>0</asrwt>
<pdfrwt beam="2">  1        1 0.66773539E-01 0.14274584E+03</pdfrwt>
<pdfrwt beam="1">  1       -1 0.73998073E-02 0.14274584E+03</pdfrwt>
<totfact> 0.51004400E+03</totfact>
</mgrwt>
</event>
<event>
 8    1  0.1646661E-005  0.2040746E+03  0.7546771E-02  0.1150295E+00
         -2   -1    0    0    0  501 -0.00000000000E+00  0.00000000000E+00  0.60794046113E+02  0.60794046113E+02  0.00000000000E+00 0. -1.
          2   -1    0    0  501    0  0.00000000000E+00 -0.00000000000E+00 -0.65299742279E+03  0.65299742279E+03  0.00000000000E+00 0.  1.
         23    2    1    2    0    0  0.12675736311E+03 -0.99769119527E+02 -0.23563243313E+03  0.31171956214E+03  0.12500054225E+03 0.  0.
         23    2    1    2    0    0 -0.12675736311E+03  0.99769119527E+02 -0.35657094355E+03  0.40207190677E+03  0.92182829817E+02 0.  0.
          5    1    3    3  502    0  0.51550719127E+02  0.65732483820E+01 -0.13052284564E+02  0.53787883107E+02  0.47000000000E+01 0. -1.
         -5    1    3    3    0  502  0.75206643984E+02 -0.10634236791E+03 -0.22258014856E+03  0.25793167903E+03  0.47000000000E+01 0. -1.
        -11    1    4    4    0    0 -0.73243252055E+02  0.10733410289E+03 -0.22490198052E+03  0.25974234244E+03  0.00000000000E+00 0. -1.
         11    1    4    4    0    0 -0.53514111056E+02 -0.75649833665E+01 -0.13166896303E+03  0.14232956432E+03  0.00000000000E+00 0.  1.
<mgrwt>
<rscale>  0 0.19934207E+03</rscale>
<asrwt>0</asrwt>
<pdfrwt beam="2">  1        2 0.10046113E+00 0.20407460E+03</pdfrwt>
<pdfrwt beam="1">  1       -2 0.93529314E-02 0.20407460E+03</pdfrwt>
<totfact> 0.33326870E+03</totfact>
</mgrwt>
</event>
<event>
 8    1  0.1646661E-005  0.1993928E+03  0.7546771E-02  0.1154456E+00
         -1   -1    0    0    0  501 -0.00000000000E+00  0.00000000000E+00  0.48749793209E+02  0.48749793209E+02  0.00000000000E+00 0.  1.
          1   -1    0    0  501    0  0.00000000000E+00 -0.00000000000E+00 -0.74153799742E+03  0.74153799742E+03  0.00000000000E+00 0. -1.
         23    2    1    2    0    0  0.81740018054E+02 -0.13210182988E+03 -0.37932787203E+03  0.42854070449E+03  0.12500070760E+03 0.  0.
         23    2    1    2    0    0 -0.81740018054E+02  0.13210182988E+03 -0.31346033218E+03  0.36174708614E+03  0.92039396275E+02 0.  0.
          5    1    3    3  502    0  0.35935417513E+02 -0.47245123423E+02 -0.29312646335E+03  0.29911313819E+03  0.47000000000E+01 0. -1.
         -5    1    3    3    0  502  0.45804600541E+02 -0.84856706459E+02 -0.86201408675E+02  0.12942756630E+03  0.47000000000E+01 0. -1.
        -11    1    4    4    0    0 -0.87851023118E+02  0.86955701138E+02 -0.27723280955E+03  0.30354098062E+03  0.00000000000E+00 0. -1.
         11    1    4    4    0    0  0.61110050646E+01  0.45146128745E+02 -0.36227522630E+02  0.58206105517E+02  0.00000000000E+00 0.  1.
<mgrwt>
<rscale>  0 0.19450927E+03</rscale>
<asrwt>0</asrwt>
<pdfrwt beam="2">  1        1 0.11408278E+00 0.19939283E+03</pdfrwt>
<pdfrwt beam="1">  1       -1 0.74999677E-02 0.19939283E+03</pdfrwt>
<totfact> 0.24416259E+03</totfact>
</mgrwt>
</event>
<event>
 8    1  0.1646661E-005  0.1405467E+03  0.7546771E-02  0.1223511E+00
          2   -1    0    0  501    0  0.00000000000E+00  0.00000000000E+00  0.29599524249E+03  0.29599524249E+03  0.00000000000E+00 0.  1.
         -2   -1    0    0    0  501 -0.00000000000E+00 -0.00000000000E+00 -0.58819271558E+02  0.58819271558E+02  0.00000000000E+00 0. -1.
         23    2    1    2    0    0  0.14882635244E+02  0.62506703993E+02  0.79119891912E+02  0.16128652228E+03  0.12499921638E+03 0.  0.
         23    2    1    2    0    0 -0.14882635244E+02 -0.62506703993E+02  0.15805607902E+03  0.19352799177E+03  0.91338812165E+02 0.  0.
          5    1    3    3  502    0  0.33213124081E+02  0.67350682124E+02 -0.45379691780E+01  0.75378439610E+02  0.47000000000E+01 0.  1.
         -5    1    3    3    0  502 -0.18330488836E+02 -0.48439781310E+01  0.83657861090E+02  0.85908082666E+02  0.47000000000E+01 0.  1.
        -11    1    4    4    0    0 -0.44613039373E+02 -0.51374151471E+01  0.83959134261E+02  0.95214770610E+02  0.00000000000E+00 0.  1.
         11    1    4    4    0    0  0.29730404128E+02 -0.57369288846E+02  0.74096944756E+02  0.98313221158E+02  0.00000000000E+00 0. -1.
<mgrwt>
<rscale>  0 0.13269507E+03</rscale>
<asrwt>0</asrwt>
<pdfrwt beam="1">  1        2 0.45537729E-01 0.14054674E+03</pdfrwt>
<pdfrwt beam="2">  1       -2 0.90491189E-02 0.14054674E+03</pdfrwt>
<totfact> 0.82187041E+03</totfact>
</mgrwt>
</event>
<event>
 8    1  0.1646661E-005  0.1415673E+03  0.7546771E-02  0.1222615E+00
          3   -1    0    0  501    0  0.00000000000E+00  0.00000000000E+00  0.38809278287E+03  0.38809278287E+03  0.00000000000E+00 0. -1.
         -3   -1    0    0    0  501 -0.00000000000E+00 -0.00000000000E+00 -0.41775857097E+02  0.41775857097E+02  0.00000000000E+00 0.  1.
         23    2    1    2    0    0  0.21846826968E+02  0.62763125748E+02  0.16858578906E+03  0.22014191125E+03  0.12499919605E+03 0.  0.
         23    2    1    2    0    0 -0.21846826968E+02 -0.62763125748E+02  0.17773113671E+03  0.20972672871E+03  0.89333364306E+02 0.  0.
          5    1    3    3  502    0  0.55879531975E+02  0.31990752699E+02  0.24833319554E+02  0.69171627942E+02  0.47000000000E+01 0.  1.
         -5    1    3    3    0  502 -0.34032705007E+02  0.30772373049E+02  0.14375246951E+03  0.15097028331E+03  0.47000000000E+01 0.  1.
        -11    1    4    4    0    0  0.11875547626E+02 -0.19134906867E+02 -0.11396547510E+01  0.22549326047E+02  0.00000000000E+00 0.  1.
         11    1    4    4    0    0 -0.33722374594E+02 -0.43628218881E+02  0.17887079146E+03  0.18717740266E+03  0.00000000000E+00 0. -1.
<mgrwt>
<rscale>  0 0.13331729E+03</rscale>
<asrwt>0</asrwt>
<pdfrwt beam="1">  1        3 0.59706579E-01 0.14156727E+03</pdfrwt>
<pdfrwt beam="2">  1       -3 0.64270552E-02 0.14156727E+03</pdfrwt>
<totfact> 0.98452511E+02</totfact>
</mgrwt>
</event>
<event>
 8    1  0.1646661E-005  0.1365845E+03  0.7546771E-02  0.1231028E+00
         -1   -1    0    0    0  501 -0.00000000000E+00  0.00000000000E+00  0.26249315820E+03  0.26249315820E+03  0.00000000000E+00 0.  1.
          1   -1    0    0  501    0  0.00000000000E+00 -0.00000000000E+00 -0.92505541493E+02  0.92505541493E+02  0.00000000000E+00 0. -1.
         23    2    1    2    0    0 -0.26522439987E+02 -0.48236367778E+02  0.20397474098E+03  0.24548119188E+03  0.12500053444E+03 0.  0.
         23    2    1    2    0    0  0.26522439987E+02  0.48236367778E+02 -0.33987124275E+02  0.10951750781E+03  0.88367261478E+02 0.  0.
          5    1    3    3  502    0 -0.74598193732E+02 -0.11517742256E+02  0.12093410343E+03  0.14263483539E+03  0.47000000000E+01 0. -1.
         -5    1    3    3    0  502  0.48075753745E+02 -0.36718625523E+02  0.83040637548E+02  0.10284635649E+03  0.47000000000E+01 0. -1.
        -11    1    4    4    0    0  0.37644560097E+02 -0.44863917474E+01  0.10834998059E+02  0.39428895480E+02  0.00000000000E+00 0.  1.
         11    1    4    4    0    0 -0.11122120110E+02  0.52722759526E+02 -0.44822122334E+02  0.70088612330E+02  0.00000000000E+00 0. -1.
<mgrwt>
<rscale>  0 0.12762168E+03</rscale>
<asrwt>0</asrwt>
<pdfrwt beam="2">  1        1 0.14231622E-01 0.13658448E+03</pdfrwt>
<pdfrwt beam="1">  1       -1 0.40383563E-01 0.13658448E+03</pdfrwt>
<totfact> 0.23527544E+03</totfact>
</mgrwt>
</event>
<event>
 8    1  0.1646661E-005  0.1430355E+03  0.7546771E-02  0.1222365E+00
          2   -1    0    0  501    0  0.00000000000E+00  0.00000000000E+00  0.70652616545E+02  0.70652616545E+02  0.00000000000E+00 0. -1.
         -2   -1    0    0    0  501 -0.00000000000E+00 -0.00000000000E+00 -0.26207594134E+03  0.26207594134E+03  0.00000000000E+00 0.  1.
         23    2    1    2    0    0 -0.69302248737E+02 -0.56039390451E+01 -0.16991519455E+03  0.22210432414E+03  0.12499980660E+03 0.  0.
         23    2    1    2    0    0  0.69302248737E+02  0.56039390451E+01 -0.21508130242E+02  0.11062423374E+03  0.83312157647E+02 0.  0.
          5    1    3    3  502    0 -0.61002077216E+02  0.76232733418E+01 -0.18794124997E+03  0.19779628702E+03  0.47000000000E+01 0. -1.
         -5    1    3    3    0  502 -0.83001715206E+01 -0.13227212387E+02  0.18026055414E+02  0.24308037119E+02  0.47000000000E+01 0. -1.
        -11    1    4    4    0    0  0.40837595632E+02  0.38993832071E+02 -0.32824558030E+02  0.65312171656E+02  0.00000000000E+00 0.  1.
         11    1    4    4    0    0  0.28464653104E+02 -0.33389893026E+02  0.11316427789E+02  0.45312062086E+02  0.00000000000E+00 0. -1.
<mgrwt>
<rscale>  0 0.13349149E+03</rscale>
<asrwt>0</asrwt>
<pdfrwt beam="1">  1        2 0.10869633E-01 0.14303551E+03</pdfrwt>
<pdfrwt beam="2">  1       -2 0.40319376E-01 0.14303551E+03</pdfrwt>
<totfact> 0.32587506E+03</totfact>
</mgrwt>
</event>
<event>
 8    1  0.1646661E-005  0.1375589E+03  0.7546771E-02  0.1228895E+00
         -2   -1    0    0    0  501 -0.00000000000E+00  0.00000000000E+00  0.19410333344E+03  0.19410333344E+03  0.00000000000E+00 0.  1.
          2   -1    0    0  501    0  0.00000000000E+00 -0.00000000000E+00 -0.91876794602E+02  0.91876794602E+02  0.00000000000E+00 0. -1.
         23    2    1    2    0    0  0.33393021220E+02 -0.46647118640E+02  0.11422879248E+03  0.17880344883E+03  0.12502563233E+03 0.  0.
         23    2    1    2    0    0 -0.33393021220E+02  0.46647118640E+02 -0.12002253643E+02  0.10717667921E+03  0.89731482385E+02 0.  0.
          5    1    3    3  502    0  0.64410938228E+01 -0.53365874685E+02 -0.69400823936E+01  0.54402748223E+02  0.47000000000E+01 0.  1.
         -5    1    3    3    0  502  0.26951927397E+02  0.67187560449E+01  0.12116887488E+03  0.12440070061E+03  0.47000000000E+01 0.  1.
        -11    1    4    4    0    0 -0.38061995893E+01  0.43829136350E+02 -0.44886887064E+02  0.62851515326E+02  0.00000000000E+00 0. -1.
         11    1    4    4    0    0 -0.29586821631E+02  0.28179822908E+01  0.32884633421E+02  0.44325163887E+02  0.00000000000E+00 0.  1.
<mgrwt>
<rscale>  0 0.12903471E+03</rscale>
<asrwt>0</asrwt>
<pdfrwt beam="2">  1        2 0.14134892E-01 0.13755892E+03</pdfrwt>
<pdfrwt beam="1">  1       -2 0.29862051E-01 0.13755892E+03</pdfrwt>
<totfact> 0.41300325E+03</totfact>
</mgrwt>
</event>
<event>
 8    1  0.1646661E-005  0.1454398E+03  0.7546771E-02  0.1224498E+00
         -4   -1    0    0    0  501 -0.00000000000E+00  0.00000000000E+00  0.69409007240E+03  0.69409007240E+03  0.00000000000E+00 0.  1.
          4   -1    0    0  501    0  0.00000000000E+00 -0.00000000000E+00 -0.21888943672E+02  0.21888943672E+02  0.00000000000E+00 0. -1.
         23    2    1    2    0    0  0.74304698230E+02  0.24479357704E+01  0.44763668085E+03  0.47067116110E+03  0.12500225310E+03 0.  0.
         23    2    1    2    0    0 -0.74304698230E+02 -0.24479357704E+01  0.22456444787E+03  0.24530785497E+03  0.64958231901E+02 0.  0.
          5    1    3    3  502    0  0.31477654712E+02 -0.17774288947E+02  0.40540845169E+03  0.40704406493E+03  0.47000000000E+01 0.  1.
         -5    1    3    3    0  502  0.42827043518E+02  0.20222224717E+02  0.42228229162E+02  0.63627096171E+02  0.47000000000E+01 0.  1.
        -11    1    4    4    0    0 -0.24579797915E+02  0.55719570865E+01  0.14056725065E+02  0.28858355651E+02  0.00000000000E+00 0. -1.
         11    1    4    4    0    0 -0.49724900315E+02 -0.80198928568E+01  0.21050772281E+03  0.21644949932E+03  0.00000000000E+00 0.  1.
<mgrwt>
<rscale>  0 0.13201401E+03</rscale>
<asrwt>0</asrwt>
<pdfrwt beam="2">  1        4 0.33675303E-02 0.14543983E+03</pdfrwt>
<pdfrwt beam="1">  1       -4 0.10678307E+00 0.14543983E+03</pdfrwt>
<totfact> 0.55497521E+02</totfact>
</mgrwt>
</event>
<event>
 8    1  0.1646661E-005  0.1199379E+03  0.7546771E-02  0.1251933E+00
          1   -1    0    0  501    0  0.00000000000E+00  0.00000000000E+00  0.14138985908E+03  0.14138985908E+03  0.00000000000E+00 0. -1.
         -1   -1    0    0    0  501 -0.00000000000E+00 -0.00000000000E+00 -0.25199735858E+03  0.25199735858E+03  0.00000000000E+00 0.  1.
         23    2    1    2    0    0 -0.35662738475E+02 -0.23691025460E+02 -0.21636280445E+03  0.24738223649E+03  0.11203576293E+03 0.  0.
         23    2    1    2    0    0  0.35662738475E+02  0.23691025460E+02  0.10575530495E+03  0.14600498118E+03  0.91105292930E+02 0.  0.
          5    1    3    3  502    0 -0.39100339046E+02  0.39165853032E+02 -0.83495625880E+02  0.10028165385E+03  0.47000000000E+01 0. -1.
         -5    1    3    3    0  502  0.34376005707E+01 -0.62856878492E+02 -0.13286717857E+03  0.14710058264E+03  0.47000000000E+01 0.  1.
        -11    1    4    4    0    0  0.51011887634E+02 -0.18749950914E+02  0.46544510596E+02  0.71555326887E+02  0.00000000000E+00 0. -1.
         11    1    4    4    0    0 -0.15349149159E+02  0.42440976374E+02  0.59210794358E+02  0.74449654290E+02  0.00000000000E+00 0.  1.
<mgrwt>
<rscale>  0 0.11479848E+03</rscale>
<asrwt>0</asrwt>
<pdfrwt beam="1">  1        1 0.21752286E-01 0.11993793E+03</pdfrwt>
<pdfrwt beam="2">  1       -1 0.38768825E-01 0.11993793E+03</pdfrwt>
<totfact> 0.14608827E+03</totfact>
</mgrwt>
</event>
<event>
 8    1  0.1646661E-005  0.1424742E+03  0.7546771E-02  0.1215412E+00
          2   -1    0    0  501    0  0.00000000000E+00  0.00000000000E+00  0.35480017899E+02  0.35480017899E+02  0.00000000000E+00 0. -1.
         -2   -1    0    0    0  501 -0.00000000000E+00 -0.00000000000E+00 -0.51765039767E+03  0.51765039767E+03  0.00000000000E+00 0.  1.
         23    2    1    2    0    0  0.36185074760E+02 -0.80093408880E+02 -0.28345990788E+03  0.31725134663E+03  0.11213645163E+03 0.  0.
         23    2    1    2    0    0 -0.36185074760E+02  0.80093408880E+02 -0.19871047189E+03  0.23587906894E+03  0.91808331550E+02 0.  0.
          5    1    3    3  502    0  0.71995895143E+02 -0.56564408051E+02 -0.23576897799E+03  0.25296648426E+03  0.47000000000E+01 0. -1.
         -5    1    3    3    0  502 -0.35810820384E+02 -0.23529000829E+02 -0.47690929886E+02  0.64284862370E+02  0.47000000000E+01 0.  1.
        -11    1    4    4    0    0 -0.27767514835E+02 -0.14865893289E+02 -0.42954896974E+02  0.53264930653E+02  0.00000000000E+00 0.  1.
         11    1    4    4    0    0 -0.84175599249E+01  0.94959302170E+02 -0.15575557492E+03  0.18261413828E+03  0.00000000000E+00 0. -1.
<mgrwt>
<rscale>  0 0.13846312E+03</rscale>
<asrwt>0</asrwt>
<pdfrwt beam="1">  1        2 0.54584651E-02 0.14247420E+03</pdfrwt>
<pdfrwt beam="2">  1       -2 0.79638512E-01 0.14247420E+03</pdfrwt>
<totfact> 0.19428697E+03</totfact>
</mgrwt>
</event>
<event>
 8    1  0.1646661E-005  0.1324827E+03  0.7546771E-02  0.1241624E+00
         -2   -1    0    0    0  501 -0.00000000000E+00  0.00000000000E+00  0.60162269607E+02  0.60162269607E+02  0.00000000000E+00 0.  1.
          2   -1    0    0  501    0  0.00000000000E+00 -0.00000000000E+00 -0.21270054774E+03  0.21270054774E+03  0.00000000000E+00 0. -1.
         23    2    1    2    0    0 -0.28514930753E+02  0.33371373402E+02 -0.72540057749E+02  0.15104212909E+03  0.12499965978E+03 0.  0.
         23    2    1    2    0    0  0.28514930753E+02 -0.33371373402E+02 -0.79998220389E+02  0.12182068826E+03  0.80708208902E+02 0.  0.
          5    1    3    3  502    0  0.39204810409E+01  0.19828589173E+02 -0.10252397240E+03  0.10460304985E+03  0.47000000000E+01 0. -1.
         -5    1    3    3    0  502 -0.32435411793E+02  0.13542784228E+02  0.29983914656E+02  0.46439079243E+02  0.47000000000E+01 0. -1.
        -11    1    4    4    0    0  0.10379341197E+02  0.95407912044E+01  0.12120317316E+02  0.18591920620E+02  0.00000000000E+00 0.  1.
         11    1    4    4    0    0  0.18135589555E+02 -0.42912164606E+02 -0.92118537704E+02  0.10322876764E+03  0.00000000000E+00 0. -1.
<mgrwt>
<rscale>  0 0.12089708E+03</rscale>
<asrwt>0</asrwt>
<pdfrwt beam="2">  1        2 0.32723161E-01 0.13248270E+03</pdfrwt>
<pdfrwt beam="1">  1       -2 0.92557338E-02 0.13248270E+03</pdfrwt>
<totfact> 0.11235746E+04</totfact>
</mgrwt>
</event>
<event>
 7    1  0.1646661E-005  0.1439454E+03  0.7546771E-02  0.1223041E+00
          1   -1    0    0  501    0  0.00000000000E+00  0.00000000000E+00  0.24285003108E+03  0.24285003108E+03  0.00000000000E+00 0. -1.
         -1   -1    0    0    0  501 -0.00000000000E+00 -0.00000000000E+00 -0.79302404289E+02  0.79302404289E+02  0.00000000000E+00 0.  1.
         23    2    1    2    0    0 -0.51263065256E+02 -0.19450046398E+02  0.14202110669E+03  0.17660628690E+03  0.89518599542E+02 0.  0.
          5    1    1    2  502    0 -0.44523538136E+02  0.11456613908E+02  0.16879356680E+02  0.49199615165E+02  0.47000000000E+01 0. -1.
         -5    1    1    2    0  502  0.95786603392E+02  0.79934324891E+01  0.46471634278E+01  0.96346533307E+02  0.47000000000E+01 0.  1.
        -11    1    3    3    0    0 -0.28604567083E+02  0.30284023017E+02  0.97806261766E+02  0.10630808130E+03  0.00000000000E+00 0.  1.
         11    1    3    3    0    0 -0.22658498172E+02 -0.49734069414E+02  0.44214844921E+02  0.70298205605E+02  0.00000000000E+00 0. -1.
<mgrwt>
<rscale>  0 0.13302096E+03</rscale>
<asrwt>0</asrwt>
<pdfrwt beam="1">  1        1 0.37361543E-01 0.14394544E+03</pdfrwt>
<pdfrwt beam="2">  1       -1 0.12200370E-01 0.14394544E+03</pdfrwt>
<totfact> 0.49148452E+03</totfact>
</mgrwt>
</event>
<event>
 7    1  0.1646661E-005  0.5071235E+03  0.7546771E-02  0.1011936E+00
         -2   -1    0    0    0  501 -0.00000000000E+00  0.00000000000E+00  0.16617333461E+03  0.16617333461E+03  0.00000000000E+00 0.  1.
          2   -1    0    0  501    0  0.00000000000E+00 -0.00000000000E+00 -0.38690662933E+03  0.38690662933E+03  0.00000000000E+00 0. -1.
         23    2    1    2    0    0  0.14173557648E+03  0.73618089155E+02 -0.87208986560E+02  0.20268935452E+03  0.89269089889E+02 0.  0.
          5    1    1    2  502    0 -0.21507149072E+03  0.65170857662E+01 -0.89267507755E+02  0.23299999242E+03  0.47000000000E+01 0. -1.
         -5    1    1    2    0  502  0.73335914240E+02 -0.80135174922E+02 -0.44256800409E+02  0.11739061700E+03  0.47000000000E+01 0.  1.
        -11    1    3    3    0    0  0.11997563180E+03  0.27071352284E+02 -0.31620821703E+02  0.12699167967E+03  0.00000000000E+00 0.  1.
         11    1    3    3    0    0  0.21759944677E+02  0.46546736871E+02 -0.55588164858E+02  0.75697674851E+02  0.00000000000E+00 0. -1.
<mgrwt>
<rscale>  0 0.50712351E+03</rscale>
<asrwt>0</asrwt>
<pdfrwt beam="2">  1        2 0.59524096E-01 0.50712351E+03</pdfrwt>
<pdfrwt beam="1">  1       -2 0.25565129E-01 0.50712351E+03</pdfrwt>
<totfact> 0.11371383E+03</totfact>
</mgrwt>
</event>
<event>
 8    1  0.1646661E-005  0.1917294E+03  0.7546771E-02  0.1161692E+00
          2   -1    0    0  501    0  0.00000000000E+00  0.00000000000E+00  0.14799744626E+03  0.14799744626E+03  0.00000000000E+00 0. -1.
         -2   -1    0    0    0  501 -0.00000000000E+00 -0.00000000000E+00 -0.22331857710E+03  0.22331857710E+03  0.00000000000E+00 0.  1.
         23    2    1    2    0    0 -0.31301369459E+02 -0.14197350977E+03 -0.31543207586E+02  0.19430680568E+03  0.12499563025E+03 0.  0.
         23    2    1    2    0    0  0.31301369459E+02  0.14197350977E+03 -0.43777923253E+02  0.17700921767E+03  0.90991776387E+02 0.  0.
          5    1    3    3  502    0  0.41163887145E+02 -0.63538308519E+02 -0.42346118241E+02  0.86872699881E+02  0.47000000000E+01 0. -1.
         -5    1    3    3    0  502 -0.72465256604E+02 -0.78435201252E+02  0.10802910655E+02  0.10743410580E+03  0.47000000000E+01 0. -1.
        -11    1    4    4    0    0 -0.29294486666E+02  0.77913307115E+02 -0.24164374829E+02  0.86675067842E+02  0.00000000000E+00 0. -1.
         11    1    4    4    0    0  0.60595856124E+02  0.64060202657E+02 -0.19613548424E+02  0.90334149831E+02  0.00000000000E+00 0.  1.
<mgrwt>
<rscale>  0 0.18646144E+03</rscale>
<asrwt>0</asrwt>
<pdfrwt beam="1">  1        2 0.22768838E-01 0.19172939E+03</pdfrwt>
<pdfrwt beam="2">  1       -2 0.34356704E-01 0.19172939E+03</pdfrwt>
<totfact> 0.18766753E+03</totfact>
</mgrwt>
</event>
<event>
 8    1  0.1646661E-005  0.2077782E+03  0.7546771E-02  0.1147224E+00
          1   -1    0    0  501    0  0.00000000000E+00  0.00000000000E+00  0.18121490425E+04  0.18121490425E+04  0.00000000000E+00 0. -1.
         -1   -1    0    0    0  501 -0.00000000000E+00 -0.00000000000E+00 -0.21992369071E+02  0.21992369071E+02  0.00000000000E+00 0.  1.
         23    2    1    2    0    0  0.15423952896E+03 -0.61239038539E+02  0.10307781593E+04  0.10515110073E+04  0.12502692795E+03 0.  0.
         23    2    1    2    0    0 -0.15423952896E+03  0.61239038539E+02  0.75937851415E+03  0.78263040426E+03  0.91184262830E+02 0.  0.
          5    1    3    3  502    0  0.12251982461E+03 -0.61683050817E+02  0.46520975713E+03  0.48503413726E+03  0.47000000000E+01 0.  1.
         -5    1    3    3    0  502  0.31719704351E+02  0.44401227791E+00  0.56556840216E+03  0.56647687006E+03  0.47000000000E+01 0.  1.
        -11    1    4    4    0    0 -0.10103158818E+03  0.25124307210E+02  0.62554147817E+03  0.63414568794E+03  0.00000000000E+00 0. -1.
         11    1    4    4    0    0 -0.53207940779E+02  0.36114731329E+02  0.13383703598E+03  0.14848471632E+03  0.00000000000E+00 0.  1.
<mgrwt>
<rscale>  0 0.20301033E+03</rscale>
<asrwt>0</asrwt>
<pdfrwt beam="1">  1        1 0.27879204E+00 0.20777821E+03</pdfrwt>
<pdfrwt beam="2">  1       -1 0.33834428E-02 0.20777821E+03</pdfrwt>
<totfact> 0.14146265E+03</totfact>
</mgrwt>
</event>
<event>
 8    1  0.1646661E-005  0.1765303E+03  0.7546771E-02  0.1176837E+00
          4   -1    0    0  501    0  0.00000000000E+00  0.00000000000E+00  0.77093451552E+03  0.77093451552E+03  0.00000000000E+00 0. -1.
         -4   -1    0    0    0  501 -0.00000000000E+00 -0.00000000000E+00 -0.39568395572E+02  0.39568395572E+02  0.00000000000E+00 0.  1.
         23    2    1    2    0    0 -0.11646320206E+03 -0.44435330911E+02  0.26051309024E+03  0.31469036070E+03  0.12499910744E+03 0.  0.
         23    2    1    2    0    0  0.11646320206E+03  0.44435330911E+02  0.47085302970E+03  0.49581255039E+03  0.92678657083E+02 0.  0.
          5    1    3    3  502    0 -0.97169978077E+02 -0.82002776296E+02  0.22832550022E+03  0.26138302165E+03  0.47000000000E+01 0.  1.
         -5    1    3    3    0  502 -0.19293223980E+02  0.37567445385E+02  0.32187590027E+02  0.53307339044E+02  0.47000000000E+01 0.  1.
        -11    1    4    4    0    0  0.85422213062E+02  0.66318434037E+02  0.41048392782E+03  0.42449045239E+03  0.00000000000E+00 0. -1.
         11    1    4    4    0    0  0.31040988996E+02 -0.21883103126E+02  0.60369101885E+02  0.71322097997E+02  0.00000000000E+00 0.  1.
<mgrwt>
<rscale>  0 0.17097340E+03</rscale>
<asrwt>0</asrwt>
<pdfrwt beam="1">  1        4 0.11860530E+00 0.17653032E+03</pdfrwt>
<pdfrwt beam="2">  1       -4 0.60874460E-02 0.17653032E+03</pdfrwt>
<totfact> 0.17280654E+02</totfact>
</mgrwt>
</event>
<event>
 8    1  0.1646661E-005  0.1615965E+03  0.7546771E-02  0.1194080E+00
          3   -1    0    0  501    0  0.00000000000E+00  0.00000000000E+00  0.20971635024E+03  0.20971635024E+03  0.00000000000E+00 0. -1.
         -3   -1    0    0    0  501 -0.00000000000E+00 -0.00000000000E+00 -0.23161179983E+03  0.23161179983E+03  0.00000000000E+00 0.  1.
         23    2    1    2    0    0  0.26394515910E+02 -0.98947005298E+02 -0.17300407263E+03  0.23673577576E+03  0.12500495209E+03 0.  0.
         23    2    1    2    0    0 -0.26394515910E+02  0.98947005298E+02  0.15110862304E+03  0.20459237432E+03  0.92396121915E+02 0.  0.
          5    1    3    3  502    0  0.96197496802E+01 -0.15335436342E+02  0.18958286871E+02  0.26631219138E+02  0.47000000000E+01 0. -1.
         -5    1    3    3    0  502  0.16774766230E+02 -0.83611568956E+02 -0.19196235950E+03  0.21010455662E+03  0.47000000000E+01 0. -1.
        -11    1    4    4    0    0  0.27593670846E+02  0.69965856542E+02  0.68426618126E+02  0.10168005616E+03  0.00000000000E+00 0. -1.
         11    1    4    4    0    0 -0.53988186756E+02  0.28981148756E+02  0.82682004912E+02  0.10291231816E+03  0.00000000000E+00 0.  1.
<mgrwt>
<rscale>  0 0.15532353E+03</rscale>
<asrwt>0</asrwt>
<pdfrwt beam="1">  1        3 0.32264054E-01 0.16159647E+03</pdfrwt>
<pdfrwt beam="2">  1       -3 0.35632584E-01 0.16159647E+03</pdfrwt>
<totfact> 0.17359680E+02</totfact>
</mgrwt>
</event>
<event>
 8    1  0.1646661E-005  0.1440837E+03  0.7546771E-02  0.1218064E+00
          2   -1    0    0  501    0  0.00000000000E+00  0.00000000000E+00  0.22199443821E+03  0.22199443821E+03  0.00000000000E+00 0. -1.
         -2   -1    0    0    0  501 -0.00000000000E+00 -0.00000000000E+00 -0.15144705963E+03  0.15144705963E+03  0.00000000000E+00 0.  1.
         23    2    1    2    0    0  0.51193955024E+02  0.50131534012E+02 -0.93978168109E+02  0.17202328932E+03  0.12500449694E+03 0.  0.
         23    2    1    2    0    0 -0.51193955024E+02 -0.50131534012E+02  0.16452554669E+03  0.20141820851E+03  0.91469379969E+02 0.  0.
          5    1    3    3  502    0 -0.37058478171E+02  0.46127611428E+01 -0.51809378420E+02  0.64038348371E+02  0.47000000000E+01 0.  1.
         -5    1    3    3    0  502  0.88252433196E+02  0.45518772869E+02 -0.42168789689E+02  0.10798494095E+03  0.47000000000E+01 0.  1.
        -11    1    4    4    0    0  0.99748711962E+01 -0.30087932649E+02  0.87750094648E+01  0.32890462714E+02  0.00000000000E+00 0.  1.
         11    1    4    4    0    0 -0.61168826220E+02 -0.20043601363E+02  0.15575053722E+03  0.16852774579E+03  0.00000000000E+00 0. -1.
<mgrwt>
<rscale>  0 0.13653860E+03</rscale>
<asrwt>0</asrwt>
<pdfrwt beam="1">  1        2 0.34152991E-01 0.14408371E+03</pdfrwt>
<pdfrwt beam="2">  1       -2 0.23299548E-01 0.14408371E+03</pdfrwt>
<totfact> 0.23825661E+03</totfact>
</mgrwt>
</event>
<event>
 8    1  0.1646661E-005  0.2661987E+03  0.7546771E-02  0.1105547E+00
          2   -1    0    0  501    0  0.00000000000E+00  0.00000000000E+00  0.16885648900E+03  0.16885648900E+03  0.00000000000E+00 0. -1.
         -2   -1    0    0    0  501 -0.00000000000E+00 -0.00000000000E+00 -0.41720159511E+03  0.41720159511E+03  0.00000000000E+00 0.  1.
         23    2    1    2    0    0 -0.20392307099E+03 -0.11683669789E+03 -0.18992088281E+03  0.32700412535E+03  0.12500529353E+03 0.  0.
         23    2    1    2    0    0  0.20392307099E+03  0.11683669789E+03 -0.58424223298E+02  0.25905395877E+03  0.91978969484E+02 0.  0.
          5    1    3    3  502    0 -0.12325884376E+03 -0.69351491608E+01 -0.12565236536E+03  0.17621420425E+03  0.47000000000E+01 0. -1.
         -5    1    3    3    0  502 -0.80664227231E+02 -0.10990154873E+03 -0.64268517447E+02  0.15078992109E+03  0.47000000000E+01 0. -1.
        -11    1    4    4    0    0  0.10941393356E+03  0.55360652441E+02  0.16437392505E+02  0.12371903074E+03  0.00000000000E+00 0. -1.
         11    1    4    4    0    0  0.94509137437E+02  0.61476045454E+02 -0.74861615803E+02  0.13533492803E+03  0.00000000000E+00 0.  1.
<mgrwt>
<rscale>  0 0.26267462E+03</rscale>
<asrwt>0</asrwt>
<pdfrwt beam="1">  1        2 0.25977922E-01 0.26619872E+03</pdfrwt>
<pdfrwt beam="2">  1       -2 0.64184860E-01 0.26619872E+03</pdfrwt>
<totfact> 0.47425962E+02</totfact>
</mgrwt>
</event>
<event>
 8    1  0.1646661E-005  0.1331239E+03  0.7546771E-02  0.1235239E+00
         -1   -1    0    0    0  501 -0.00000000000E+00  0.00000000000E+00  0.13654277428E+03  0.13654277428E+03  0.00000000000E+00 0.  1.
          1   -1    0    0  501    0  0.00000000000E+00 -0.00000000000E+00 -0.10270640345E+03  0.10270640345E+03  0.00000000000E+00 0. -1.
         23    2    1    2    0    0 -0.42649364562E+02 -0.16711924280E+02  0.27471346966E+02  0.13592882661E+03  0.12499485705E+03 0.  0.
         23    2    1    2    0    0  0.42649364562E+02  0.16711924280E+02  0.63650238656E+01  0.10332035112E+03  0.92392232987E+02 0.  0.
          5    1    3    3  502    0  0.56804116089E+01  0.49841474352E+02  0.15260960581E+02  0.52644340242E+02  0.47000000000E+01 0.  1.
         -5    1    3    3    0  502 -0.48329776171E+02 -0.66553398632E+02  0.12210386385E+02  0.83284486369E+02  0.47000000000E+01 0.  1.
        -11    1    4    4    0    0  0.48580428610E+02 -0.24907260822E+02  0.21450146611E+02  0.58656103478E+02  0.00000000000E+00 0. -1.
         11    1    4    4    0    0 -0.59310640480E+01  0.41619185102E+02 -0.15085122745E+02  0.44664247643E+02  0.00000000000E+00 0.  1.
<mgrwt>
<rscale>  0 0.12489126E+03</rscale>
<asrwt>0</asrwt>
<pdfrwt beam="2">  1        1 0.15800985E-01 0.13312389E+03</pdfrwt>
<pdfrwt beam="1">  1       -1 0.21006581E-01 0.13312389E+03</pdfrwt>
<totfact> 0.61383570E+03</totfact>
</mgrwt>
</event>
<event>
 8    1  0.1646661E-005  0.1272953E+03  0.7546771E-02  0.1241912E+00
          2   -1    0    0  501    0  0.00000000000E+00  0.00000000000E+00  0.13339751614E+03  0.13339751614E+03  0.00000000000E+00 0. -1.
         -2   -1    0    0    0  501 -0.00000000000E+00 -0.00000000000E+00 -0.11584271902E+03  0.11584271902E+03  0.00000000000E+00 0.  1.
         23    2    1    2    0    0 -0.17833759572E+02 -0.17707957375E+02 -0.37201795131E+02  0.13262003061E+03  0.12478976009E+03 0.  0.
         23    2    1    2    0    0  0.17833759572E+02  0.17707957375E+02  0.54756592250E+02  0.11662020454E+03  0.99851755008E+02 0.  0.
          5    1    3    3  502    0 -0.51771045950E+02 -0.29936870217E+01 -0.67024212675E+02  0.84873661671E+02  0.47000000000E+01 0. -1.
         -5    1    3    3    0  502  0.33937286378E+02 -0.14714270354E+02  0.29822417544E+02  0.47746368940E+02  0.47000000000E+01 0. -1.
        -11    1    4    4    0    0  0.19695220407E+02  0.75523227983E+01  0.83476741968E+02  0.86100555957E+02  0.00000000000E+00 0. -1.
         11    1    4    4    0    0 -0.18614608349E+01  0.10155634577E+02 -0.28720149718E+02  0.30519648587E+02  0.00000000000E+00 0.  1.
<mgrwt>
<rscale>  0 0.12072098E+03</rscale>
<asrwt>0</asrwt>
<pdfrwt beam="1">  1        2 0.20522695E-01 0.12729532E+03</pdfrwt>
<pdfrwt beam="2">  1       -2 0.17821957E-01 0.12729532E+03</pdfrwt>
<totfact> 0.65195353E+03</totfact>
</mgrwt>
</event>
<event>
 8    1  0.1646661E-005  0.1717720E+03  0.7546771E-02  0.1182359E+00
          1   -1    0    0  501    0  0.00000000000E+00  0.00000000000E+00  0.72138510081E+02  0.72138510081E+02  0.00000000000E+00 0. -1.
         -1   -1    0    0    0  501 -0.00000000000E+00 -0.00000000000E+00 -0.41376182832E+03  0.41376182832E+03  0.00000000000E+00 0.  1.
         23    2    1    2    0    0  0.10521718976E+03  0.53018957876E+02 -0.27158420078E+03  0.32134653118E+03  0.12499579221E+03 0.  0.
         23    2    1    2    0    0 -0.10521718976E+03 -0.53018957876E+02 -0.70039117455E+02  0.16455380722E+03  0.91053888342E+02 0.  0.
          5    1    3    3  502    0  0.10791047506E+03  0.85449743305E+02 -0.20330980667E+03  0.24556729576E+03  0.47000000000E+01 0.  1.
         -5    1    3    3    0  502 -0.26932853035E+01 -0.32430785428E+02 -0.68274394105E+02  0.75779235412E+02  0.47000000000E+01 0.  1.
        -11    1    4    4    0    0 -0.68361664175E+02 -0.76826420360E+02 -0.61592845900E+02  0.11987199281E+03  0.00000000000E+00 0. -1.
         11    1    4    4    0    0 -0.36855525582E+02  0.23807462484E+02 -0.84462715550E+01  0.44681814411E+02  0.00000000000E+00 0.  1.
<mgrwt>
<rscale>  0 0.16574523E+03</rscale>
<asrwt>0</asrwt>
<pdfrwt beam="1">  1        1 0.11098232E-01 0.17177199E+03</pdfrwt>
<pdfrwt beam="2">  1       -1 0.63655666E-01 0.17177199E+03</pdfrwt>
<totfact> 0.14239131E+03</totfact>
</mgrwt>
</event>
<event>
 8    1  0.1646661E-005  0.1353619E+03  0.7546771E-02  0.1231652E+00
          4   -1    0    0  501    0  0.00000000000E+00  0.00000000000E+00  0.35737256622E+02  0.35737256622E+02  0.00000000000E+00 0.  1.
         -4   -1    0    0    0  501 -0.00000000000E+00 -0.00000000000E+00 -0.42513348393E+03  0.42513348393E+03  0.00000000000E+00 0. -1.
         23    2    1    2    0    0  0.24609120518E+01  0.51890571239E+02 -0.26601835453E+03  0.29847716791E+03  0.12499666934E+03 0.  0.
         23    2    1    2    0    0 -0.24609120518E+01 -0.51890571239E+02 -0.12337787278E+03  0.16239357264E+03  0.91928697763E+02 0.  0.
          5    1    3    3  502    0  0.26339999703E+02  0.52511480928E+02 -0.40175867561E+02  0.71326303338E+02  0.47000000000E+01 0. -1.
         -5    1    3    3    0  502 -0.23879087651E+02 -0.62090968951E+00 -0.22584248697E+03  0.22715086457E+03  0.47000000000E+01 0. -1.
        -11    1    4    4    0    0  0.35641842225E+02 -0.49635503744E+02 -0.10128718500E+03  0.11829251030E+03  0.00000000000E+00 0. -1.
         11    1    4    4    0    0 -0.38102754277E+02 -0.22550674950E+01 -0.22090687784E+02  0.44101062342E+02  0.00000000000E+00 0.  1.
<mgrwt>
<rscale>  0 0.12721248E+03</rscale>
<asrwt>0</asrwt>
<pdfrwt beam="1">  1        4 0.54980395E-02 0.13536194E+03</pdfrwt>
<pdfrwt beam="2">  1       -4 0.65405151E-01 0.13536194E+03</pdfrwt>
<totfact> 0.74816917E+02</totfact>
</mgrwt>
</event>
<event>
 8    1  0.1646661E-005  0.1322094E+03  0.7546771E-02  0.1236627E+00
          1   -1    0    0  501    0  0.00000000000E+00  0.00000000000E+00  0.18387215496E+03  0.18387215496E+03  0.00000000000E+00 0. -1.
         -1   -1    0    0    0  501 -0.00000000000E+00 -0.00000000000E+00 -0.87054380380E+02  0.87054380380E+02  0.00000000000E+00 0.  1.
         23    2    1    2    0    0 -0.31793442224E+02 -0.29049890776E+02  0.32255898282E+01  0.13224875449E+03  0.12499843804E+03 0.  0.
         23    2    1    2    0    0  0.31793442224E+02  0.29049890776E+02  0.93592184756E+02  0.13867778086E+03  0.92829471253E+02 0.  0.
          5    1    3    3  502    0 -0.39946169707E+01  0.32576656652E+02 -0.39933319300E+02  0.51903328542E+02  0.47000000000E+01 0. -1.
         -5    1    3    3    0  502 -0.27798825253E+02 -0.61626547428E+02  0.43158909128E+02  0.80345425946E+02  0.47000000000E+01 0. -1.
        -11    1    4    4    0    0  0.18178998202E+02  0.43908486309E+02  0.49573930846E+01  0.47780821380E+02  0.00000000000E+00 0.  1.
         11    1    4    4    0    0  0.13614444022E+02 -0.14858595533E+02  0.88634791671E+02  0.90896959476E+02  0.00000000000E+00 0. -1.
<mgrwt>
<rscale>  0 0.12400827E+03</rscale>
<asrwt>0</asrwt>
<pdfrwt beam="1">  1        1 0.28288024E-01 0.13220941E+03</pdfrwt>
<pdfrwt beam="2">  1       -1 0.13392982E-01 0.13220941E+03</pdfrwt>
<totfact> 0.59772858E+03</totfact>
</mgrwt>
</event>
<event>
 8    1  0.1646661E-005  0.1600031E+03  0.7546771E-02  0.1198073E+00
         -2   -1    0    0    0  501 -0.00000000000E+00  0.00000000000E+00  0.74819927754E+02  0.74819927754E+02  0.00000000000E+00 0.  1.
          2   -1    0    0  501    0  0.00000000000E+00 -0.00000000000E+00 -0.28752384384E+03  0.28752384384E+03  0.00000000000E+00 0. -1.
         23    2    1    2    0    0 -0.23987697719E+02 -0.96957411696E+02 -0.90783103458E+02  0.18396351829E+03  0.12499941945E+03 0.  0.
         23    2    1    2    0    0  0.23987697719E+02  0.96957411696E+02 -0.12192081263E+03  0.17838025331E+03  0.83538499474E+02 0.  0.
          5    1    3    3  502    0 -0.49121186733E+02 -0.73185406654E+02 -0.11238847604E+03  0.14290645290E+03  0.47000000000E+01 0.  1.
         -5    1    3    3    0  502  0.25133489015E+02 -0.23772005042E+02  0.21605372583E+02  0.41057065387E+02  0.47000000000E+01 0.  1.
        -11    1    4    4    0    0 -0.71712518837E+01 -0.84951442977E+01 -0.39293956421E+02  0.40836372775E+02  0.00000000000E+00 0. -1.
         11    1    4    4    0    0  0.31158949602E+02  0.10545255599E+03 -0.82626856210E+02  0.13754388054E+03  0.00000000000E+00 0.  1.
<mgrwt>
<rscale>  0 0.15197007E+03</rscale>
<asrwt>0</asrwt>
<pdfrwt beam="2">  1        2 0.44234437E-01 0.16000314E+03</pdfrwt>
<pdfrwt beam="1">  1       -2 0.11510758E-01 0.16000314E+03</pdfrwt>
<totfact> 0.58467502E+03</totfact>
</mgrwt>
</event>
<event>
 8    1  0.1646661E-005  0.1669665E+03  0.7546771E-02  0.1187897E+00
         -1   -1    0    0    0  501 -0.00000000000E+00  0.00000000000E+00  0.23274540344E+03  0.23274540344E+03  0.00000000000E+00 0.  1.
          1   -1    0    0  501    0  0.00000000000E+00 -0.00000000000E+00 -0.12812901192E+03  0.12812901192E+03  0.00000000000E+00 0. -1.
         23    2    1    2    0    0  0.10591231346E+03 -0.32187090230E+02  0.13458992820E+03  0.21445802543E+03  0.12499747588E+03 0.  0.
         23    2    1    2    0    0 -0.10591231346E+03  0.32187090230E+02 -0.29973536676E+02  0.14641638994E+03  0.91027025774E+02 0.  0.
          5    1    3    3  502    0  0.41871184187E+01  0.13890992496E+02  0.94484342259E+02  0.95707223162E+02  0.47000000000E+01 0.  1.
         -5    1    3    3    0  502  0.10172519504E+03 -0.46078082726E+02  0.40105585940E+02  0.11875080226E+03  0.47000000000E+01 0.  1.
        -11    1    4    4    0    0 -0.31597238409E+02 -0.20471951028E+02 -0.39825061227E+02  0.54804395405E+02  0.00000000000E+00 0. -1.
         11    1    4    4    0    0 -0.74315075055E+02  0.52659041258E+02  0.98515245507E+01  0.91611994534E+02  0.00000000000E+00 0.  1.
<mgrwt>
<rscale>  0 0.16071087E+03</rscale>
<asrwt>0</asrwt>
<pdfrwt beam="2">  1        1 0.19712156E-01 0.16696645E+03</pdfrwt>
<pdfrwt beam="1">  1       -1 0.35806985E-01 0.16696645E+03</pdfrwt>
<totfact> 0.19214619E+03</totfact>
</mgrwt>
</event>
<event>
 8    1  0.1646661E-005  0.1618549E+03  0.7546771E-02  0.1195340E+00
          1   -1    0    0  501    0  0.00000000000E+00  0.00000000000E+00  0.22327603882E+02  0.22327603882E+02  0.00000000000E+00 0. -1.
         -1   -1    0    0    0  501 -0.00000000000E+00 -0.00000000000E+00 -0.97809617866E+03  0.97809617866E+03  0.00000000000E+00 0.  1.
         23    2    1    2    0    0  0.10125994128E+03  0.17830516674E+02 -0.50662696161E+03  0.53185326234E+03  0.12500204556E+03 0.  0.
         23    2    1    2    0    0 -0.10125994128E+03 -0.17830516674E+02 -0.44914161317E+03  0.46857052021E+03  0.85197656638E+02 0.  0.
          5    1    3    3  502    0  0.12922847187E+03  0.20246365269E+01 -0.41052908030E+03  0.43041876454E+03  0.47000000000E+01 0.  1.
         -5    1    3    3    0  502 -0.27968530595E+02  0.15805880147E+02 -0.96097881317E+02  0.10143449780E+03  0.47000000000E+01 0.  1.
        -11    1    4    4    0    0 -0.62183574781E+02 -0.27333436195E+02 -0.39675682069E+03  0.40252936349E+03  0.00000000000E+00 0.  1.
         11    1    4    4    0    0 -0.39076366494E+02  0.95029195211E+01 -0.52384792479E+02  0.66041156720E+02  0.00000000000E+00 0. -1.
<mgrwt>
<rscale>  0 0.15425483E+03</rscale>
<asrwt>0</asrwt>
<pdfrwt beam="1">  1        1 0.34350157E-02 0.16185492E+03</pdfrwt>
<pdfrwt beam="2">  1       -1 0.15047635E+00 0.16185492E+03</pdfrwt>
<totfact> 0.10418372E+03</totfact>
</mgrwt>
</event>
<event>
 7    1  0.1646661E-005  0.3239773E+03  0.7546771E-02  0.1073833E+00
          1   -1    0    0  501    0  0.00000000000E+00  0.00000000000E+00  0.36640843738E+03  0.36640843738E+03  0.00000000000E+00 0. -1.
         -1   -1    0    0    0  501 -0.00000000000E+00 -0.00000000000E+00 -0.71614942234E+02  0.71614942234E+02  0.00000000000E+00 0.  1.
         23    2    1    2    0    0 -0.13353530786E+02  0.32864973291E+02  0.15301426137E+03  0.18463618364E+03  0.97050156476E+02 0.  0.
          5    1    1    2  502    0 -0.61182591489E+02  0.21600174836E+02  0.14705550767E+03  0.16080201924E+03  0.47000000000E+01 0. -1.
         -5    1    1    2    0  502  0.74536122274E+02 -0.54465148127E+02 -0.52762739034E+01  0.92585176732E+02  0.47000000000E+01 0.  1.
        -11    1    3    3    0    0 -0.13508153050E+02  0.65822577582E+02  0.79640344458E+02  0.10420012660E+03  0.00000000000E+00 0. -1.
         11    1    3    3    0    0  0.15462226466E+00 -0.32957604291E+02  0.73373916914E+02  0.80436057039E+02  0.00000000000E+00 0.  1.
<mgrwt>
<rscale>  0 0.32397728E+03</rscale>
<asrwt>0</asrwt>
<pdfrwt beam="1">  1        1 0.56370527E-01 0.32397728E+03</pdfrwt>
<pdfrwt beam="2">  1       -1 0.11017684E-01 0.32397728E+03</pdfrwt>
<totfact> 0.35578664E+03</totfact>
</mgrwt>
</event>
<event>
 7    1  0.1646661E-005  0.1690007E+03  0.7546771E-02  0.1189663E+00
          1   -1    0    0  501    0  0.00000000000E+00  0.00000000000E+00  0.17275053332E+03  0.17275053332E+03  0.00000000000E+00 0. -1.
         -1   -1    0    0    0  501 -0.00000000000E+00 -0.00000000000E+00 -0.13296185935E+03  0.13296185935E+03  0.00000000000E+00 0.  1.
         23    2    1    2    0    0 -0.30230493002E+02 -0.92539642012E+02  0.39847390305E+01  0.13296069266E+03  0.90472092909E+02 0.  0.
          5    1    1    2  502    0  0.43389308279E+02  0.12531272604E+03  0.34470268264E+02  0.13709923696E+03  0.47000000000E+01 0. -1.
         -5    1    1    2    0  502 -0.13158815277E+02 -0.32773084024E+02  0.13336666738E+01  0.35652463067E+02  0.47000000000E+01 0.  1.
        -11    1    3    3    0    0  0.26078792101E+02 -0.65052624675E+02  0.53157488725E+01  0.70286588768E+02  0.00000000000E+00 0.  1.
         11    1    3    3    0    0 -0.56309285102E+02 -0.27487017337E+02 -0.13310098419E+01  0.62674103887E+02  0.00000000000E+00 0. -1.
<mgrwt>
<rscale>  0 0.15914697E+03</rscale>
<asrwt>0</asrwt>
<pdfrwt beam="1">  1        1 0.26577005E-01 0.16900067E+03</pdfrwt>
<pdfrwt beam="2">  1       -1 0.20455671E-01 0.16900067E+03</pdfrwt>
<totfact> 0.33501180E+03</totfact>
</mgrwt>
</event>
<event>
 8    1  0.1646661E-005  0.1892132E+03  0.7546771E-02  0.1164873E+00
         -1   -1    0    0    0  501 -0.00000000000E+00  0.00000000000E+00  0.20072438181E+03  0.20072438181E+03  0.00000000000E+00 0.  1.
          1   -1    0    0  501    0  0.00000000000E+00 -0.00000000000E+00 -0.16184766757E+03  0.16184766757E+03  0.00000000000E+00 0. -1.
         23    2    1    2    0    0  0.73180560073E+02  0.12173885709E+03  0.52132932077E+02  0.19626376938E+03  0.12500352341E+03 0.  0.
         23    2    1    2    0    0 -0.73180560073E+02 -0.12173885709E+03 -0.13256217833E+02  0.16630828001E+03  0.85480834051E+02 0.  0.
          5    1    3    3  502    0 -0.30194020572E+02  0.59335174806E+02  0.30995631242E+02  0.73587777543E+02  0.47000000000E+01 0. -1.
         -5    1    3    3    0  502  0.10337458065E+03  0.62403682282E+02  0.21137300835E+02  0.12267599183E+03  0.47000000000E+01 0. -1.
        -11    1    4    4    0    0 -0.84599272650E+02 -0.68029845740E+02  0.43469790208E+01  0.10864618296E+03  0.00000000000E+00 0.  1.
         11    1    4    4    0    0  0.11418712577E+02 -0.53709011348E+02 -0.17603196853E+02  0.57662097051E+02  0.00000000000E+00 0. -1.
<mgrwt>
<rscale>  0 0.18306106E+03</rscale>
<asrwt>0</asrwt>
<pdfrwt beam="2">  1        1 0.24899641E-01 0.18921317E+03</pdfrwt>
<pdfrwt beam="1">  1       -1 0.30880674E-01 0.18921317E+03</pdfrwt>
<totfact> 0.18468843E+03</totfact>
</mgrwt>
</event>
<event>
 8    1  0.1646661E-005  0.2269439E+03  0.7546771E-02  0.1131819E+00
         -1   -1    0    0    0  501 -0.00000000000E+00  0.00000000000E+00  0.25003682169E+03  0.25003682169E+03  0.00000000000E+00 0.  1.
          1   -1    0    0  501    0  0.00000000000E+00 -0.00000000000E+00 -0.19179564086E+03  0.19179564086E+03  0.00000000000E+00 0. -1.
         23    2    1    2    0    0 -0.26497177618E+02 -0.18755553065E+03  0.37612842549E+02  0.23003970875E+03  0.12499745669E+03 0.  0.
         23    2    1    2    0    0  0.26497177618E+02  0.18755553065E+03  0.20628338283E+02  0.21179275380E+03  0.92474130022E+02 0.  0.
          5    1    3    3  502    0 -0.71806264171E+02 -0.15359936171E+03  0.34807949649E+02  0.17315480603E+03  0.47000000000E+01 0. -1.
         -5    1    3    3    0  502  0.45309086553E+02 -0.33956168937E+02  0.28048928999E+01  0.56884902719E+02  0.47000000000E+01 0. -1.
        -11    1    4    4    0    0  0.57146508384E+02  0.12746061541E+03 -0.46243955736E+01  0.13976164329E+03  0.00000000000E+00 0. -1.
         11    1    4    4    0    0 -0.30649330765E+02  0.60094915237E+02  0.25252733856E+02  0.72031110507E+02  0.00000000000E+00 0.  1.
<mgrwt>
<rscale>  0 0.22279182E+03</rscale>
<asrwt>0</asrwt>
<pdfrwt beam="2">  1        1 0.29507022E-01 0.22694392E+03</pdfrwt>
<pdfrwt beam="1">  1       -1 0.38467203E-01 0.22694392E+03</pdfrwt>
<totfact> 0.10227362E+03</totfact>
</mgrwt>
</event>
<event>
 8    1  0.1646661E-005  0.1448859E+03  0.7546771E-02  0.1217252E+00
         -1   -1    0    0    0  501 -0.00000000000E+00  0.00000000000E+00  0.10105105543E+04  0.10105105543E+04  0.00000000000E+00 0.  1.
          1   -1    0    0  501    0  0.00000000000E+00 -0.00000000000E+00 -0.19955540758E+02  0.19955540758E+02  0.00000000000E+00 0. -1.
         23    2    1    2    0    0  0.56780399979E+02 -0.46262606950E+02  0.74276121442E+03  0.75676029717E+03  0.12501073197E+03 0.  0.
         23    2    1    2    0    0 -0.56780399979E+02  0.46262606950E+02  0.24779379917E+03  0.27370579793E+03  0.90271004709E+02 0.  0.
          5    1    3    3  502    0  0.72177138983E+02 -0.71898751531E+02  0.67342903337E+03  0.68110771751E+03  0.47000000000E+01 0.  1.
         -5    1    3    3    0  502 -0.15396739004E+02  0.25636144581E+02  0.69332181046E+02  0.75652579662E+02  0.47000000000E+01 0.  1.
        -11    1    4    4    0    0 -0.25479602957E+02  0.52444105168E+02  0.61677806115E+02  0.84874884983E+02  0.00000000000E+00 0. -1.
         11    1    4    4    0    0 -0.31300797023E+02 -0.61814982183E+01  0.18611599306E+03  0.18883091295E+03  0.00000000000E+00 0.  1.
<mgrwt>
<rscale>  0 0.13712416E+03</rscale>
<asrwt>0</asrwt>
<pdfrwt beam="2">  1        1 0.30700840E-02 0.14488591E+03</pdfrwt>
<pdfrwt beam="1">  1       -1 0.15546312E+00 0.14488591E+03</pdfrwt>
<totfact> 0.11139949E+03</totfact>
</mgrwt>
</event>
<event>
 8    1  0.1646661E-005  0.1309866E+03  0.7546771E-02  0.1239615E+00
          1   -1    0    0  501    0  0.00000000000E+00  0.00000000000E+00  0.82335654223E+02  0.82335654223E+02  0.00000000000E+00 0. -1.
         -1   -1    0    0    0  501 -0.00000000000E+00 -0.00000000000E+00 -0.17168864009E+03  0.17168864009E+03  0.00000000000E+00 0.  1.
         23    2    1    2    0    0 -0.30983774015E+02  0.24547360374E+02 -0.82442814652E+02  0.15477182587E+03  0.12487967506E+03 0.  0.
         23    2    1    2    0    0  0.30983774015E+02 -0.24547360374E+02 -0.69101712109E+01  0.99252468435E+02  0.90778493437E+02 0.  0.
          5    1    3    3  502    0 -0.88054583447E+01 -0.45393001416E+00  0.33009066794E+02  0.34488123169E+02  0.47000000000E+01 0.  1.
         -5    1    3    3    0  502 -0.22178315670E+02  0.25001290388E+02 -0.11545188145E+03  0.12028370271E+03  0.47000000000E+01 0.  1.
        -11    1    4    4    0    0  0.19067676648E+02  0.66022639575E+01 -0.44583792225E+02  0.48937518442E+02  0.00000000000E+00 0.  1.
         11    1    4    4    0    0  0.11916097367E+02 -0.31149624331E+02  0.37673621014E+02  0.50314949993E+02  0.00000000000E+00 0. -1.
<mgrwt>
<rscale>  0 0.12213547E+03</rscale>
<asrwt>0</asrwt>
<pdfrwt beam="1">  1        1 0.12667024E-01 0.13098664E+03</pdfrwt>
<pdfrwt beam="2">  1       -1 0.26413637E-01 0.13098664E+03</pdfrwt>
<totfact> 0.56222997E+03</totfact>
</mgrwt>
</event>
<event>
 8    1  0.1646661E-005  0.1304256E+03  0.7546771E-02  0.1240378E+00
         -3   -1    0    0    0  501 -0.00000000000E+00  0.00000000000E+00  0.61332808610E+02  0.61332808610E+02  0.00000000000E+00 0.  1.
          3   -1    0    0  501    0  0.00000000000E+00 -0.00000000000E+00 -0.21668278515E+03  0.21668278515E+03  0.00000000000E+00 0. -1.
         23    2    1    2    0    0 -0.34043428845E+02  0.15082989277E+02 -0.73215194525E+02  0.14957042307E+03  0.12499758051E+03 0.  0.
         23    2    1    2    0    0  0.34043428845E+02 -0.15082989277E+02 -0.82134782013E+02  0.12844517069E+03  0.91463587533E+02 0.  0.
          5    1    3    3  502    0  0.94333388875E+01 -0.21669991174E+02  0.25772381514E+02  0.35282886063E+02  0.47000000000E+01 0. -1.
         -5    1    3    3    0  502 -0.43476767732E+02  0.36752980451E+02 -0.98987576040E+02  0.11428753701E+03  0.47000000000E+01 0. -1.
        -11    1    4    4    0    0  0.92881761201E+01  0.16697599562E+02  0.14345161251E+02  0.23892754092E+02  0.00000000000E+00 0.  1.
         11    1    4    4    0    0  0.24755252725E+02 -0.31780588839E+02 -0.96479943265E+02  0.10455241660E+03  0.00000000000E+00 0. -1.
<mgrwt>
<rscale>  0 0.12166318E+03</rscale>
<asrwt>0</asrwt>
<pdfrwt beam="2">  1        3 0.33335813E-01 0.13042564E+03</pdfrwt>
<pdfrwt beam="1">  1       -3 0.94358166E-02 0.13042564E+03</pdfrwt>
<totfact> 0.16326900E+03</totfact>
</mgrwt>
</event>
<event>
 8    1  0.1646661E-005  0.1160631E+03  0.7546771E-02  0.1260990E+00
          2   -1    0    0  501    0  0.00000000000E+00  0.00000000000E+00  0.59584756735E+03  0.59584756735E+03  0.00000000000E+00 0.  1.
         -2   -1    0    0    0  501 -0.00000000000E+00 -0.00000000000E+00 -0.19905012040E+02  0.19905012040E+02  0.00000000000E+00 0. -1.
         23    2    1    2    0    0  0.16975957009E+02  0.41891007777E+01  0.23090468946E+03  0.25843299998E+03  0.11473843376E+03 0.  0.
         23    2    1    2    0    0 -0.16975957009E+02 -0.41891007777E+01  0.34503786585E+03  0.35731957941E+03  0.91216343262E+02 0.  0.
          5    1    3    3  502    0  0.68321303735E+01  0.16977004462E+02 -0.68311909702E+01  0.20091088970E+02  0.47000000000E+01 0. -1.
         -5    1    3    3    0  502  0.10143826636E+02 -0.12787903684E+02  0.23773588043E+03  0.23834191101E+03  0.47000000000E+01 0.  1.
        -11    1    4    4    0    0 -0.17854385868E+02  0.37905673594E+02  0.24838335583E+03  0.25189265698E+03  0.00000000000E+00 0.  1.
         11    1    4    4    0    0  0.87842885887E+00 -0.42094774372E+02  0.96654510017E+02  0.10542692243E+03  0.00000000000E+00 0. -1.
<mgrwt>
<rscale>  0 0.10977355E+03</rscale>
<asrwt>0</asrwt>
<pdfrwt beam="1">  1        2 0.91668843E-01 0.11606309E+03</pdfrwt>
<pdfrwt beam="2">  1       -2 0.30623100E-02 0.11606309E+03</pdfrwt>
<totfact> 0.19454664E+04</totfact>
</mgrwt>
</event>
<event>
 8    1  0.1646661E-005  0.1435696E+03  0.7546771E-02  0.1217492E+00
         -1   -1    0    0    0  501 -0.00000000000E+00  0.00000000000E+00  0.75065811164E+02  0.75065811164E+02  0.00000000000E+00 0.  1.
          1   -1    0    0  501    0  0.00000000000E+00 -0.00000000000E+00 -0.25977077190E+03  0.25977077190E+03  0.00000000000E+00 0. -1.
         23    2    1    2    0    0 -0.65606105468E+02 -0.26121883658E+02 -0.42988797074E+02  0.14986745429E+03  0.12500281318E+03 0.  0.
         23    2    1    2    0    0  0.65606105468E+02  0.26121883658E+02 -0.14171616367E+03  0.18496912877E+03  0.95622140084E+02 0.  0.
          5    1    3    3  502    0  0.37343529368E+02 -0.19649229619E+01 -0.99456950393E+01  0.38979571030E+02  0.47000000000E+01 0. -1.
         -5    1    3    3    0  502 -0.10294963484E+03 -0.24156960696E+02 -0.33043102035E+02  0.11088788326E+03  0.47000000000E+01 0. -1.
        -11    1    4    4    0    0  0.38806976268E+02  0.56175004969E+02 -0.49459974585E+02  0.84308372516E+02  0.00000000000E+00 0.  1.
         11    1    4    4    0    0  0.26799129199E+02 -0.30053121311E+02 -0.92256189082E+02  0.10066075626E+03  0.00000000000E+00 0. -1.
<mgrwt>
<rscale>  0 0.13695092E+03</rscale>
<asrwt>0</asrwt>
<pdfrwt beam="2">  1        1 0.39964735E-01 0.14356956E+03</pdfrwt>
<pdfrwt beam="1">  1       -1 0.11548586E-01 0.14356956E+03</pdfrwt>
<totfact> 0.49206767E+03</totfact>
</mgrwt>
</event>
<event>
 8    1  0.1646661E-005  0.1575845E+03  0.7546771E-02  0.1199402E+00
          3   -1    0    0  501    0  0.00000000000E+00  0.00000000000E+00  0.54772424898E+02  0.54772424898E+02  0.00000000000E+00 0. -1.
         -3   -1    0    0    0  501 -0.00000000000E+00 -0.00000000000E+00 -0.42728442659E+03  0.42728442659E+03  0.00000000000E+00 0.  1.
         23    2    1    2    0    0  0.12922287285E+01  0.95990446740E+02 -0.27736292849E+03  0.31900323525E+03  0.12496813305E+03 0.  0.
         23    2    1    2    0    0 -0.12922287285E+01 -0.95990446740E+02 -0.95149073207E+02  0.16305361624E+03  0.91199232000E+02 0.  0.
          5    1    3    3  502    0 -0.52507897068E+02  0.39226728498E+02 -0.19295279894E+03  0.20383495309E+03  0.47000000000E+01 0.  1.
         -5    1    3    3    0  502  0.53800125797E+02  0.56763718242E+02 -0.84410129550E+02  0.11516828216E+03  0.47000000000E+01 0.  1.
        -11    1    4    4    0    0 -0.22855747656E+02 -0.10188527944E+03 -0.94278358072E+02  0.14068192552E+03  0.00000000000E+00 0.  1.
         11    1    4    4    0    0  0.21563518928E+02  0.58948326956E+01 -0.87071513461E+00  0.22371690725E+02  0.00000000000E+00 0. -1.
<mgrwt>
<rscale>  0 0.15087509E+03</rscale>
<asrwt>0</asrwt>
<pdfrwt beam="1">  1        3 0.84265268E-02 0.15758449E+03</pdfrwt>
<pdfrwt beam="2">  1       -3 0.65736066E-01 0.15758449E+03</pdfrwt>
<totfact> 0.52737743E+02</totfact>
</mgrwt>
</event>
<event>
 8    1  0.1646661E-005  0.2295100E+03  0.7546771E-02  0.1130004E+00
          1   -1    0    0  501    0  0.00000000000E+00  0.00000000000E+00  0.42218272464E+03  0.42218272464E+03  0.00000000000E+00 0. -1.
         -1   -1    0    0    0  501 -0.00000000000E+00 -0.00000000000E+00 -0.11613321327E+03  0.11613321327E+03  0.00000000000E+00 0.  1.
         23    2    1    2    0    0 -0.16183840152E+03  0.10420077430E+03  0.16819735904E+03  0.28454383751E+03  0.12500149723E+03 0.  0.
         23    2    1    2    0    0  0.16183840152E+03 -0.10420077430E+03  0.13785215233E+03  0.25377210039E+03  0.91365165482E+02 0.  0.
          5    1    3    3  502    0 -0.94636687986E+02 -0.11680157931E+02  0.70116881580E+02  0.11845250476E+03  0.47000000000E+01 0.  1.
         -5    1    3    3    0  502 -0.67201713533E+02  0.11588093223E+03  0.98080477458E+02  0.16609133275E+03  0.47000000000E+01 0.  1.
        -11    1    4    4    0    0  0.13280565714E+03 -0.80079351853E+02  0.58223637931E+02  0.16565034614E+03  0.00000000000E+00 0.  1.
         11    1    4    4    0    0  0.29032744381E+02 -0.24121422446E+02  0.79628514403E+02  0.88121754256E+02  0.00000000000E+00 0. -1.
<mgrwt>
<rscale>  0 0.22528366E+03</rscale>
<asrwt>0</asrwt>
<pdfrwt beam="1">  1        1 0.64951188E-01 0.22951001E+03</pdfrwt>
<pdfrwt beam="2">  1       -1 0.17866648E-01 0.22951001E+03</pdfrwt>
<totfact> 0.13663235E+03</totfact>
</mgrwt>
</event>
<event>
 8    1  0.1646661E-005  0.1280959E+03  0.7546771E-02  0.1244520E+00
         -3   -1    0    0    0  501 -0.00000000000E+00  0.00000000000E+00  0.67611385852E+03  0.67611385852E+03  0.00000000000E+00 0.  1.
          3   -1    0    0  501    0  0.00000000000E+00 -0.00000000000E+00 -0.18727476721E+02  0.18727476721E+02  0.00000000000E+00 0. -1.
         23    2    1    2    0    0 -0.84481656001E+01 -0.26692205331E+02  0.34170313600E+03  0.36492407604E+03  0.12499881119E+03 0.  0.
         23    2    1    2    0    0  0.84481656001E+01  0.26692205331E+02  0.31568324580E+03  0.32991725920E+03  0.91682282411E+02 0.  0.
          5    1    3    3  502    0 -0.63918608984E+02 -0.15693814946E+02  0.13053752318E+03  0.14626694555E+03  0.47000000000E+01 0. -1.
         -5    1    3    3    0  502  0.55470443384E+02 -0.10998390385E+02  0.21116561282E+03  0.21865713050E+03  0.47000000000E+01 0. -1.
        -11    1    4    4    0    0  0.48945540520E+02  0.25779256290E+02  0.18660864813E+03  0.19463561737E+03  0.00000000000E+00 0.  1.
         11    1    4    4    0    0 -0.40497374920E+02  0.91294904093E+00  0.12907459767E+03  0.13528164182E+03  0.00000000000E+00 0. -1.
<mgrwt>
<rscale>  0 0.11914140E+03</rscale>
<asrwt>0</asrwt>
<pdfrwt beam="2">  1        3 0.28811508E-02 0.12809586E+03</pdfrwt>
<pdfrwt beam="1">  1       -3 0.10401750E+00 0.12809586E+03</pdfrwt>
<totfact> 0.10256493E+03</totfact>
</mgrwt>
</event>
<event>
 8    1  0.1646661E-005  0.1702377E+03  0.7546771E-02  0.1181247E+00
          2   -1    0    0  501    0  0.00000000000E+00  0.00000000000E+00  0.97208437331E+03  0.97208437331E+03  0.00000000000E+00 0. -1.
         -2   -1    0    0    0  501 -0.00000000000E+00 -0.00000000000E+00 -0.27622915126E+02  0.27622915126E+02  0.00000000000E+00 0.  1.
         23    2    1    2    0    0 -0.10024171369E+03 -0.57500848709E+02  0.45968824734E+03  0.49019809292E+03  0.12500454707E+03 0.  0.
         23    2    1    2    0    0  0.10024171369E+03  0.57500848709E+02  0.48477321084E+03  0.50950919552E+03  0.10601794944E+03 0.  0.
          5    1    3    3  502    0 -0.72760606321E+02 -0.63984690847E+02  0.44944779206E+03  0.45979729695E+03  0.47000000000E+01 0. -1.
         -5    1    3    3    0  502 -0.27481107367E+02  0.64838421376E+01  0.10240455284E+02  0.30400795967E+02  0.47000000000E+01 0. -1.
        -11    1    4    4    0    0  0.40309567179E+02 -0.12917673452E+02  0.52411801160E+02  0.67370055621E+02  0.00000000000E+00 0.  1.
         11    1    4    4    0    0  0.59932146510E+02  0.70418522161E+02  0.43236140968E+03  0.44213913990E+03  0.00000000000E+00 0. -1.
<mgrwt>
<rscale>  0 0.16678106E+03</rscale>
<asrwt>0</asrwt>
<pdfrwt beam="1">  1        2 0.14955142E+00 0.17023773E+03</pdfrwt>
<pdfrwt beam="2">  1       -2 0.42496800E-02 0.17023773E+03</pdfrwt>
<totfact> 0.67174983E+03</totfact>
</mgrwt>
</event>
<event>
 8    1  0.1646661E-005  0.1299002E+03  0.7546771E-02  0.1241256E+00
          2   -1    0    0  501    0  0.00000000000E+00  0.00000000000E+00  0.35347010466E+03  0.35347010466E+03  0.00000000000E+00 0. -1.
         -2   -1    0    0    0  501 -0.00000000000E+00 -0.00000000000E+00 -0.37490932170E+02  0.37490932170E+02  0.00000000000E+00 0.  1.
         23    2    1    2    0    0  0.28618270998E+02 -0.20748191226E+02  0.15319947021E+03  0.20085849139E+03  0.12499825205E+03 0.  0.
         23    2    1    2    0    0 -0.28618270998E+02  0.20748191226E+02  0.16277970228E+03  0.19010254544E+03  0.91609243181E+02 0.  0.
          5    1    3    3  502    0 -0.25917382709E+02  0.83954780840E+01  0.13269423878E+03  0.13554351989E+03  0.47000000000E+01 0. -1.
         -5    1    3    3    0  502  0.54535653707E+02 -0.29143669310E+02  0.20505231437E+02  0.65314971503E+02  0.47000000000E+01 0. -1.
        -11    1    4    4    0    0 -0.42234261434E+02  0.48413594762E+02  0.85885437941E+02  0.10725631658E+03  0.00000000000E+00 0.  1.
         11    1    4    4    0    0  0.13615990437E+02 -0.27665403536E+02  0.76894264338E+02  0.82846228861E+02  0.00000000000E+00 0. -1.
<mgrwt>
<rscale>  0 0.12112304E+03</rscale>
<asrwt>0</asrwt>
<pdfrwt beam="1">  1        2 0.54380014E-01 0.12990018E+03</pdfrwt>
<pdfrwt beam="2">  1       -2 0.57678360E-02 0.12990018E+03</pdfrwt>
<totfact> 0.13508206E+04</totfact>
</mgrwt>
</event>
<event>
 8    1  0.1646661E-005  0.1723909E+03  0.7546771E-02  0.1181040E+00
          1   -1    0    0  501    0  0.00000000000E+00  0.00000000000E+00  0.96615208182E+02  0.96615208182E+02  0.00000000000E+00 0. -1.
         -1   -1    0    0    0  501 -0.00000000000E+00 -0.00000000000E+00 -0.27608763690E+03  0.27608763690E+03  0.00000000000E+00 0.  1.
         23    2    1    2    0    0  0.72198260278E+02 -0.94258451948E+02 -0.11846748838E+03  0.20917260039E+03  0.12498554477E+03 0.  0.
         23    2    1    2    0    0 -0.72198260278E+02  0.94258451948E+02 -0.61004940338E+02  0.16353024469E+03  0.94463186641E+02 0.  0.
          5    1    3    3  502    0 -0.33509232096E+02 -0.71634679442E+01 -0.16307689491E+02  0.38238915325E+02  0.47000000000E+01 0. -1.
         -5    1    3    3    0  502  0.10570749237E+03 -0.87094984004E+02 -0.10215979888E+03  0.17093368507E+03  0.47000000000E+01 0. -1.
        -11    1    4    4    0    0 -0.10554695748E+02  0.60973743623E+02 -0.69390562682E+02  0.92974454573E+02  0.00000000000E+00 0.  1.
         11    1    4    4    0    0 -0.61643564530E+02  0.33284708325E+02  0.83856223445E+01  0.70555790113E+02  0.00000000000E+00 0. -1.
<mgrwt>
<rscale>  0 0.16697453E+03</rscale>
<asrwt>0</asrwt>
<pdfrwt beam="1">  1        1 0.14863878E-01 0.17239092E+03</pdfrwt>
<pdfrwt beam="2">  1       -1 0.42475021E-01 0.17239092E+03</pdfrwt>
<totfact> 0.20526920E+03</totfact>
</mgrwt>
</event>
<event>
 8    1  0.1646661E-005  0.1485771E+03  0.7546771E-02  0.1211091E+00
          1   -1    0    0  501    0  0.00000000000E+00  0.00000000000E+00  0.45710075953E+02  0.45710075953E+02  0.00000000000E+00 0. -1.
         -1   -1    0    0    0  501 -0.00000000000E+00 -0.00000000000E+00 -0.40662208650E+03  0.40662208650E+03  0.00000000000E+00 0.  1.
         23    2    1    2    0    0 -0.68647457498E+02  0.41690993751E+02 -0.21895284475E+03  0.26460441467E+03  0.12499814262E+03 0.  0.
         23    2    1    2    0    0  0.68647457498E+02 -0.41690993751E+02 -0.14195916580E+03  0.18772774779E+03  0.92944554188E+02 0.  0.
          5    1    3    3  502    0 -0.48156190475E+02 -0.46463519381E+01 -0.10104373457E+02  0.49646708153E+02  0.47000000000E+01 0.  1.
         -5    1    3    3    0  502 -0.20491267022E+02  0.46337345689E+02 -0.20884847129E+03  0.21495770651E+03  0.47000000000E+01 0.  1.
        -11    1    4    4    0    0  0.84835894813E+02 -0.55130674745E+02 -0.10989588698E+03  0.14937746256E+03  0.00000000000E+00 0. -1.
         11    1    4    4    0    0 -0.16188437315E+02  0.13439680995E+02 -0.32063278823E+02  0.38350285225E+02  0.00000000000E+00 0.  1.
<mgrwt>
<rscale>  0 0.14167640E+03</rscale>
<asrwt>0</asrwt>
<pdfrwt beam="1">  1        1 0.70323195E-02 0.14857708E+03</pdfrwt>
<pdfrwt beam="2">  1       -1 0.62557243E-01 0.14857708E+03</pdfrwt>
<totfact> 0.26987792E+03</totfact>
</mgrwt>
</event>
<event>
 8    1  0.1646661E-005  0.1721800E+03  0.7546771E-02  0.1182136E+00
         -1   -1    0    0    0  501 -0.00000000000E+00  0.00000000000E+00  0.18282079713E+03  0.18282079713E+03  0.00000000000E+00 0.  1.
          1   -1    0    0  501    0  0.00000000000E+00 -0.00000000000E+00 -0.14212443252E+03  0.14212443252E+03  0.00000000000E+00 0. -1.
         23    2    1    2    0    0 -0.26233012361E+02  0.11547084098E+03  0.38051111340E+02  0.17633445291E+03  0.12499706458E+03 0.  0.
         23    2    1    2    0    0  0.26233012361E+02 -0.11547084098E+03  0.26452532669E+01  0.14861077675E+03  0.89757894059E+02 0.  0.
          5    1    3    3  502    0  0.10417511410E+02 -0.61128953490E+01 -0.29643828990E+02  0.32353340333E+02  0.47000000000E+01 0. -1.
         -5    1    3    3    0  502 -0.36650523771E+02  0.12158373633E+03  0.67694940330E+02  0.14398111258E+03  0.47000000000E+01 0. -1.
        -11    1    4    4    0    0  0.31631368365E+02 -0.44045111820E+02  0.40417731911E+02  0.67632155020E+02  0.00000000000E+00 0.  1.
         11    1    4    4    0    0 -0.53983560046E+01 -0.71425729161E+02 -0.37772478644E+02  0.80978621725E+02  0.00000000000E+00 0. -1.
<mgrwt>
<rscale>  0 0.16595197E+03</rscale>
<asrwt>0</asrwt>
<pdfrwt beam="2">  1        1 0.21865297E-01 0.17218000E+03</pdfrwt>
<pdfrwt beam="1">  1       -1 0.28126277E-01 0.17218000E+03</pdfrwt>
<totfact> 0.25418841E+03</totfact>
</mgrwt>
</event>
<event>
 8    1  0.1646661E-005  0.2000353E+03  0.7546771E-02  0.1156478E+00
         -2   -1    0    0    0  501 -0.00000000000E+00  0.00000000000E+00  0.93357995642E+03  0.93357995642E+03  0.00000000000E+00 0.  1.
          2   -1    0    0  501    0  0.00000000000E+00 -0.00000000000E+00 -0.62690460934E+02  0.62690460934E+02  0.00000000000E+00 0. -1.
         23    2    1    2    0    0 -0.20819180587E+02  0.15477683703E+03  0.77545603694E+03  0.80084092571E+03  0.12499926202E+03 0.  0.
         23    2    1    2    0    0  0.20819180587E+02 -0.15477683703E+03  0.95433458550E+02  0.19542949165E+03  0.68526152928E+02 0.  0.
          5    1    3    3  502    0  0.13454289323E+02 -0.17083273304E+02  0.54256939453E+02  0.58640955030E+02  0.47000000000E+01 0.  1.
         -5    1    3    3    0  502 -0.34273469910E+02  0.17186011033E+03  0.72119909749E+03  0.74219997068E+03  0.47000000000E+01 0.  1.
        -11    1    4    4    0    0 -0.71949388200E+01 -0.13060575221E+03  0.88108596422E+02  0.15771098383E+03  0.00000000000E+00 0.  1.
         11    1    4    4    0    0  0.28014119407E+02 -0.24171084811E+02  0.73248621284E+01  0.37718507822E+02  0.00000000000E+00 0. -1.
<mgrwt>
<rscale>  0 0.19221571E+03</rscale>
<asrwt>0</asrwt>
<pdfrwt beam="2">  1        2 0.96446870E-02 0.20003530E+03</pdfrwt>
<pdfrwt beam="1">  1       -2 0.14362768E+00 0.20003530E+03</pdfrwt>
<totfact> 0.23764784E+02</totfact>
</mgrwt>
</event>
<event>
 8    1  0.1646661E-005  0.1279085E+03  0.7546771E-02  0.1244746E+00
          3   -1    0    0  501    0  0.00000000000E+00  0.00000000000E+00  0.19936919412E+03  0.19936919412E+03  0.00000000000E+00 0. -1.
         -3   -1    0    0    0  501 -0.00000000000E+00 -0.00000000000E+00 -0.75219619848E+02  0.75219619848E+02  0.00000000000E+00 0.  1.
         23    2    1    2    0    0 -0.30954491890E+01  0.26923451672E+02  0.14147418132E+02  0.12868849730E+03  0.12500450329E+03 0.  0.
         23    2    1    2    0    0  0.30954491890E+01 -0.26923451672E+02  0.11000215614E+03  0.14590031666E+03  0.91934618025E+02 0.  0.
          5    1    3    3  502    0 -0.20009246019E+02 -0.35745475759E+01 -0.50746581962E+02  0.54867594238E+02  0.47000000000E+01 0. -1.
         -5    1    3    3    0  502  0.16913796830E+02  0.30497999248E+02  0.64894000094E+02  0.73820903066E+02  0.47000000000E+01 0. -1.
        -11    1    4    4    0    0 -0.13688605584E+02 -0.68542042910E+01 -0.13038607913E+02  0.20108787522E+02  0.00000000000E+00 0.  1.
         11    1    4    4    0    0  0.16784054773E+02 -0.20069247381E+02  0.12304076405E+03  0.12579152914E+03  0.00000000000E+00 0. -1.
<mgrwt>
<rscale>  0 0.11900572E+03</rscale>
<asrwt>0</asrwt>
<pdfrwt beam="1">  1        3 0.30672183E-01 0.12790848E+03</pdfrwt>
<pdfrwt beam="2">  1       -3 0.11572249E-01 0.12790848E+03</pdfrwt>
<totfact> 0.13551401E+03</totfact>
</mgrwt>
</event>
<event>
 8    1  0.1646661E-005  0.1376248E+03  0.7546771E-02  0.1227554E+00
          2   -1    0    0  501    0  0.00000000000E+00  0.00000000000E+00  0.11472785446E+04  0.11472785446E+04  0.00000000000E+00 0. -1.
         -2   -1    0    0    0  501 -0.00000000000E+00 -0.00000000000E+00 -0.13922690675E+02  0.13922690675E+02  0.00000000000E+00 0.  1.
         23    2    1    2    0    0 -0.23947709643E+01 -0.57529626061E+02  0.50573883548E+03  0.52413008680E+03  0.12500074151E+03 0.  0.
         23    2    1    2    0    0  0.23947709643E+01  0.57529626061E+02  0.62761701845E+03  0.63707114847E+03  0.92957697734E+02 0.  0.
          5    1    3    3  502    0 -0.57607593461E+02 -0.97542255362E-01  0.20805937778E+03  0.21593850750E+03  0.47000000000E+01 0. -1.
         -5    1    3    3    0  502  0.55212822496E+02 -0.57432083806E+02  0.29767945770E+03  0.30819157930E+03  0.47000000000E+01 0. -1.
        -11    1    4    4    0    0 -0.37289294011E+02 -0.25029190036E+01  0.21060676074E+03  0.21389708675E+03  0.00000000000E+00 0. -1.
         11    1    4    4    0    0  0.39684064975E+02  0.60032545065E+02  0.41701025771E+03  0.42317406172E+03  0.00000000000E+00 0.  1.
<mgrwt>
<rscale>  0 0.12993408E+03</rscale>
<asrwt>0</asrwt>
<pdfrwt beam="1">  1        2 0.17650432E+00 0.13762477E+03</pdfrwt>
<pdfrwt beam="2">  1       -2 0.21419533E-02 0.13762477E+03</pdfrwt>
<totfact> 0.14417443E+04</totfact>
</mgrwt>
</event>
<event>
 8    1  0.1646661E-005  0.1550484E+03  0.7546771E-02  0.1202257E+00
         -1   -1    0    0    0  501 -0.00000000000E+00  0.00000000000E+00  0.84470715112E+02  0.84470715112E+02  0.00000000000E+00 0.  1.
          1   -1    0    0  501    0  0.00000000000E+00 -0.00000000000E+00 -0.30588220552E+03  0.30588220552E+03  0.00000000000E+00 0. -1.
         23    2    1    2    0    0 -0.80202501674E+02 -0.44517451315E+02 -0.28955178329E+02  0.15772894421E+03  0.12500309094E+03 0.  0.
         23    2    1    2    0    0  0.80202501674E+02  0.44517451315E+02 -0.19245631208E+03  0.23262397642E+03  0.93060397586E+02 0.  0.
          5    1    3    3  502    0  0.24482278736E+02 -0.41094480892E+01 -0.37362657563E+02  0.45103522211E+02  0.47000000000E+01 0.  1.
         -5    1    3    3    0  502 -0.10468478041E+03 -0.40408003225E+02  0.84074792336E+01  0.11262542200E+03  0.47000000000E+01 0.  1.
        -11    1    4    4    0    0 -0.14151354668E+02  0.35627960273E+01 -0.75389595647E+02  0.76788967217E+02  0.00000000000E+00 0. -1.
         11    1    4    4    0    0  0.94353856343E+02  0.40954655287E+02 -0.11706671644E+03  0.15583500920E+03  0.00000000000E+00 0.  1.
<mgrwt>
<rscale>  0 0.14855730E+03</rscale>
<asrwt>0</asrwt>
<pdfrwt beam="2">  1        1 0.47058801E-01 0.15504844E+03</pdfrwt>
<pdfrwt beam="1">  1       -1 0.12995495E-01 0.15504844E+03</pdfrwt>
<totfact> 0.33600303E+03</totfact>
</mgrwt>
</event>
<event>
 8    1  0.1646661E-005  0.1524955E+03  0.7546771E-02  0.1204294E+00
         -1   -1    0    0    0  501 -0.00000000000E+00  0.00000000000E+00  0.25852801949E+02  0.25852801949E+02  0.00000000000E+00 0.  1.
          1   -1    0    0  501    0  0.00000000000E+00 -0.00000000000E+00 -0.77993120328E+03  0.77993120328E+03  0.00000000000E+00 0. -1.
         23    2    1    2    0    0  0.67636077980E+02 -0.55296725833E+02 -0.39606801223E+03  0.42441105495E+03  0.12499002488E+03 0.  0.
         23    2    1    2    0    0 -0.67636077980E+02  0.55296725833E+02 -0.35801038910E+03  0.38137295028E+03  0.98191249952E+02 0.  0.
          5    1    3    3  502    0 -0.21668597577E+02 -0.55559139911E+02 -0.20312927450E+03  0.21175442925E+03  0.47000000000E+01 0.  1.
         -5    1    3    3    0  502  0.89304675557E+02  0.26241407810E+00 -0.19293873773E+03  0.21265662570E+03  0.47000000000E+01 0.  1.
        -11    1    4    4    0    0 -0.29624890062E+02 -0.21531183307E+02 -0.52123875500E+02  0.63703409351E+02  0.00000000000E+00 0.  1.
         11    1    4    4    0    0 -0.38011187918E+02  0.76827909140E+02 -0.30588651360E+03  0.31766954093E+03  0.00000000000E+00 0. -1.
<mgrwt>
<rscale>  0 0.14693204E+03</rscale>
<asrwt>0</asrwt>
<pdfrwt beam="2">  1        1 0.11998939E+00 0.15249549E+03</pdfrwt>
<pdfrwt beam="1">  1       -1 0.39773551E-02 0.15249549E+03</pdfrwt>
<totfact> 0.57908696E+03</totfact>
</mgrwt>
</event>
<event>
 8    1  0.1646661E-005  0.1558229E+03  0.7546771E-02  0.1201867E+00
         -1   -1    0    0    0  501 -0.00000000000E+00  0.00000000000E+00  0.20944502123E+03  0.20944502123E+03  0.00000000000E+00 0.  1.
          1   -1    0    0  501    0  0.00000000000E+00 -0.00000000000E+00 -0.13260229846E+03  0.13260229846E+03  0.00000000000E+00 0. -1.
         23    2    1    2    0    0  0.83124121494E+02 -0.41847363579E+02  0.12884882114E+03  0.20219497909E+03  0.12497987617E+03 0.  0.
         23    2    1    2    0    0 -0.83124121494E+02  0.41847363579E+02 -0.52006098367E+02  0.13985234060E+03  0.90516415588E+02 0.  0.
          5    1    3    3  502    0 -0.18348307593E+02 -0.45733716899E+02  0.20366808863E+02  0.53526910579E+02  0.47000000000E+01 0.  1.
         -5    1    3    3    0  502  0.10147242909E+03  0.38863533193E+01  0.10848201228E+03  0.14866806851E+03  0.47000000000E+01 0.  1.
        -11    1    4    4    0    0  0.11147902017E+02  0.12325502309E+02  0.13423148940E+02  0.21362927093E+02  0.00000000000E+00 0.  1.
         11    1    4    4    0    0 -0.94272023511E+02  0.29521861271E+02 -0.65429247307E+02  0.11848941351E+03  0.00000000000E+00 0. -1.
<mgrwt>
<rscale>  0 0.14887150E+03</rscale>
<asrwt>0</asrwt>
<pdfrwt beam="2">  1        1 0.20400354E-01 0.15582295E+03</pdfrwt>
<pdfrwt beam="1">  1       -1 0.32222311E-01 0.15582295E+03</pdfrwt>
<totfact> 0.21984610E+03</totfact>
</mgrwt>
</event>
<event>
 8    1  0.1646661E-005  0.1582700E+03  0.7546771E-02  0.1197760E+00
         -2   -1    0    0    0  501 -0.00000000000E+00  0.00000000000E+00  0.37066036608E+03  0.37066036608E+03  0.00000000000E+00 0.  1.
          2   -1    0    0  501    0  0.00000000000E+00 -0.00000000000E+00 -0.82030591933E+02  0.82030591933E+02  0.00000000000E+00 0. -1.
         23    2    1    2    0    0  0.98702831437E+01 -0.96581453122E+02  0.27402962396E+03  0.31645162779E+03  0.12499599334E+03 0.  0.
         23    2    1    2    0    0 -0.98702831437E+01  0.96581453122E+02  0.14600150191E+02  0.13623933022E+03  0.94459468227E+02 0.  0.
          5    1    3    3  502    0  0.47008078513E+02 -0.77041341606E+02  0.25422652514E+03  0.26981168219E+03  0.47000000000E+01 0.  1.
         -5    1    3    3    0  502 -0.37137795370E+02 -0.19540111516E+02  0.19803098818E+02  0.46639945602E+02  0.47000000000E+01 0.  1.
        -11    1    4    4    0    0 -0.28731680678E+02  0.84419902648E+02  0.43848848188E+02  0.99372787649E+02  0.00000000000E+00 0.  1.
         11    1    4    4    0    0  0.18861397534E+02  0.12161550473E+02 -0.29248697997E+02  0.36866542574E+02  0.00000000000E+00 0. -1.
<mgrwt>
<rscale>  0 0.15222905E+03</rscale>
<asrwt>0</asrwt>
<pdfrwt beam="2">  1        2 0.12620091E-01 0.15827002E+03</pdfrwt>
<pdfrwt beam="1">  1       -2 0.57024671E-01 0.15827002E+03</pdfrwt>
<totfact> 0.13832420E+03</totfact>
</mgrwt>
</event>
<event>
 8    1  0.1646661E-005  0.1864462E+03  0.7546771E-02  0.1165250E+00
         -2   -1    0    0    0  501 -0.00000000000E+00  0.00000000000E+00  0.71324444782E+02  0.71324444782E+02  0.00000000000E+00 0.  1.
          2   -1    0    0  501    0  0.00000000000E+00 -0.00000000000E+00 -0.50104616030E+03  0.50104616030E+03  0.00000000000E+00 0. -1.
         23    2    1    2    0    0  0.13289554743E+03  0.38431777633E+02 -0.13128158810E+03  0.22802855812E+03  0.12499575947E+03 0.  0.
         23    2    1    2    0    0 -0.13289554743E+03 -0.38431777633E+02 -0.29844012742E+03  0.34434204696E+03  0.10181702998E+03 0.  0.
          5    1    3    3  502    0  0.74289783677E+02  0.68755975320E+02 -0.27573570681E+02  0.10501784563E+03  0.47000000000E+01 0. -1.
         -5    1    3    3    0  502  0.58605763754E+02 -0.30324197686E+02 -0.10370801742E+03  0.12301071249E+03  0.47000000000E+01 0. -1.
        -11    1    4    4    0    0 -0.70191800282E+02  0.25745766844E+02 -0.18618150629E+03  0.20063221730E+03  0.00000000000E+00 0. -1.
         11    1    4    4    0    0 -0.62703747149E+02 -0.64177544478E+02 -0.11225862113E+03  0.14370982966E+03  0.00000000000E+00 0.  1.
<mgrwt>
<rscale>  0 0.18266355E+03</rscale>
<asrwt>0</asrwt>
<pdfrwt beam="2">  1        2 0.77084026E-01 0.18644615E+03</pdfrwt>
<pdfrwt beam="1">  1       -2 0.10972991E-01 0.18644615E+03</pdfrwt>
<totfact> 0.34907621E+03</totfact>
</mgrwt>
</event>
<event>
 8    1  0.1646661E-005  0.1258269E+03  0.7546771E-02  0.1249524E+00
         -1   -1    0    0    0  501 -0.00000000000E+00  0.00000000000E+00  0.69269307112E+02  0.69269307112E+02  0.00000000000E+00 0.  1.
          1   -1    0    0  501    0  0.00000000000E+00 -0.00000000000E+00 -0.17050195259E+03  0.17050195259E+03  0.00000000000E+00 0. -1.
         23    2    1    2    0    0  0.55899060654E+01 -0.13268064558E+02 -0.61150567793E+02  0.13989922674E+03  0.12500045246E+03 0.  0.
         23    2    1    2    0    0 -0.55899060654E+01  0.13268064558E+02 -0.40082077688E+02  0.99872032963E+02  0.90335825836E+02 0.  0.
          5    1    3    3  502    0  0.27869866262E+02  0.14427301926E+01 -0.93502192200E+02  0.97691150377E+02  0.47000000000E+01 0.  1.
         -5    1    3    3    0  502 -0.22279960196E+02 -0.14710794751E+02  0.32351624407E+02  0.42208076364E+02  0.47000000000E+01 0.  1.
        -11    1    4    4    0    0 -0.97444916352E+01 -0.22311143960E+02  0.18929491412E+02  0.30839388890E+02  0.00000000000E+00 0.  1.
         11    1    4    4    0    0  0.41545855698E+01  0.35579208518E+02 -0.59011569100E+02  0.69032644073E+02  0.00000000000E+00 0. -1.
<mgrwt>
<rscale>  0 0.11618680E+03</rscale>
<asrwt>0</asrwt>
<pdfrwt beam="2">  1        1 0.26231070E-01 0.12582687E+03</pdfrwt>
<pdfrwt beam="1">  1       -1 0.10656817E-01 0.12582687E+03</pdfrwt>
<totfact> 0.93049565E+03</totfact>
</mgrwt>
</event>
<event>
 8    1  0.1646661E-005  0.4245472E+03  0.7546771E-02  0.1036308E+00
          1   -1    0    0  501    0  0.00000000000E+00  0.00000000000E+00  0.26662128839E+04  0.26662128839E+04  0.00000000000E+00 0. -1.
         -1   -1    0    0    0  501 -0.00000000000E+00 -0.00000000000E+00 -0.67697236318E+02  0.67697236318E+02  0.00000000000E+00 0.  1.
         23    2    1    2    0    0 -0.17660611352E+03 -0.36527514147E+03  0.11101049350E+04  0.11885172816E+04  0.12499885482E+03 0.  0.
         23    2    1    2    0    0  0.17660611352E+03  0.36527514147E+03  0.14884107126E+04  0.15453928386E+04  0.90867639628E+02 0.  0.
          5    1    3    3  502    0 -0.18176627626E+03 -0.36383852520E+03  0.10196510976E+04  0.10977831764E+04  0.47000000000E+01 0. -1.
         -5    1    3    3    0  502  0.51601627466E+01 -0.14366162702E+01  0.90453837424E+02  0.90734105223E+02  0.47000000000E+01 0. -1.
        -11    1    4    4    0    0  0.10902876993E+03  0.12449092645E+03  0.61672498174E+03  0.63854128022E+03  0.00000000000E+00 0. -1.
         11    1    4    4    0    0  0.67577343588E+02  0.24078421502E+03  0.87168573081E+03  0.90685155835E+03  0.00000000000E+00 0.  1.
<mgrwt>
<rscale>  0 0.42233812E+03</rscale>
<asrwt>0</asrwt>
<pdfrwt beam="1">  1        1 0.41018652E+00 0.42454724E+03</pdfrwt>
<pdfrwt beam="2">  1       -1 0.10414961E-01 0.42454724E+03</pdfrwt>
<totfact> 0.67577239E+01</totfact>
</mgrwt>
</event>
<event>
 8    1  0.1646661E-005  0.1609433E+03  0.7546771E-02  0.1195167E+00
          1   -1    0    0  501    0  0.00000000000E+00  0.00000000000E+00  0.29466296189E+03  0.29466296189E+03  0.00000000000E+00 0. -1.
         -1   -1    0    0    0  501 -0.00000000000E+00 -0.00000000000E+00 -0.79211786159E+02  0.79211786159E+02  0.00000000000E+00 0.  1.
         23    2    1    2    0    0 -0.70924087992E+01  0.10113278502E+03  0.73075168697E+02  0.17675609894E+03  0.12499838305E+03 0.  0.
         23    2    1    2    0    0  0.70924087992E+01 -0.10113278502E+03  0.14237600703E+03  0.19711864910E+03  0.91141055395E+02 0.  0.
          5    1    3    3  502    0 -0.30400109326E+02  0.52348503764E+01 -0.23139158585E+02  0.38846891324E+02  0.47000000000E+01 0. -1.
         -5    1    3    3    0  502  0.23307700527E+02  0.95897934640E+02  0.96214327282E+02  0.13790920762E+03  0.47000000000E+01 0. -1.
        -11    1    4    4    0    0  0.42254899473E+02 -0.37754538735E+02  0.32008763688E+02  0.65080278713E+02  0.00000000000E+00 0.  1.
         11    1    4    4    0    0 -0.35162490674E+02 -0.63378246281E+02  0.11036724334E+03  0.13203837039E+03  0.00000000000E+00 0. -1.
<mgrwt>
<rscale>  0 0.15440077E+03</rscale>
<asrwt>0</asrwt>
<pdfrwt beam="1">  1        1 0.45332763E-01 0.16094328E+03</pdfrwt>
<pdfrwt beam="2">  1       -1 0.12186429E-01 0.16094328E+03</pdfrwt>
<totfact> 0.38963465E+03</totfact>
</mgrwt>
</event>
<event>
 8    1  0.1646661E-005  0.1674119E+03  0.7546771E-02  0.1186834E+00
         -1   -1    0    0    0  501 -0.00000000000E+00  0.00000000000E+00  0.12226942532E+03  0.12226942532E+03  0.00000000000E+00 0.  1.
          1   -1    0    0  501    0  0.00000000000E+00 -0.00000000000E+00 -0.22255992185E+03  0.22255992185E+03  0.00000000000E+00 0. -1.
         23    2    1    2    0    0 -0.10976534207E+03 -0.18920836572E+02  0.11268270549E+01  0.16741566136E+03  0.12498122081E+03 0.  0.
         23    2    1    2    0    0  0.10976534207E+03  0.18920836572E+02 -0.10141732358E+03  0.17741368581E+03  0.93721470395E+02 0.  0.
          5    1    3    3  502    0  0.15792325500E+02 -0.20159479903E+02 -0.28205738208E+02  0.38385620257E+02  0.47000000000E+01 0. -1.
         -5    1    3    3    0  502 -0.12555766757E+03  0.12386433309E+01  0.29332565263E+02  0.12903004111E+03  0.47000000000E+01 0. -1.
        -11    1    4    4    0    0  0.29513307358E+02  0.49301275368E+02 -0.56389081280E+02  0.80507015544E+02  0.00000000000E+00 0. -1.
         11    1    4    4    0    0  0.80252034713E+02 -0.30380438795E+02 -0.45028242297E+02  0.96906670262E+02  0.00000000000E+00 0.  1.
<mgrwt>
<rscale>  0 0.16166143E+03</rscale>
<asrwt>0</asrwt>
<pdfrwt beam="2">  1        1 0.34239988E-01 0.16741187E+03</pdfrwt>
<pdfrwt beam="1">  1       -1 0.18810681E-01 0.16741187E+03</pdfrwt>
<totfact> 0.27913200E+03</totfact>
</mgrwt>
</event>
<event>
 6    1  0.1646661E-005  0.1738125E+03  0.7546771E-02  0.1193816E+00
          2   -1    0    0  501    0  0.00000000000E+00  0.00000000000E+00  0.26842533672E+03  0.26842533672E+03  0.00000000000E+00 0. -1.
         -2   -1    0    0    0  501 -0.00000000000E+00 -0.00000000000E+00 -0.85193489190E+02  0.85193489190E+02  0.00000000000E+00 0.  1.
          5    1    1    2  502    0  0.11872651672E+01 -0.80412615415E+00  0.69293705398E+02  0.69467717864E+02  0.47000000000E+01 0. -1.
         -5    1    1    2    0  502 -0.65467364563E+02 -0.89034732896E+02 -0.17293286967E+02  0.11195672047E+03  0.47000000000E+01 0.  1.
        -11    1    1    2    0    0  0.60752243066E+02  0.76511725330E+02  0.11463328310E+03  0.15061762428E+03  0.00000000000E+00 0. -1.
         11    1    1    2    0    0  0.35278563290E+01  0.13327133720E+02  0.16598146000E+02  0.21576763291E+02  0.00000000000E+00 0.  1.
<mgrwt>
<rscale>  0 0.15554864E+03</rscale>
<asrwt>0</asrwt>
<pdfrwt beam="1">  1        2 0.41296205E-01 0.17381249E+03</pdfrwt>
<pdfrwt beam="2">  1       -2 0.13106691E-01 0.17381249E+03</pdfrwt>
<totfact> 0.51294233E+03</totfact>
</mgrwt>
</event>
<event>
 8    1  0.1646661E-005  0.2045326E+03  0.7546771E-02  0.1150702E+00
          2   -1    0    0  501    0  0.00000000000E+00  0.00000000000E+00  0.17820314022E+04  0.17820314022E+04  0.00000000000E+00 0. -1.
         -2   -1    0    0    0  501 -0.00000000000E+00 -0.00000000000E+00 -0.21044863021E+02  0.21044863021E+02  0.00000000000E+00 0.  1.
         23    2    1    2    0    0  0.10447050523E+03 -0.12367791862E+03  0.93220451480E+03  0.95437876467E+03  0.12499301988E+03 0.  0.
         23    2    1    2    0    0 -0.10447050523E+03  0.12367791862E+03  0.82878202437E+03  0.84869750054E+03  0.84838019156E+02 0.  0.
          5    1    3    3  502    0  0.10932476275E+03 -0.74445764095E+02  0.83273696365E+03  0.84318860060E+03  0.47000000000E+01 0. -1.
         -5    1    3    3    0  502 -0.48542575223E+01 -0.49232154521E+02  0.99467551149E+02  0.11119016407E+03  0.47000000000E+01 0. -1.
        -11    1    4    4    0    0 -0.48391239200E+02  0.11485659077E+03  0.61533158260E+03  0.62782697060E+03  0.00000000000E+00 0. -1.
         11    1    4    4    0    0 -0.56079266032E+02  0.88213278472E+01  0.21345044177E+03  0.22087052994E+03  0.00000000000E+00 0.  1.
<mgrwt>
<rscale>  0 0.19886247E+03</rscale>
<asrwt>0</asrwt>
<pdfrwt beam="1">  1        2 0.27415856E+00 0.20453256E+03</pdfrwt>
<pdfrwt beam="2">  1       -2 0.32376726E-02 0.20453256E+03</pdfrwt>
<totfact> 0.36497183E+03</totfact>
</mgrwt>
</event>
<event>
 8    1  0.1646661E-005  0.1256858E+03  0.7546771E-02  0.1249505E+00
         -2   -1    0    0    0  501 -0.00000000000E+00  0.00000000000E+00  0.20011068712E+02  0.20011068712E+02  0.00000000000E+00 0.  1.
          2   -1    0    0  501    0  0.00000000000E+00 -0.00000000000E+00 -0.59117871840E+03  0.59117871840E+03  0.00000000000E+00 0. -1.
         23    2    1    2    0    0  0.13115235450E+02 -0.31547792147E+00 -0.32517687221E+03  0.34862144508E+03  0.12499921928E+03 0.  0.
         23    2    1    2    0    0 -0.13115235450E+02  0.31547792147E+00 -0.24599077748E+03  0.26256834204E+03  0.90876634548E+02 0.  0.
          5    1    3    3  502    0  0.46779246312E+02  0.30372620395E+02 -0.71289207398E+02  0.90636830520E+02  0.47000000000E+01 0. -1.
         -5    1    3    3    0  502 -0.33664010862E+02 -0.30688098316E+02 -0.25388766481E+03  0.25798461456E+03  0.47000000000E+01 0. -1.
        -11    1    4    4    0    0 -0.14576910745E+02 -0.40740664556E+02 -0.17753023809E+03  0.18272732010E+03  0.00000000000E+00 0.  1.
         11    1    4    4    0    0  0.14616752950E+01  0.41056142478E+02 -0.68460539394E+02  0.79841021937E+02  0.00000000000E+00 0. -1.
<mgrwt>
<rscale>  0 0.11619766E+03</rscale>
<asrwt>0</asrwt>
<pdfrwt beam="2">  1        2 0.90950568E-01 0.12568577E+03</pdfrwt>
<pdfrwt beam="1">  1       -2 0.30786261E-02 0.12568577E+03</pdfrwt>
<totfact> 0.19610904E+04</totfact>
</mgrwt>
</event>
<event>
 8    1  0.1646661E-005  0.1540951E+03  0.7546771E-02  0.1204403E+00
          3   -1    0    0  501    0  0.00000000000E+00  0.00000000000E+00  0.18404811265E+03  0.18404811265E+03  0.00000000000E+00 0.  1.
         -3   -1    0    0    0  501 -0.00000000000E+00 -0.00000000000E+00 -0.13682316458E+03  0.13682316458E+03  0.00000000000E+00 0. -1.
         23    2    1    2    0    0 -0.60926169543E+02 -0.66392570726E+02 -0.48747971838E+02  0.16162199644E+03  0.12500133357E+03 0.  0.
         23    2    1    2    0    0  0.60926169543E+02  0.66392570726E+02  0.95972919905E+02  0.15924928078E+03  0.89607814905E+02 0.  0.
          5    1    3    3  502    0  0.24194373532E+02 -0.64245213711E+02 -0.20991325527E+02  0.71941232564E+02  0.47000000000E+01 0.  1.
         -5    1    3    3    0  502 -0.85120543075E+02 -0.21473570150E+01 -0.27756646310E+02  0.89680763879E+02  0.47000000000E+01 0.  1.
        -11    1    4    4    0    0  0.40995681511E+02  0.44118862513E+02  0.15896695238E+01  0.60246551612E+02  0.00000000000E+00 0. -1.
         11    1    4    4    0    0  0.19930488032E+02  0.22273708213E+02  0.94383250381E+02  0.99002729171E+02  0.00000000000E+00 0.  1.
<mgrwt>
<rscale>  0 0.14684584E+03</rscale>
<asrwt>0</asrwt>
<pdfrwt beam="1">  1        3 0.28315094E-01 0.15409512E+03</pdfrwt>
<pdfrwt beam="2">  1       -3 0.21049718E-01 0.15409512E+03</pdfrwt>
<totfact> 0.57772929E+02</totfact>
</mgrwt>
</event>
<event>
 8    1  0.1646661E-005  0.1365156E+03  0.7546771E-02  0.1229460E+00
         -1   -1    0    0    0  501 -0.00000000000E+00  0.00000000000E+00  0.60452302077E+02  0.60452302077E+02  0.00000000000E+00 0.  1.
          1   -1    0    0  501    0  0.00000000000E+00 -0.00000000000E+00 -0.32598768868E+03  0.32598768868E+03  0.00000000000E+00 0. -1.
         23    2    1    2    0    0  0.32655008934E+02  0.44095091759E+02 -0.49797278673E+02  0.14531438413E+03  0.12500309815E+03 0.  0.
         23    2    1    2    0    0 -0.32655008934E+02 -0.44095091759E+02 -0.21573810793E+03  0.24112560662E+03  0.92670924408E+02 0.  0.
          5    1    3    3  502    0 -0.39230788550E+02  0.48332104633E+02 -0.11021052179E+02  0.63392434088E+02  0.47000000000E+01 0. -1.
         -5    1    3    3    0  502  0.71885797484E+02 -0.42370128739E+01 -0.38776226494E+02  0.81921950044E+02  0.47000000000E+01 0. -1.
        -11    1    4    4    0    0  0.46579733546E+01  0.26990080767E+02 -0.57158703032E+02  0.63382004606E+02  0.00000000000E+00 0. -1.
         11    1    4    4    0    0 -0.37312982288E+02 -0.71085172526E+02 -0.15857940490E+03  0.17774360202E+03  0.00000000000E+00 0.  1.
<mgrwt>
<rscale>  0 0.12865820E+03</rscale>
<asrwt>0</asrwt>
<pdfrwt beam="2">  1        1 0.50151953E-01 0.13651557E+03</pdfrwt>
<pdfrwt beam="1">  1       -1 0.93003540E-02 0.13651557E+03</pdfrwt>
<totfact> 0.51591024E+03</totfact>
</mgrwt>
</event>
<event>
 7    1  0.1646661E-005  0.8193134E+03  0.7546771E-02  0.9532475E-01
         -1   -1    0    0    0  501 -0.00000000000E+00  0.00000000000E+00  0.24761689747E+03  0.24761689747E+03  0.00000000000E+00 0.  1.
          1   -1    0    0  501    0  0.00000000000E+00 -0.00000000000E+00 -0.67773482828E+03  0.67773482828E+03  0.00000000000E+00 0. -1.
         23    2    1    2    0    0 -0.25916507524E+02 -0.14156368088E+03 -0.56615685547E+03  0.59137956201E+03  0.92110044293E+02 0.  0.
          5    1    1    2  502    0  0.67422883964E+02  0.85197793250E+01 -0.61766547981E+02  0.91954490762E+02  0.47000000000E+01 0. -1.
         -5    1    1    2    0  502 -0.41506376441E+02  0.13304390155E+03  0.19780547264E+03  0.24201767297E+03  0.47000000000E+01 0.  1.
        -11    1    3    3    0    0  0.19909667805E+02 -0.16962241030E+00 -0.40761172181E+02  0.45364047454E+02  0.00000000000E+00 0.  1.
         11    1    3    3    0    0 -0.45826175328E+02 -0.14139405847E+03 -0.52539568329E+03  0.54601551455E+03  0.00000000000E+00 0. -1.
<mgrwt>
<rscale>  0 0.81931336E+03</rscale>
<asrwt>0</asrwt>
<pdfrwt beam="2">  1        1 0.10426689E+00 0.81931336E+03</pdfrwt>
<pdfrwt beam="1">  1       -1 0.38094908E-01 0.81931336E+03</pdfrwt>
<totfact> 0.19237302E+02</totfact>
</mgrwt>
</event>
<event>
 8    1  0.1646661E-005  0.1360358E+03  0.7546771E-02  0.1230345E+00
         -1   -1    0    0    0  501 -0.00000000000E+00  0.00000000000E+00  0.30545061893E+02  0.30545061893E+02  0.00000000000E+00 0.  1.
          1   -1    0    0  501    0  0.00000000000E+00 -0.00000000000E+00 -0.48716731468E+03  0.48716731468E+03  0.00000000000E+00 0. -1.
         23    2    1    2    0    0 -0.33842474613E+02  0.41834566508E+02 -0.23148137211E+03  0.26849463896E+03  0.12494119207E+03 0.  0.
         23    2    1    2    0    0  0.33842474613E+02 -0.41834566508E+02 -0.22514088067E+03  0.24921773761E+03  0.92334286941E+02 0.  0.
          5    1    3    3  502    0 -0.34969242885E+02  0.83561719318E+02 -0.18370340803E+03  0.20487664827E+03  0.47000000000E+01 0. -1.
         -5    1    3    3    0  502  0.11267682713E+01 -0.41727152810E+02 -0.47777964076E+02  0.63617990691E+02  0.47000000000E+01 0. -1.
        -11    1    4    4    0    0 -0.30144764123E+02 -0.17984693406E+01 -0.48601673699E+02  0.57219437103E+02  0.00000000000E+00 0.  1.
         11    1    4    4    0    0  0.63987238736E+02 -0.40036097167E+02 -0.17653920697E+03  0.19199830050E+03  0.00000000000E+00 0. -1.
<mgrwt>
<rscale>  0 0.12807174E+03</rscale>
<asrwt>0</asrwt>
<pdfrwt beam="2">  1        1 0.74948814E-01 0.13603582E+03</pdfrwt>
<pdfrwt beam="1">  1       -1 0.46992405E-02 0.13603582E+03</pdfrwt>
<totfact> 0.86228533E+03</totfact>
</mgrwt>
</event>
<event>
 8    1  0.1646661E-005  0.4494127E+03  0.7546771E-02  0.1028485E+00
          2   -1    0    0  501    0  0.00000000000E+00  0.00000000000E+00  0.45024418871E+03  0.45024418871E+03  0.00000000000E+00 0.  1.
         -2   -1    0    0    0  501 -0.00000000000E+00 -0.00000000000E+00 -0.44172958700E+03  0.44172958700E+03  0.00000000000E+00 0. -1.
         23    2    1    2    0    0 -0.42611855469E+03 -0.69068720173E+02  0.24423494618E+02  0.45007581619E+03  0.12499688984E+03 0.  0.
         23    2    1    2    0    0  0.42611855469E+03  0.69068720173E+02 -0.15908892915E+02  0.44189795952E+03  0.93130032746E+02 0.  0.
          5    1    3    3  502    0 -0.58252825738E+02 -0.45482438952E+02 -0.24923861557E+02  0.78136629274E+02  0.47000000000E+01 0.  1.
         -5    1    3    3    0  502 -0.36786572895E+03 -0.23586281221E+02  0.49347356175E+02  0.37193918691E+03  0.47000000000E+01 0.  1.
        -11    1    4    4    0    0  0.37282243356E+03  0.64410306868E+02  0.17628332929E+02  0.37875587483E+03  0.00000000000E+00 0. -1.
         11    1    4    4    0    0  0.53296121130E+02  0.46584133047E+01 -0.33537225844E+02  0.63142084693E+02  0.00000000000E+00 0.  1.
<mgrwt>
<rscale>  0 0.44744954E+03</rscale>
<asrwt>0</asrwt>
<pdfrwt beam="1">  1        2 0.69268337E-01 0.44941265E+03</pdfrwt>
<pdfrwt beam="2">  1       -2 0.67958398E-01 0.44941265E+03</pdfrwt>
<totfact> 0.14157293E+02</totfact>
</mgrwt>
</event>
<event>
 8    1  0.1646661E-005  0.1261329E+03  0.7546771E-02  0.1243312E+00
         -2   -1    0    0    0  501 -0.00000000000E+00  0.00000000000E+00  0.55221187302E+02  0.55221187302E+02  0.00000000000E+00 0.  1.
          2   -1    0    0  501    0  0.00000000000E+00 -0.00000000000E+00 -0.24343722484E+03  0.24343722484E+03  0.00000000000E+00 0. -1.
         23    2    1    2    0    0 -0.13438679948E+02  0.10321845330E+02 -0.80129366073E+02  0.14943302859E+03  0.12498950402E+03 0.  0.
         23    2    1    2    0    0  0.13438679948E+02 -0.10321845330E+02 -0.10808667146E+03  0.14922538355E+03  0.10148077620E+03 0.  0.
          5    1    3    3  502    0 -0.38270668772E+02 -0.47778775659E+02 -0.50456986924E+02  0.79469824595E+02  0.47000000000E+01 0. -1.
         -5    1    3    3    0  502  0.24831988825E+02  0.58100620989E+02 -0.29672379150E+02  0.69963203991E+02  0.47000000000E+01 0. -1.
        -11    1    4    4    0    0 -0.18919834827E+01  0.10714735702E+02  0.17698270700E+02  0.20775320658E+02  0.00000000000E+00 0.  1.
         11    1    4    4    0    0  0.15330663430E+02 -0.21036581032E+02 -0.12578494216E+03  0.12845006289E+03  0.00000000000E+00 0. -1.
<mgrwt>
<rscale>  0 0.11986992E+03</rscale>
<asrwt>0</asrwt>
<pdfrwt beam="2">  1        2 0.37451880E-01 0.12613292E+03</pdfrwt>
<pdfrwt beam="1">  1       -2 0.84955674E-02 0.12613292E+03</pdfrwt>
<totfact> 0.11066133E+04</totfact>
</mgrwt>
</event>
<event>
 8    1  0.1646661E-005  0.1352732E+03  0.7546771E-02  0.1232218E+00
         -3   -1    0    0    0  501 -0.00000000000E+00  0.00000000000E+00  0.54819270976E+02  0.54819270976E+02  0.00000000000E+00 0.  1.
          3   -1    0    0  501    0  0.00000000000E+00 -0.00000000000E+00 -0.26467300982E+03  0.26467300982E+03  0.00000000000E+00 0. -1.
         23    2    1    2    0    0 -0.36691757269E+02  0.36432230935E+02 -0.10337809983E+03  0.17025239749E+03  0.12500101930E+03 0.  0.
         23    2    1    2    0    0  0.36691757269E+02 -0.36432230935E+02 -0.10647563902E+03  0.14923988331E+03  0.90894931446E+02 0.  0.
          5    1    3    3  502    0  0.26432788261E+02  0.51557904103E+02 -0.84362076993E+02  0.10244979163E+03  0.47000000000E+01 0.  1.
         -5    1    3    3    0  502 -0.63124545530E+02 -0.15125673168E+02 -0.19016022835E+02  0.67802605861E+02  0.47000000000E+01 0.  1.
        -11    1    4    4    0    0  0.12102358507E+02  0.21574631208E+02 -0.74675064652E+02  0.78665729984E+02  0.00000000000E+00 0. -1.
         11    1    4    4    0    0  0.24589398762E+02 -0.58006862143E+02 -0.31800574367E+02  0.70574153323E+02  0.00000000000E+00 0.  1.
<mgrwt>
<rscale>  0 0.12684216E+03</rscale>
<asrwt>0</asrwt>
<pdfrwt beam="2">  1        3 0.40718925E-01 0.13527323E+03</pdfrwt>
<pdfrwt beam="1">  1       -3 0.84337339E-02 0.13527323E+03</pdfrwt>
<totfact> 0.13496218E+03</totfact>
</mgrwt>
</event>
<event>
 8    1  0.1646661E-005  0.1290896E+03  0.7546771E-02  0.1246384E+00
          1   -1    0    0  501    0  0.00000000000E+00  0.00000000000E+00  0.64823007641E+03  0.64823007641E+03  0.00000000000E+00 0. -1.
         -1   -1    0    0    0  501 -0.00000000000E+00 -0.00000000000E+00 -0.26419766425E+02  0.26419766425E+02  0.00000000000E+00 0.  1.
         23    2    1    2    0    0 -0.24047533325E+02  0.21461757755E+02  0.16751725973E+03  0.21148559051E+03  0.12500092712E+03 0.  0.
         23    2    1    2    0    0  0.24047533325E+02 -0.21461757755E+02  0.45429305026E+03  0.46316425233E+03  0.84261843192E+02 0.  0.
          5    1    3    3  502    0 -0.34264147666E+02 -0.46457820087E+02  0.56878475541E+02  0.81176424179E+02  0.47000000000E+01 0. -1.
         -5    1    3    3    0  502  0.10216614341E+02  0.67919577842E+02  0.11063878419E+03  0.13030916633E+03  0.47000000000E+01 0. -1.
        -11    1    4    4    0    0 -0.26375691765E+02 -0.27242042858E+02  0.15315262425E+03  0.15777684345E+03  0.00000000000E+00 0. -1.
         11    1    4    4    0    0  0.50423225090E+02  0.57802851025E+01  0.30114042600E+03  0.30538740887E+03  0.00000000000E+00 0.  1.
<mgrwt>
<rscale>  0 0.11802920E+03</rscale>
<asrwt>0</asrwt>
<pdfrwt beam="1">  1        1 0.99727692E-01 0.12908959E+03</pdfrwt>
<pdfrwt beam="2">  1       -1 0.40645799E-02 0.12908959E+03</pdfrwt>
<totfact> 0.72579625E+03</totfact>
</mgrwt>
</event>
<event>
 8    1  0.1646661E-005  0.1720001E+03  0.7546771E-02  0.1182484E+00
         -1   -1    0    0    0  501 -0.00000000000E+00  0.00000000000E+00  0.19201766883E+03  0.19201766883E+03  0.00000000000E+00 0.  1.
          1   -1    0    0  501    0  0.00000000000E+00 -0.00000000000E+00 -0.13349734156E+03  0.13349734156E+03  0.00000000000E+00 0. -1.
         23    2    1    2    0    0  0.77954194937E+02  0.88780212587E+02  0.38638732532E+02  0.17628669574E+03  0.12500105915E+03 0.  0.
         23    2    1    2    0    0 -0.77954194937E+02 -0.88780212587E+02  0.19881594736E+02  0.14922831464E+03  0.88966451130E+02 0.  0.
          5    1    3    3  502    0  0.49382747367E+02  0.41156511141E+02  0.82974244984E+02  0.10506821345E+03  0.47000000000E+01 0. -1.
         -5    1    3    3    0  502  0.28571447570E+02  0.47623701445E+02 -0.44335512452E+02  0.71218482292E+02  0.47000000000E+01 0. -1.
        -11    1    4    4    0    0 -0.71549729017E+02 -0.10227528585E+03  0.57741325526E+00  0.12481959471E+03  0.00000000000E+00 0. -1.
         11    1    4    4    0    0 -0.64044659202E+01  0.13495073262E+02  0.19304181481E+02  0.24408719932E+02  0.00000000000E+00 0.  1.
<mgrwt>
<rscale>  0 0.16562930E+03</rscale>
<asrwt>0</asrwt>
<pdfrwt beam="2">  1        1 0.20538053E-01 0.17200014E+03</pdfrwt>
<pdfrwt beam="1">  1       -1 0.29541180E-01 0.17200014E+03</pdfrwt>
<totfact> 0.25350457E+03</totfact>
</mgrwt>
</event>
<event>
 8    1  0.1646661E-005  0.1893538E+03  0.7546771E-02  0.1163533E+00
         -2   -1    0    0    0  501 -0.00000000000E+00  0.00000000000E+00  0.39116535596E+02  0.39116535596E+02  0.00000000000E+00 0.  1.
          2   -1    0    0  501    0  0.00000000000E+00 -0.00000000000E+00 -0.12030402126E+04  0.12030402126E+04  0.00000000000E+00 0. -1.
         23    2    1    2    0    0  0.12768016013E+03 -0.62668269860E+02 -0.25643435577E+03  0.31876865490E+03  0.12500136475E+03 0.  0.
         23    2    1    2    0    0 -0.12768016013E+03  0.62668269860E+02 -0.90748932125E+03  0.92338809331E+03  0.94229333821E+02 0.  0.
          5    1    3    3  502    0  0.21852086792E+02 -0.36829245884E+02 -0.33698173710E+01  0.43212876769E+02  0.47000000000E+01 0. -1.
         -5    1    3    3    0  502  0.10582807334E+03 -0.25839023976E+02 -0.25306453840E+03  0.27555577813E+03  0.47000000000E+01 0. -1.
        -11    1    4    4    0    0 -0.81202516509E+02  0.86247076129E+02 -0.62119473486E+03  0.63238857156E+03  0.00000000000E+00 0.  1.
         11    1    4    4    0    0 -0.46477643618E+02 -0.23578806270E+02 -0.28629458639E+03  0.29099952175E+03  0.00000000000E+00 0. -1.
<mgrwt>
<rscale>  0 0.18448389E+03</rscale>
<asrwt>0</asrwt>
<pdfrwt beam="2">  1        2 0.18508312E+00 0.18935384E+03</pdfrwt>
<pdfrwt beam="1">  1       -2 0.60179284E-02 0.18935384E+03</pdfrwt>
<totfact> 0.29179961E+03</totfact>
</mgrwt>
</event>
<event>
 8    1  0.1646661E-005  0.1367404E+03  0.7546771E-02  0.1229218E+00
          1   -1    0    0  501    0  0.00000000000E+00  0.00000000000E+00  0.35826664693E+03  0.35826664693E+03  0.00000000000E+00 0. -1.
         -1   -1    0    0    0  501 -0.00000000000E+00 -0.00000000000E+00 -0.57117028697E+02  0.57117028697E+02  0.00000000000E+00 0.  1.
         23    2    1    2    0    0  0.54850712501E+02 -0.80099346936E+01  0.56272243835E+02  0.14786647876E+03  0.12500068160E+03 0.  0.
         23    2    1    2    0    0 -0.54850712501E+02  0.80099346936E+01  0.24487737440E+03  0.26751719686E+03  0.92345884641E+02 0.  0.
          5    1    3    3  502    0  0.79788835012E+02  0.27362883610E+02  0.11230036389E+02  0.85224346928E+02  0.47000000000E+01 0.  1.
         -5    1    3    3    0  502 -0.24938122511E+02 -0.35372818304E+02  0.45042207446E+02  0.62642131834E+02  0.47000000000E+01 0.  1.
        -11    1    4    4    0    0 -0.58566487681E+02 -0.31869860318E+02  0.13501264473E+03  0.15057933362E+03  0.00000000000E+00 0. -1.
         11    1    4    4    0    0  0.37157751803E+01  0.39879795011E+02  0.10986472966E+03  0.11693786324E+03  0.00000000000E+00 0.  1.
<mgrwt>
<rscale>  0 0.12881970E+03</rscale>
<asrwt>0</asrwt>
<pdfrwt beam="1">  1        1 0.55117945E-01 0.13674037E+03</pdfrwt>
<pdfrwt beam="2">  1       -1 0.87872354E-02 0.13674037E+03</pdfrwt>
<totfact> 0.49997315E+03</totfact>
</mgrwt>
</event>
<event>
 8    1  0.1646661E-005  0.1341560E+03  0.7546771E-02  0.1231925E+00
         -2   -1    0    0    0  501 -0.00000000000E+00  0.00000000000E+00  0.27365328021E+02  0.27365328021E+02  0.00000000000E+00 0.  1.
          2   -1    0    0  501    0  0.00000000000E+00 -0.00000000000E+00 -0.55267830617E+03  0.55267830617E+03  0.00000000000E+00 0. -1.
         23    2    1    2    0    0  0.39421030865E+02 -0.28604587322E+02 -0.34175401791E+03  0.36714254910E+03  0.12500241004E+03 0.  0.
         23    2    1    2    0    0 -0.39421030865E+02  0.28604587322E+02 -0.18355896024E+03  0.21290108509E+03  0.96232739006E+02 0.  0.
          5    1    3    3  502    0  0.26027958837E+02  0.47067973339E+02 -0.10316707409E+03  0.11644047377E+03  0.47000000000E+01 0. -1.
         -5    1    3    3    0  502  0.13393072027E+02 -0.75672560661E+02 -0.23858694381E+03  0.25070207533E+03  0.47000000000E+01 0. -1.
        -11    1    4    4    0    0 -0.57198163533E+02 -0.86060009201E+01 -0.63200986608E+02  0.85674137705E+02  0.00000000000E+00 0. -1.
         11    1    4    4    0    0  0.17777132668E+02  0.37210588242E+02 -0.12035797363E+03  0.12722694738E+03  0.00000000000E+00 0.  1.
<mgrwt>
<rscale>  0 0.12703373E+03</rscale>
<asrwt>0</asrwt>
<pdfrwt beam="2">  1        2 0.85027432E-01 0.13415604E+03</pdfrwt>
<pdfrwt beam="1">  1       -2 0.42100505E-02 0.13415604E+03</pdfrwt>
<totfact> 0.13388254E+04</totfact>
</mgrwt>
</event>
<event>
 8    1  0.1646661E-005  0.1639833E+03  0.7546771E-02  0.1190547E+00
         -2   -1    0    0    0  501 -0.00000000000E+00  0.00000000000E+00  0.44911405637E+02  0.44911405637E+02  0.00000000000E+00 0.  1.
          2   -1    0    0  501    0  0.00000000000E+00 -0.00000000000E+00 -0.52625078232E+03  0.52625078232E+03  0.00000000000E+00 0. -1.
         23    2    1    2    0    0  0.10508084481E+03  0.14901871521E+02 -0.27815233610E+03  0.32289200640E+03  0.12500590385E+03 0.  0.
         23    2    1    2    0    0 -0.10508084481E+03 -0.14901871521E+02 -0.20318704058E+03  0.24827018156E+03  0.95336561038E+02 0.  0.
          5    1    3    3  502    0  0.45402491207E+02  0.11505549377E+02 -0.25387821346E+03  0.25820534685E+03  0.47000000000E+01 0. -1.
         -5    1    3    3    0  502  0.59678353604E+02  0.33963221437E+01 -0.24274122642E+02  0.64686659544E+02  0.47000000000E+01 0. -1.
        -11    1    4    4    0    0 -0.15489657562E+02  0.23739302460E+02 -0.70563338677E+01  0.29210885306E+02  0.00000000000E+00 0.  1.
         11    1    4    4    0    0 -0.89591187248E+02 -0.38641173981E+02 -0.19613070671E+03  0.21905929625E+03  0.00000000000E+00 0. -1.
<mgrwt>
<rscale>  0 0.15837207E+03</rscale>
<asrwt>0</asrwt>
<pdfrwt beam="2">  1        2 0.80961656E-01 0.16398331E+03</pdfrwt>
<pdfrwt beam="1">  1       -2 0.69094473E-02 0.16398331E+03</pdfrwt>
<totfact> 0.67750269E+03</totfact>
</mgrwt>
</event>
<event>
 8    1  0.1646661E-005  0.1586646E+03  0.7546771E-02  0.1196592E+00
          1   -1    0    0  501    0  0.00000000000E+00  0.00000000000E+00  0.54079749917E+03  0.54079749917E+03  0.00000000000E+00 0. -1.
         -1   -1    0    0    0  501 -0.00000000000E+00 -0.00000000000E+00 -0.41495592136E+02  0.41495592136E+02  0.00000000000E+00 0.  1.
         23    2    1    2    0    0  0.69226791042E+02 -0.68975749843E+02  0.22561807975E+03  0.27582235010E+03  0.12499779293E+03 0.  0.
         23    2    1    2    0    0 -0.69226791042E+02  0.68975749843E+02  0.27368382728E+03  0.30647074121E+03  0.97321504499E+02 0.  0.
          5    1    3    3  502    0  0.56659424584E+02 -0.67784967805E+02  0.24019753913E+03  0.25597273304E+03  0.47000000000E+01 0.  1.
         -5    1    3    3    0  502  0.12567366458E+02 -0.11907820380E+01 -0.14579459379E+02  0.19849617058E+02  0.47000000000E+01 0.  1.
        -11    1    4    4    0    0 -0.93042482745E+02  0.49764447439E+02  0.18945384367E+03  0.21685516528E+03  0.00000000000E+00 0. -1.
         11    1    4    4    0    0  0.23815691703E+02  0.19211302404E+02  0.84229983611E+02  0.89615575937E+02  0.00000000000E+00 0.  1.
<mgrwt>
<rscale>  0 0.15320239E+03</rscale>
<asrwt>0</asrwt>
<pdfrwt beam="1">  1        1 0.83199610E-01 0.15866459E+03</pdfrwt>
<pdfrwt beam="2">  1       -1 0.63839376E-02 0.15866459E+03</pdfrwt>
<totfact> 0.48069523E+03</totfact>
</mgrwt>
</event>
<event>
 8    1  0.1646661E-005  0.1689090E+03  0.7546771E-02  0.1185295E+00
          3   -1    0    0  501    0  0.00000000000E+00  0.00000000000E+00  0.62120268211E+03  0.62120268211E+03  0.00000000000E+00 0. -1.
         -3   -1    0    0    0  501 -0.00000000000E+00 -0.00000000000E+00 -0.49943949879E+02  0.49943949879E+02  0.00000000000E+00 0.  1.
         23    2    1    2    0    0  0.76507342476E+02  0.83971152213E+02  0.15293988159E+03  0.22786150957E+03  0.12500292919E+03 0.  0.
         23    2    1    2    0    0 -0.76507342476E+02 -0.83971152213E+02  0.41831885064E+03  0.44328512242E+03  0.92771283813E+02 0.  0.
          5    1    3    3  502    0  0.55986827695E+02  0.10281788088E+03  0.16040147733E+03  0.19863727101E+03  0.47000000000E+01 0. -1.
         -5    1    3    3    0  502  0.20520514781E+02 -0.18846728663E+02 -0.74615957459E+01  0.29224238557E+02  0.47000000000E+01 0. -1.
        -11    1    4    4    0    0 -0.96371724667E+02 -0.59499619973E+02  0.29479602053E+03  0.31580438219E+03  0.00000000000E+00 0. -1.
         11    1    4    4    0    0  0.19864382191E+02 -0.24471532241E+02  0.12352283011E+03  0.12748074023E+03  0.00000000000E+00 0.  1.
<mgrwt>
<rscale>  0 0.16305057E+03</rscale>
<asrwt>0</asrwt>
<pdfrwt beam="1">  1        3 0.95569638E-01 0.16890903E+03</pdfrwt>
<pdfrwt beam="2">  1       -3 0.76836850E-02 0.16890903E+03</pdfrwt>
<totfact> 0.27447885E+02</totfact>
</mgrwt>
</event>
<event>
 8    1  0.1646661E-005  0.2221941E+03  0.7546771E-02  0.1133277E+00
         -1   -1    0    0    0  501 -0.00000000000E+00  0.00000000000E+00  0.60754771549E+03  0.60754771549E+03  0.00000000000E+00 0.  1.
          1   -1    0    0  501    0  0.00000000000E+00 -0.00000000000E+00 -0.81956710896E+02  0.81956710896E+02  0.00000000000E+00 0. -1.
         23    2    1    2    0    0  0.13410648910E+03  0.12548585070E+03  0.32831602670E+03  0.39643616332E+03  0.12505586374E+03 0.  0.
         23    2    1    2    0    0 -0.13410648910E+03 -0.12548585070E+03  0.19727497789E+03  0.29306826306E+03  0.11506667966E+03 0.  0.
          5    1    3    3  502    0  0.14118305103E+03  0.11933003501E+03  0.33593752644E+03  0.38346893332E+03  0.47000000000E+01 0. -1.
         -5    1    3    3    0  502 -0.70765619347E+01  0.61558156943E+01 -0.76214997357E+01  0.12967230001E+02  0.47000000000E+01 0. -1.
        -11    1    4    4    0    0 -0.90398674552E+01 -0.71642922978E+02  0.32155471520E+02  0.79046833998E+02  0.00000000000E+00 0.  1.
         11    1    4    4    0    0 -0.12506662164E+03 -0.53842927724E+02  0.16511950637E+03  0.21402142906E+03  0.00000000000E+00 0. -1.
<mgrwt>
<rscale>  0 0.22081512E+03</rscale>
<asrwt>0</asrwt>
<pdfrwt beam="2">  1        1 0.12608725E-01 0.22219410E+03</pdfrwt>
<pdfrwt beam="1">  1       -1 0.93468876E-01 0.22219410E+03</pdfrwt>
<totfact> 0.54990464E+02</totfact>
</mgrwt>
</event>
<event>
 8    1  0.1646661E-005  0.1369227E+03  0.7546771E-02  0.1229425E+00
          3   -1    0    0  501    0  0.00000000000E+00  0.00000000000E+00  0.76753661922E+03  0.76753661922E+03  0.00000000000E+00 0. -1.
         -3   -1    0    0    0  501 -0.00000000000E+00 -0.00000000000E+00 -0.19543384056E+02  0.19543384056E+02  0.00000000000E+00 0.  1.
         23    2    1    2    0    0  0.54347488060E+02 -0.12953507869E+02  0.38094616703E+03  0.40480589353E+03  0.12500554562E+03 0.  0.
         23    2    1    2    0    0 -0.54347488060E+02  0.12953507869E+02  0.36704706814E+03  0.38227410975E+03  0.91041210083E+02 0.  0.
          5    1    3    3  502    0 -0.26873452784E+02 -0.41729112201E+02  0.16074500657E+03  0.16829898517E+03  0.47000000000E+01 0. -1.
         -5    1    3    3    0  502  0.81220940844E+02  0.28775604331E+02  0.22020116046E+03  0.23650690836E+03  0.47000000000E+01 0. -1.
        -11    1    4    4    0    0 -0.36556944266E+01 -0.36055083500E+02  0.11819947169E+03  0.12363028859E+03  0.00000000000E+00 0.  1.
         11    1    4    4    0    0 -0.50691793633E+02  0.49008591369E+02  0.24884759644E+03  0.25864382116E+03  0.00000000000E+00 0. -1.
<mgrwt>
<rscale>  0 0.12868178E+03</rscale>
<asrwt>0</asrwt>
<pdfrwt beam="1">  1        3 0.11808253E+00 0.13692271E+03</pdfrwt>
<pdfrwt beam="2">  1       -3 0.30066751E-02 0.13692271E+03</pdfrwt>
<totfact> 0.72541946E+02</totfact>
</mgrwt>
</event>
<event>
 8    1  0.1646661E-005  0.1440932E+03  0.7546771E-02  0.1217846E+00
          1   -1    0    0  501    0  0.00000000000E+00  0.00000000000E+00  0.59306930226E+03  0.59306930226E+03  0.00000000000E+00 0. -1.
         -1   -1    0    0    0  501 -0.00000000000E+00 -0.00000000000E+00 -0.30178483267E+02  0.30178483267E+02  0.00000000000E+00 0.  1.
         23    2    1    2    0    0 -0.34975461819E+02  0.62605002034E+02  0.24023628544E+03  0.28013623503E+03  0.12498067100E+03 0.  0.
         23    2    1    2    0    0  0.34975461819E+02 -0.62605002034E+02  0.32265453355E+03  0.34311155050E+03  0.92070184400E+02 0.  0.
          5    1    3    3  502    0  0.22078143767E+02  0.50218087854E+02  0.31702541031E+02  0.63532998416E+02  0.47000000000E+01 0. -1.
         -5    1    3    3    0  502 -0.57053605585E+02  0.12386914180E+02  0.20853374441E+03  0.21660323662E+03  0.47000000000E+01 0. -1.
        -11    1    4    4    0    0  0.52962261628E+02 -0.24426584652E+02  0.94218150587E+02  0.11080938180E+03  0.00000000000E+00 0.  1.
         11    1    4    4    0    0 -0.17986799809E+02 -0.38178417382E+02  0.22843638296E+03  0.23230216870E+03  0.00000000000E+00 0. -1.
<mgrwt>
<rscale>  0 0.13669512E+03</rscale>
<asrwt>0</asrwt>
<pdfrwt beam="1">  1        1 0.91241423E-01 0.14409316E+03</pdfrwt>
<pdfrwt beam="2">  1       -1 0.46428440E-02 0.14409316E+03</pdfrwt>
<totfact> 0.67854610E+03</totfact>
</mgrwt>
</event>
<event>
 8    1  0.1646661E-005  0.1628529E+03  0.7546771E-02  0.1194285E+00
          1   -1    0    0  501    0  0.00000000000E+00  0.00000000000E+00  0.13382069393E+03  0.13382069393E+03  0.00000000000E+00 0. -1.
         -1   -1    0    0    0  501 -0.00000000000E+00 -0.00000000000E+00 -0.17930811314E+03  0.17930811314E+03  0.00000000000E+00 0.  1.
         23    2    1    2    0    0 -0.10117846649E+03  0.25630781582E+02 -0.69106867527E+02  0.17690909606E+03  0.12500820007E+03 0.  0.
         23    2    1    2    0    0  0.10117846649E+03 -0.25630781582E+02  0.23619448314E+02  0.13621971101E+03  0.84284709665E+02 0.  0.
          5    1    3    3  502    0  0.27325027719E+02  0.16354876216E+02 -0.24619092848E+02  0.40525656670E+02  0.47000000000E+01 0. -1.
         -5    1    3    3    0  502 -0.12850349421E+03  0.92759053662E+01 -0.44487774680E+02  0.13638343939E+03  0.47000000000E+01 0. -1.
        -11    1    4    4    0    0 -0.11287169595E+02  0.40074076259E+01 -0.95034427559E+01  0.15289700375E+02  0.00000000000E+00 0. -1.
         11    1    4    4    0    0  0.11246563609E+03 -0.29638189208E+02  0.33122891070E+02  0.12093001064E+03  0.00000000000E+00 0.  1.
<mgrwt>
<rscale>  0 0.15514917E+03</rscale>
<asrwt>0</asrwt>
<pdfrwt beam="1">  1        1 0.20587799E-01 0.16285291E+03</pdfrwt>
<pdfrwt beam="2">  1       -1 0.27585864E-01 0.16285291E+03</pdfrwt>
<totfact> 0.28285817E+03</totfact>
</mgrwt>
</event>
<event>
 8    1  0.1646661E-005  0.1393438E+03  0.7546771E-02  0.1225990E+00
         -1   -1    0    0    0  501 -0.00000000000E+00  0.00000000000E+00  0.99562964496E+02  0.99562964496E+02  0.00000000000E+00 0.  1.
          1   -1    0    0  501    0  0.00000000000E+00 -0.00000000000E+00 -0.33451109527E+03  0.33451109527E+03  0.00000000000E+00 0. -1.
         23    2    1    2    0    0  0.52762740127E+02 -0.31754354869E+02  0.34438902830E+02  0.14353652007E+03  0.12499779505E+03 0.  0.
         23    2    1    2    0    0 -0.52762740127E+02  0.31754354869E+02 -0.26938703360E+03  0.29053753969E+03  0.89724257018E+02 0.  0.
          5    1    3    3  502    0  0.56578180461E+02 -0.55749660706E+02 -0.21453719933E+02  0.82410359010E+02  0.47000000000E+01 0. -1.
         -5    1    3    3    0  502 -0.38154403346E+01  0.23995305836E+02  0.55892622763E+02  0.61126161064E+02  0.47000000000E+01 0. -1.
        -11    1    4    4    0    0 -0.18816897764E+02  0.47794614033E+02 -0.23175683084E+03  0.23738076883E+03  0.00000000000E+00 0. -1.
         11    1    4    4    0    0 -0.33945842363E+02 -0.16040259164E+02 -0.37630202762E+02  0.53156770855E+02  0.00000000000E+00 0.  1.
<mgrwt>
<rscale>  0 0.13099268E+03</rscale>
<asrwt>0</asrwt>
<pdfrwt beam="2">  1        1 0.51463245E-01 0.13934380E+03</pdfrwt>
<pdfrwt beam="1">  1       -1 0.15317379E-01 0.13934380E+03</pdfrwt>
<totfact> 0.23148185E+03</totfact>
</mgrwt>
</event>
<event>
 8    1  0.1646661E-005  0.2018963E+03  0.7546771E-02  0.1152335E+00
          2   -1    0    0  501    0  0.00000000000E+00  0.00000000000E+00  0.79537548711E+03  0.79537548711E+03  0.00000000000E+00 0. -1.
         -2   -1    0    0    0  501 -0.00000000000E+00 -0.00000000000E+00 -0.46674119742E+02  0.46674119742E+02  0.00000000000E+00 0.  1.
         23    2    1    2    0    0 -0.98559187554E+02 -0.12419314205E+03  0.36914193036E+03  0.42074679269E+03  0.12499699525E+03 0.  0.
         23    2    1    2    0    0  0.98559187554E+02  0.12419314205E+03  0.37955943700E+03  0.42130281416E+03  0.91065059264E+02 0.  0.
          5    1    3    3  502    0 -0.13127835960E+02 -0.22855752944E+02 -0.17743409591E+01  0.26832141276E+02  0.47000000000E+01 0. -1.
         -5    1    3    3    0  502 -0.85431351594E+02 -0.10133738911E+03  0.37091627132E+03  0.39391465141E+03  0.47000000000E+01 0. -1.
        -11    1    4    4    0    0  0.11415746960E+03  0.11468094425E+03  0.31395092624E+03  0.35319800527E+03  0.00000000000E+00 0. -1.
         11    1    4    4    0    0 -0.15598282043E+02  0.95121977981E+01  0.65608510766E+02  0.68104808895E+02  0.00000000000E+00 0.  1.
<mgrwt>
<rscale>  0 0.19695381E+03</rscale>
<asrwt>0</asrwt>
<pdfrwt beam="1">  1        2 0.12236545E+00 0.20189626E+03</pdfrwt>
<pdfrwt beam="2">  1       -2 0.71806344E-02 0.20189626E+03</pdfrwt>
<totfact> 0.39585342E+03</totfact>
</mgrwt>
</event>
<event>
 8    1  0.1646661E-005  0.1735163E+03  0.7546771E-02  0.1180383E+00
         -2   -1    0    0    0  501 -0.00000000000E+00  0.00000000000E+00  0.76850181290E+02  0.76850181290E+02  0.00000000000E+00 0.  1.
          2   -1    0    0  501    0  0.00000000000E+00 -0.00000000000E+00 -0.41588186796E+03  0.41588186796E+03  0.00000000000E+00 0. -1.
         23    2    1    2    0    0  0.73116875657E+02  0.95584444250E+02 -0.75985904136E+02  0.18942483167E+03  0.12500178293E+03 0.  0.
         23    2    1    2    0    0 -0.73116875657E+02 -0.95584444250E+02 -0.26304578253E+03  0.30330721758E+03  0.91212504843E+02 0.  0.
          5    1    3    3  502    0 -0.25809580971E+02  0.42707598206E+02 -0.56411614515E+02  0.75461471405E+02  0.47000000000E+01 0. -1.
         -5    1    3    3    0  502  0.98926456628E+02  0.52876846044E+02 -0.19574289622E+02  0.11396336026E+03  0.47000000000E+01 0. -1.
        -11    1    4    4    0    0 -0.38951304383E+02  0.91711321382E+01 -0.56915010542E+02  0.69574652014E+02  0.00000000000E+00 0.  1.
         11    1    4    4    0    0 -0.34165571273E+02 -0.10475557639E+03 -0.20613077199E+03  0.23373256556E+03  0.00000000000E+00 0. -1.
<mgrwt>
<rscale>  0 0.16759161E+03</rscale>
<asrwt>0</asrwt>
<pdfrwt beam="2">  1        2 0.63981825E-01 0.17351631E+03</pdfrwt>
<pdfrwt beam="1">  1       -2 0.11823105E-01 0.17351631E+03</pdfrwt>
<totfact> 0.37884431E+03</totfact>
</mgrwt>
</event>
<event>
 8    1  0.1646661E-005  0.1302015E+03  0.7546771E-02  0.1240724E+00
          2   -1    0    0  501    0  0.00000000000E+00  0.00000000000E+00  0.32949607625E+02  0.32949607625E+02  0.00000000000E+00 0. -1.
         -2   -1    0    0    0  501 -0.00000000000E+00 -0.00000000000E+00 -0.45172935252E+03  0.45172935252E+03  0.00000000000E+00 0.  1.
         23    2    1    2    0    0  0.28711244663E+02 -0.22379759650E+02 -0.31841106315E+03  0.34400296656E+03  0.12500898630E+03 0.  0.
         23    2    1    2    0    0 -0.28711244663E+02  0.22379759650E+02 -0.10036868174E+03  0.14067599358E+03  0.91600620538E+02 0.  0.
          5    1    3    3  502    0 -0.33005453691E+01  0.27526121717E+02 -0.98994380474E+01  0.29810566082E+02  0.47000000000E+01 0.  1.
         -5    1    3    3    0  502  0.32011790032E+02 -0.49905881367E+02 -0.30851162510E+03  0.31419240048E+03  0.47000000000E+01 0.  1.
        -11    1    4    4    0    0  0.23737860924E+02  0.27143871957E+01  0.20083826023E+01  0.23976812544E+02  0.00000000000E+00 0. -1.
         11    1    4    4    0    0 -0.52449105587E+02  0.19665372455E+02 -0.10237706434E+03  0.11669918104E+03  0.00000000000E+00 0.  1.
<mgrwt>
<rscale>  0 0.12144991E+03</rscale>
<asrwt>0</asrwt>
<pdfrwt beam="1">  1        2 0.50691705E-02 0.13020152E+03</pdfrwt>
<pdfrwt beam="2">  1       -2 0.69496822E-01 0.13020152E+03</pdfrwt>
<totfact> 0.28519852E+03</totfact>
</mgrwt>
</event>
<event>
 8    1  0.1646661E-005  0.1364186E+03  0.7546771E-02  0.1227836E+00
         -1   -1    0    0    0  501 -0.00000000000E+00  0.00000000000E+00  0.26062021598E+03  0.26062021598E+03  0.00000000000E+00 0.  1.
          1   -1    0    0  501    0  0.00000000000E+00 -0.00000000000E+00 -0.61338277526E+02  0.61338277526E+02  0.00000000000E+00 0. -1.
         23    2    1    2    0    0 -0.44947708131E+01 -0.58288382186E+02  0.14041235142E+03  0.19576941142E+03  0.12325703044E+03 0.  0.
         23    2    1    2    0    0  0.44947708131E+01  0.58288382186E+02  0.58869587027E+02  0.12618908209E+03  0.95080585287E+02 0.  0.
          5    1    3    3  502    0  0.50118004627E+02  0.72690521884E+01  0.56119015142E+02  0.75736961703E+02  0.47000000000E+01 0. -1.
         -5    1    3    3    0  502 -0.54612775440E+02 -0.65557434375E+02  0.84293336282E+02  0.12003244972E+03  0.47000000000E+01 0. -1.
        -11    1    4    4    0    0  0.13823871795E+01 -0.11634105470E+02  0.54844272187E+02  0.56081704647E+02  0.00000000000E+00 0.  1.
         11    1    4    4    0    0  0.31123836336E+01  0.69922487656E+02  0.40253148408E+01  0.70107377440E+02  0.00000000000E+00 0. -1.
<mgrwt>
<rscale>  0 0.12974376E+03</rscale>
<asrwt>0</asrwt>
<pdfrwt beam="2">  1        1 0.94366582E-02 0.13641860E+03</pdfrwt>
<pdfrwt beam="1">  1       -1 0.40095417E-01 0.13641860E+03</pdfrwt>
<totfact> 0.40890143E+03</totfact>
</mgrwt>
</event>
<event>
 8    1  0.1646661E-005  0.1405272E+03  0.7546771E-02  0.1222584E+00
         -1   -1    0    0    0  501 -0.00000000000E+00  0.00000000000E+00  0.87402337835E+02  0.87402337835E+02  0.00000000000E+00 0.  1.
          1   -1    0    0  501    0  0.00000000000E+00 -0.00000000000E+00 -0.20909723578E+03  0.20909723578E+03  0.00000000000E+00 0. -1.
         23    2    1    2    0    0 -0.28821877217E+02  0.61145334205E+02 -0.16577165261E+02  0.14150159488E+03  0.12320083784E+03 0.  0.
         23    2    1    2    0    0  0.28821877217E+02 -0.61145334205E+02 -0.10511773269E+03  0.15499797874E+03  0.91679786136E+02 0.  0.
          5    1    3    3  502    0 -0.10487585043E+02 -0.37086935985E+02  0.50430287993E+01  0.39152936037E+02  0.47000000000E+01 0. -1.
         -5    1    3    3    0  502 -0.18334292174E+02  0.98232270190E+02 -0.21620194060E+02  0.10234865884E+03  0.47000000000E+01 0.  1.
        -11    1    4    4    0    0  0.59285764085E+02 -0.58522388461E+02 -0.78321749443E+02  0.11434145447E+03  0.00000000000E+00 0. -1.
         11    1    4    4    0    0 -0.30463886868E+02 -0.26229457435E+01 -0.26795983243E+02  0.40656524267E+02  0.00000000000E+00 0.  1.
<mgrwt>
<rscale>  0 0.13333901E+03</rscale>
<asrwt>0</asrwt>
<pdfrwt beam="2">  1        1 0.32168805E-01 0.14052722E+03</pdfrwt>
<pdfrwt beam="1">  1       -1 0.13446514E-01 0.14052722E+03</pdfrwt>
<totfact> 0.50815954E+03</totfact>
</mgrwt>
</event>
<event>
 8    1  0.1646661E-005  0.1704706E+03  0.7546771E-02  0.1183886E+00
         -1   -1    0    0    0  501 -0.00000000000E+00  0.00000000000E+00  0.50672967422E+03  0.50672967422E+03  0.00000000000E+00 0.  1.
          1   -1    0    0  501    0  0.00000000000E+00 -0.00000000000E+00 -0.50615659353E+02  0.50615659353E+02  0.00000000000E+00 0. -1.
         23    2    1    2    0    0  0.81675086245E+02 -0.82245750422E+02  0.27984973346E+03  0.32768293774E+03  0.12500020478E+03 0.  0.
         23    2    1    2    0    0 -0.81675086245E+02  0.82245750422E+02  0.17626428140E+03  0.22966239582E+03  0.90777397968E+02 0.  0.
          5    1    3    3  502    0  0.57975164959E+02 -0.11150922427E+03  0.17001586457E+03  0.21147792096E+03  0.47000000000E+01 0. -1.
         -5    1    3    3    0  502  0.23699921286E+02  0.29263473843E+02  0.10983386889E+03  0.11620501678E+03  0.47000000000E+01 0. -1.
        -11    1    4    4    0    0 -0.29134154636E+02 -0.51479918212E+01  0.94302311886E+02  0.98834340252E+02  0.00000000000E+00 0.  1.
         11    1    4    4    0    0 -0.52540931610E+02  0.87393742244E+02  0.81961969517E+02  0.13082805557E+03  0.00000000000E+00 0. -1.
<mgrwt>
<rscale>  0 0.16433643E+03</rscale>
<asrwt>0</asrwt>
<pdfrwt beam="2">  1        1 0.77870248E-02 0.17047063E+03</pdfrwt>
<pdfrwt beam="1">  1       -1 0.77958408E-01 0.17047063E+03</pdfrwt>
<totfact> 0.15292991E+03</totfact>
</mgrwt>
</event>
<event>
 8    1  0.1646661E-005  0.1348719E+03  0.7546771E-02  0.1230073E+00
         -1   -1    0    0    0  501 -0.00000000000E+00  0.00000000000E+00  0.13753060019E+03  0.13753060019E+03  0.00000000000E+00 0.  1.
          1   -1    0    0  501    0  0.00000000000E+00 -0.00000000000E+00 -0.11258765014E+03  0.11258765014E+03  0.00000000000E+00 0. -1.
         23    2    1    2    0    0 -0.59977269824E+02 -0.60607931921E+01  0.35125478447E+02  0.13937078573E+03  0.12064995056E+03 0.  0.
         23    2    1    2    0    0  0.59977269824E+02  0.60607931921E+01 -0.10182528390E+02  0.11074746460E+03  0.92343440059E+02 0.  0.
          5    1    3    3  502    0 -0.10934644401E+02 -0.58845980280E+02  0.29646431804E+02  0.66958321081E+02  0.47000000000E+01 0. -1.
         -5    1    3    3    0  502 -0.49042625423E+02  0.52785187088E+02  0.54790466431E+01  0.72412464648E+02  0.47000000000E+01 0.  1.
        -11    1    4    4    0    0 -0.15731227388E+02  0.25805431117E+02  0.60962682786E+01  0.30831092702E+02  0.00000000000E+00 0.  1.
         11    1    4    4    0    0  0.75708497212E+02 -0.19744637925E+02 -0.16278796669E+02  0.79916371901E+02  0.00000000000E+00 0. -1.
<mgrwt>
<rscale>  0 0.12825183E+03</rscale>
<asrwt>0</asrwt>
<pdfrwt beam="2">  1        1 0.17321177E-01 0.13487185E+03</pdfrwt>
<pdfrwt beam="1">  1       -1 0.21158554E-01 0.13487185E+03</pdfrwt>
<totfact> 0.53959708E+03</totfact>
</mgrwt>
</event>
<event>
 8    1  0.1646661E-005  0.1406479E+03  0.7546771E-02  0.1215452E+00
         -1   -1    0    0    0  501 -0.00000000000E+00  0.00000000000E+00  0.41889193158E+03  0.41889193158E+03  0.00000000000E+00 0.  1.
          1   -1    0    0  501    0  0.00000000000E+00 -0.00000000000E+00 -0.48011702492E+02  0.48011702492E+02  0.00000000000E+00 0. -1.
         23    2    1    2    0    0  0.63789982880E+02 -0.93657979102E+01  0.25519042122E+03  0.29138288963E+03  0.12499982881E+03 0.  0.
         23    2    1    2    0    0 -0.63789982880E+02  0.93657979102E+01  0.11568980787E+03  0.17552074444E+03  0.11518038026E+03 0.  0.
          5    1    3    3  502    0  0.12174976795E+02  0.53970248763E+02  0.13502287520E+03  0.14599412536E+03  0.47000000000E+01 0.  1.
         -5    1    3    3    0  502  0.51615006085E+02 -0.63336046673E+02  0.12016754602E+03  0.14538876427E+03  0.47000000000E+01 0.  1.
        -11    1    4    4    0    0  0.11067060843E+02  0.41328578323E+02  0.70379281434E+02  0.82363672071E+02  0.00000000000E+00 0.  1.
         11    1    4    4    0    0 -0.74857043723E+02 -0.31962780413E+02  0.45310526440E+02  0.93157072372E+02  0.00000000000E+00 0. -1.
<mgrwt>
<rscale>  0 0.13843363E+03</rscale>
<asrwt>0</asrwt>
<pdfrwt beam="2">  1        1 0.73864160E-02 0.14064792E+03</pdfrwt>
<pdfrwt beam="1">  1       -1 0.64444910E-01 0.14064792E+03</pdfrwt>
<totfact> 0.23785322E+03</totfact>
</mgrwt>
</event>
<event>
 8    1  0.1646661E-005  0.1336581E+03  0.7546771E-02  0.1238571E+00
         -2   -1    0    0    0  501 -0.00000000000E+00  0.00000000000E+00  0.30670944537E+03  0.30670944537E+03  0.00000000000E+00 0.  1.
          2   -1    0    0  501    0  0.00000000000E+00 -0.00000000000E+00 -0.44024435758E+02  0.44024435758E+02  0.00000000000E+00 0. -1.
         23    2    1    2    0    0 -0.41526409273E+02 -0.22682336186E+02  0.18286966705E+03  0.22650781907E+03  0.12500218370E+03 0.  0.
         23    2    1    2    0    0  0.41526409273E+02  0.22682336186E+02  0.79815342560E+02  0.12422606206E+03  0.82599603782E+02 0.  0.
          5    1    3    3  502    0 -0.11731282467E+02  0.48900929794E+02  0.42204808286E+02  0.65819904023E+02  0.47000000000E+01 0.  1.
         -5    1    3    3    0  502 -0.29795126805E+02 -0.71583265980E+02  0.14066485876E+03  0.16068791504E+03  0.47000000000E+01 0.  1.
        -11    1    4    4    0    0  0.32644595338E+01 -0.26686366145E+02  0.45790678015E+02  0.53099953175E+02  0.00000000000E+00 0.  1.
         11    1    4    4    0    0  0.38261949739E+02  0.49368702332E+02  0.34024664545E+02  0.71126108885E+02  0.00000000000E+00 0. -1.
<mgrwt>
<rscale>  0 0.12278551E+03</rscale>
<asrwt>0</asrwt>
<pdfrwt beam="2">  1        2 0.67729903E-02 0.13365806E+03</pdfrwt>
<pdfrwt beam="1">  1       -2 0.47186067E-01 0.13365806E+03</pdfrwt>
<totfact> 0.43230069E+03</totfact>
</mgrwt>
</event>
<event>
 8    1  0.1646661E-005  0.1278028E+03  0.7546771E-02  0.1242650E+00
          1   -1    0    0  501    0  0.00000000000E+00  0.00000000000E+00  0.18732570553E+03  0.18732570553E+03  0.00000000000E+00 0. -1.
         -1   -1    0    0    0  501 -0.00000000000E+00 -0.00000000000E+00 -0.70657376011E+02  0.70657376011E+02  0.00000000000E+00 0.  1.
         23    2    1    2    0    0 -0.19648529088E+02  0.17954899577E+02  0.82342550895E+02  0.15203241690E+03  0.12500046795E+03 0.  0.
         23    2    1    2    0    0  0.19648529088E+02 -0.17954899577E+02  0.34325778627E+02  0.10595066464E+03  0.96637679742E+02 0.  0.
          5    1    3    3  502    0  0.44948326242E+02  0.36977140657E+02  0.25232468080E+02  0.63611543045E+02  0.47000000000E+01 0.  1.
         -5    1    3    3    0  502 -0.64596855330E+02 -0.19022241080E+02  0.57110082815E+02  0.88420873856E+02  0.47000000000E+01 0.  1.
        -11    1    4    4    0    0  0.43285498563E+02  0.19168338133E+02 -0.41127217491E+01  0.47518144459E+02  0.00000000000E+00 0.  1.
         11    1    4    4    0    0 -0.23636969475E+02 -0.37123237710E+02  0.38438500376E+02  0.58432520185E+02  0.00000000000E+00 0. -1.
<mgrwt>
<rscale>  0 0.12027113E+03</rscale>
<asrwt>0</asrwt>
<pdfrwt beam="1">  1        1 0.28819339E-01 0.12780282E+03</pdfrwt>
<pdfrwt beam="2">  1       -1 0.10870366E-01 0.12780282E+03</pdfrwt>
<totfact> 0.80376724E+03</totfact>
</mgrwt>
</event>
<event>
 8    1  0.1646661E-005  0.2021795E+03  0.7546771E-02  0.1151503E+00
          1   -1    0    0  501    0  0.00000000000E+00  0.00000000000E+00  0.57698919028E+03  0.57698919028E+03  0.00000000000E+00 0. -1.
         -1   -1    0    0    0  501 -0.00000000000E+00 -0.00000000000E+00 -0.71282735946E+02  0.71282735946E+02  0.00000000000E+00 0.  1.
         23    2    1    2    0    0  0.14930152768E+03 -0.54410375982E+02  0.16794332729E+03  0.26283358997E+03  0.12500039863E+03 0.  0.
         23    2    1    2    0    0 -0.14930152768E+03  0.54410375982E+02  0.33776312704E+03  0.38543833625E+03  0.96059074934E+02 0.  0.
          5    1    3    3  502    0  0.77279656879E+02 -0.71496908667E+02  0.35803659726E+02  0.11130114719E+03  0.47000000000E+01 0.  1.
         -5    1    3    3    0  502  0.72021870800E+02  0.17086532684E+02  0.13213966756E+03  0.15153244278E+03  0.47000000000E+01 0.  1.
        -11    1    4    4    0    0 -0.61450667923E+01  0.41400460153E+02  0.81102668279E+02  0.91265561680E+02  0.00000000000E+00 0.  1.
         11    1    4    4    0    0 -0.14315646089E+03  0.13009915829E+02  0.25666045877E+03  0.29417277457E+03  0.00000000000E+00 0. -1.
<mgrwt>
<rscale>  0 0.19792323E+03</rscale>
<asrwt>0</asrwt>
<pdfrwt beam="1">  1        1 0.88767565E-01 0.20217946E+03</pdfrwt>
<pdfrwt beam="2">  1       -1 0.10966575E-01 0.20217946E+03</pdfrwt>
<totfact> 0.19473536E+03</totfact>
</mgrwt>
</event>
<event>
 8    1  0.1646661E-005  0.1791565E+03  0.7546771E-02  0.1174429E+00
         -1   -1    0    0    0  501 -0.00000000000E+00  0.00000000000E+00  0.51096123823E+02  0.51096123823E+02  0.00000000000E+00 0.  1.
          1   -1    0    0  501    0  0.00000000000E+00 -0.00000000000E+00 -0.72111343823E+03  0.72111343823E+03  0.00000000000E+00 0. -1.
         23    2    1    2    0    0  0.95043811161E+02 -0.86246373834E+02 -0.16568260730E+03  0.24402414308E+03  0.12500117202E+03 0.  0.
         23    2    1    2    0    0 -0.95043811161E+02  0.86246373834E+02 -0.50433470710E+03  0.52818541896E+03  0.90302696414E+02 0.  0.
          5    1    3    3  502    0  0.11472183803E+03 -0.56091477976E+02 -0.16368138485E+03  0.20765606124E+03  0.47000000000E+01 0.  1.
         -5    1    3    3    0  502 -0.19678026870E+02 -0.30154895859E+02 -0.20012224504E+01  0.36368081845E+02  0.47000000000E+01 0.  1.
        -11    1    4    4    0    0 -0.86751661796E+02  0.18543506861E+02 -0.28769433056E+03  0.30106102423E+03  0.00000000000E+00 0.  1.
         11    1    4    4    0    0 -0.82921493652E+01  0.67702866974E+02 -0.21664037654E+03  0.22712439473E+03  0.00000000000E+00 0. -1.
<mgrwt>
<rscale>  0 0.17332030E+03</rscale>
<asrwt>0</asrwt>
<pdfrwt beam="2">  1        1 0.11094052E+00 0.17915651E+03</pdfrwt>
<pdfrwt beam="1">  1       -1 0.78609427E-02 0.17915651E+03</pdfrwt>
<totfact> 0.23632389E+03</totfact>
</mgrwt>
</event>
<event>
 7    1  0.1646661E-005  0.2172433E+03  0.7546771E-02  0.1165709E+00
         -1   -1    0    0    0  501 -0.00000000000E+00  0.00000000000E+00  0.40229307362E+02  0.40229307362E+02  0.00000000000E+00 0.  1.
          1   -1    0    0  501    0  0.00000000000E+00 -0.00000000000E+00 -0.69257889389E+03  0.69257889389E+03  0.00000000000E+00 0. -1.
         23    2    1    2    0    0  0.18075140211E+02  0.57582436950E+02 -0.14136859263E+03  0.17756390392E+03  0.88889893996E+02 0.  0.
          5    1    1    2  502    0 -0.91592265747E+02 -0.11853293111E+01 -0.40100947277E+03  0.41136508772E+03  0.47000000000E+01 0. -1.
         -5    1    1    2    0  502  0.73517125536E+02 -0.56397107639E+02 -0.10997152113E+03  0.14387920960E+03  0.47000000000E+01 0.  1.
        -11    1    3    3    0    0  0.40372293521E+02  0.63212497946E+02 -0.13373642871E+03  0.15333353953E+03  0.00000000000E+00 0. -1.
         11    1    3    3    0    0 -0.22297153310E+02 -0.56300609961E+01 -0.76321639255E+01  0.24230364395E+02  0.00000000000E+00 0.  1.
<mgrwt>
<rscale>  0 0.18218125E+03</rscale>
<asrwt>0</asrwt>
<pdfrwt beam="2">  1        1 0.10655060E+00 0.21724331E+03</pdfrwt>
<pdfrwt beam="1">  1       -1 0.61891240E-02 0.21724331E+03</pdfrwt>
<totfact> 0.36168883E+03</totfact>
</mgrwt>
</event>
<event>
 8    1  0.1646661E-005  0.2025893E+03  0.7546771E-02  0.1152253E+00
         -1   -1    0    0    0  501 -0.00000000000E+00  0.00000000000E+00  0.33445809876E+02  0.33445809876E+02  0.00000000000E+00 0.  1.
          1   -1    0    0  501    0  0.00000000000E+00 -0.00000000000E+00 -0.11076840871E+04  0.11076840871E+04  0.00000000000E+00 0. -1.
         23    2    1    2    0    0 -0.15692708005E+03 -0.28154629980E+02 -0.52479928239E+03  0.56254486560E+03  0.12499458938E+03 0.  0.
         23    2    1    2    0    0  0.15692708005E+03  0.28154629980E+02 -0.54943899480E+03  0.57858503134E+03  0.86363405694E+02 0.  0.
          5    1    3    3  502    0 -0.15878075036E+03  0.13068242118E+02 -0.38446660974E+03  0.41619559061E+03  0.47000000000E+01 0.  1.
         -5    1    3    3    0  502  0.18536703092E+01 -0.41222872098E+02 -0.14033267265E+03  0.14634927499E+03  0.47000000000E+01 0.  1.
        -11    1    4    4    0    0  0.66120619917E+02  0.52688924840E+02 -0.21073210238E+03  0.22705963567E+03  0.00000000000E+00 0.  1.
         11    1    4    4    0    0  0.90806460132E+02 -0.24534294860E+02 -0.33870689242E+03  0.35152539567E+03  0.00000000000E+00 0. -1.
<mgrwt>
<rscale>  0 0.19704920E+03</rscale>
<asrwt>0</asrwt>
<pdfrwt beam="2">  1        1 0.17041293E+00 0.20258934E+03</pdfrwt>
<pdfrwt beam="1">  1       -1 0.51455093E-02 0.20258934E+03</pdfrwt>
<totfact> 0.22387204E+03</totfact>
</mgrwt>
</event>
<event>
 7    1  0.1646661E-005  0.1872434E+03  0.7546771E-02  0.1184641E+00
         -2   -1    0    0    0  501 -0.00000000000E+00  0.00000000000E+00  0.48935977953E+02  0.48935977953E+02  0.00000000000E+00 0.  1.
          2   -1    0    0  501    0  0.00000000000E+00 -0.00000000000E+00 -0.48385856029E+03  0.48385856029E+03  0.00000000000E+00 0. -1.
         23    2    1    2    0    0  0.50201179333E+02 -0.34859722992E+02 -0.23345064836E+03  0.25774723589E+03  0.90548736571E+02 0.  0.
          5    1    1    2  502    0 -0.61008118234E+02  0.42380898475E+02 -0.23082813410E+03  0.24253215980E+03  0.47000000000E+01 0. -1.
         -5    1    1    2    0  502  0.10806938902E+02 -0.75211754838E+01  0.29356200127E+02  0.32515142549E+02  0.47000000000E+01 0.  1.
        -11    1    3    3    0    0  0.51583419894E+02 -0.82135540647E+01 -0.22309174518E+03  0.22912494069E+03  0.00000000000E+00 0. -1.
         11    1    3    3    0    0 -0.13822405609E+01 -0.26646168927E+02 -0.10358903183E+02  0.28622295202E+02  0.00000000000E+00 0.  1.
<mgrwt>
<rscale>  0 0.16364587E+03</rscale>
<asrwt>0</asrwt>
<pdfrwt beam="2">  1        2 0.74439776E-01 0.18724337E+03</pdfrwt>
<pdfrwt beam="1">  1       -2 0.75286122E-02 0.18724337E+03</pdfrwt>
<totfact> 0.65605316E+03</totfact>
</mgrwt>
</event>
<event>
 8    1  0.1646661E-005  0.1382102E+03  0.7546771E-02  0.1225607E+00
          2   -1    0    0  501    0  0.00000000000E+00  0.00000000000E+00  0.42017249188E+03  0.42017249188E+03  0.00000000000E+00 0. -1.
         -2   -1    0    0    0  501 -0.00000000000E+00 -0.00000000000E+00 -0.62895908353E+02  0.62895908353E+02  0.00000000000E+00 0.  1.
         23    2    1    2    0    0 -0.26332143135E+02  0.52760181788E+02  0.36187867777E+02  0.14286924340E+03  0.12500016157E+03 0.  0.
         23    2    1    2    0    0  0.26332143135E+02 -0.52760181788E+02  0.32108871575E+03  0.34019915683E+03  0.95710419391E+02 0.  0.
          5    1    3    3  502    0 -0.36694542708E+02  0.19044188997E+02 -0.40663827996E+02  0.58179098536E+02  0.47000000000E+01 0. -1.
         -5    1    3    3    0  502  0.10362399574E+02  0.33715992791E+02  0.76851695773E+02  0.84690144869E+02  0.47000000000E+01 0. -1.
        -11    1    4    4    0    0 -0.29739781415E+02 -0.24875013309E+02  0.58038409875E+02  0.69797406159E+02  0.00000000000E+00 0.  1.
         11    1    4    4    0    0  0.56071924550E+02 -0.27885168480E+02  0.26305030588E+03  0.27040175067E+03  0.00000000000E+00 0. -1.
<mgrwt>
<rscale>  0 0.13125405E+03</rscale>
<asrwt>0</asrwt>
<pdfrwt beam="1">  1        2 0.64641920E-01 0.13821020E+03</pdfrwt>
<pdfrwt beam="2">  1       -2 0.96762939E-02 0.13821020E+03</pdfrwt>
<totfact> 0.50919352E+03</totfact>
</mgrwt>
</event>
<event>
 8    1  0.1646661E-005  0.1252273E+03  0.7546771E-02  0.1249193E+00
         -1   -1    0    0    0  501 -0.00000000000E+00  0.00000000000E+00  0.56266916917E+03  0.56266916917E+03  0.00000000000E+00 0.  1.
          1   -1    0    0  501    0  0.00000000000E+00 -0.00000000000E+00 -0.22379409124E+02  0.22379409124E+02  0.00000000000E+00 0. -1.
         23    2    1    2    0    0 -0.59127350036E+01 -0.15264503631E+02  0.37281249643E+03  0.39328239523E+03  0.12415280664E+03 0.  0.
         23    2    1    2    0    0  0.59127350036E+01  0.15264503631E+02  0.16747726361E+03  0.19176618306E+03  0.91965589395E+02 0.  0.
          5    1    3    3  502    0  0.57888183689E+02 -0.18966602910E+02  0.18748434702E+03  0.19718834705E+03  0.47000000000E+01 0. -1.
         -5    1    3    3    0  502 -0.63800918693E+02  0.37020992791E+01  0.18532814942E+03  0.19609404818E+03  0.47000000000E+01 0.  1.
        -11    1    4    4    0    0  0.19901150426E+02 -0.26895388613E+02  0.12812687032E+03  0.13242323291E+03  0.00000000000E+00 0.  1.
         11    1    4    4    0    0 -0.13988415423E+02  0.42159892245E+02  0.39350393290E+02  0.59342950147E+02  0.00000000000E+00 0. -1.
<mgrwt>
<rscale>  0 0.11637883E+03</rscale>
<asrwt>0</asrwt>
<pdfrwt beam="2">  1        1 0.34429865E-02 0.12522733E+03</pdfrwt>
<pdfrwt beam="1">  1       -1 0.86564477E-01 0.12522733E+03</pdfrwt>
<totfact> 0.37019262E+03</totfact>
</mgrwt>
</event>
<event>
 8    1  0.1646661E-005  0.1320765E+03  0.7546771E-02  0.1237400E+00
          1   -1    0    0  501    0  0.00000000000E+00  0.00000000000E+00  0.23874273612E+02  0.23874273612E+02  0.00000000000E+00 0. -1.
         -1   -1    0    0    0  501 -0.00000000000E+00 -0.00000000000E+00 -0.59785757389E+03  0.59785757389E+03  0.00000000000E+00 0.  1.
         23    2    1    2    0    0  0.16685689131E+02  0.39246166555E+02 -0.39103271625E+03  0.41273573255E+03  0.12500210370E+03 0.  0.
         23    2    1    2    0    0 -0.16685689131E+02 -0.39246166555E+02 -0.18295058403E+03  0.20899611496E+03  0.91595775342E+02 0.  0.
          5    1    3    3  502    0 -0.12562626315E+02  0.74685755123E+02 -0.31291443964E+03  0.32198341282E+03  0.47000000000E+01 0. -1.
         -5    1    3    3    0  502  0.29248315446E+02 -0.35439588568E+02 -0.78118276616E+02  0.90752319726E+02  0.47000000000E+01 0. -1.
        -11    1    4    4    0    0 -0.47965571423E+01  0.29288454157E+02 -0.37969838923E+02  0.48192625734E+02  0.00000000000E+00 0. -1.
         11    1    4    4    0    0 -0.11889131989E+02 -0.68534620711E+02 -0.14498074511E+03  0.16080348922E+03  0.00000000000E+00 0.  1.
<mgrwt>
<rscale>  0 0.12352054E+03</rscale>
<asrwt>0</asrwt>
<pdfrwt beam="1">  1        1 0.36729654E-02 0.13207649E+03</pdfrwt>
<pdfrwt beam="2">  1       -1 0.91978081E-01 0.13207649E+03</pdfrwt>
<totfact> 0.29889628E+03</totfact>
</mgrwt>
</event>
<event>
 8    1  0.1646661E-005  0.1893389E+03  0.7546771E-02  0.1163829E+00
         -1   -1    0    0    0  501 -0.00000000000E+00  0.00000000000E+00  0.98900138218E+03  0.98900138218E+03  0.00000000000E+00 0.  1.
          1   -1    0    0  501    0  0.00000000000E+00 -0.00000000000E+00 -0.34100435844E+02  0.34100435844E+02  0.00000000000E+00 0. -1.
         23    2    1    2    0    0  0.54136532453E+02 -0.13149998549E+03  0.61167137125E+03  0.64030545191E+03  0.12500477992E+03 0.  0.
         23    2    1    2    0    0 -0.54136532453E+02  0.13149998549E+03  0.34322957508E+03  0.38279636612E+03  0.92214458577E+02 0.  0.
          5    1    3    3  502    0  0.57409982758E+02 -0.14375487981E+03  0.60627444702E+03  0.62574129375E+03  0.47000000000E+01 0. -1.
         -5    1    3    3    0  502 -0.32734503052E+01  0.12254894321E+02  0.53969242287E+01  0.14564158158E+02  0.47000000000E+01 0. -1.
        -11    1    4    4    0    0  0.14917394216E+02  0.79786097751E+02  0.19616708808E+03  0.21229667093E+03  0.00000000000E+00 0. -1.
         11    1    4    4    0    0 -0.69053926668E+02  0.51713887737E+02  0.14706248700E+03  0.17049969518E+03  0.00000000000E+00 0.  1.
<mgrwt>
<rscale>  0 0.18416843E+03</rscale>
<asrwt>0</asrwt>
<pdfrwt beam="2">  1        1 0.52462216E-02 0.18933886E+03</pdfrwt>
<pdfrwt beam="1">  1       -1 0.15215404E+00 0.18933886E+03</pdfrwt>
<totfact> 0.56518315E+02</totfact>
</mgrwt>
</event>
<event>
 8    1  0.1646661E-005  0.1357238E+03  0.7546771E-02  0.1231235E+00
          1   -1    0    0  501    0  0.00000000000E+00  0.00000000000E+00  0.13560657526E+03  0.13560657526E+03  0.00000000000E+00 0. -1.
         -1   -1    0    0    0  501 -0.00000000000E+00 -0.00000000000E+00 -0.13009378067E+03  0.13009378067E+03  0.00000000000E+00 0.  1.
         23    2    1    2    0    0 -0.43982109121E+02 -0.29347379742E+02 -0.52076984692E+02  0.14537183367E+03  0.12500105228E+03 0.  0.
         23    2    1    2    0    0  0.43982109121E+02  0.29347379742E+02  0.57589779284E+02  0.12032852226E+03  0.91469535752E+02 0.  0.
          5    1    3    3  502    0  0.43769931373E+02 -0.59796081059E+01 -0.22154518007E+02  0.49643481683E+02  0.47000000000E+01 0.  1.
         -5    1    3    3    0  502 -0.87752040494E+02 -0.23367771636E+02 -0.29922466685E+02  0.95728351989E+02  0.47000000000E+01 0.  1.
        -11    1    4    4    0    0  0.22723521366E+02 -0.32632909686E+02  0.26626443958E+02  0.47856376124E+02  0.00000000000E+00 0. -1.
         11    1    4    4    0    0  0.21258587755E+02  0.61980289428E+02  0.30963335325E+02  0.72472146135E+02  0.00000000000E+00 0.  1.
<mgrwt>
<rscale>  0 0.12748575E+03</rscale>
<asrwt>0</asrwt>
<pdfrwt beam="1">  1        1 0.20862550E-01 0.13572383E+03</pdfrwt>
<pdfrwt beam="2">  1       -1 0.20014428E-01 0.13572383E+03</pdfrwt>
<totfact> 0.46568251E+03</totfact>
</mgrwt>
</event>
<event>
 8    1  0.1646661E-005  0.3524333E+03  0.7546771E-02  0.1062739E+00
          2   -1    0    0  501    0  0.00000000000E+00  0.00000000000E+00  0.38676244418E+03  0.38676244418E+03  0.00000000000E+00 0. -1.
         -2   -1    0    0    0  501 -0.00000000000E+00 -0.00000000000E+00 -0.35105300131E+03  0.35105300131E+03  0.00000000000E+00 0.  1.
         23    2    1    2    0    0  0.30638642362E+03 -0.12129792616E+03 -0.10590894080E+03  0.36800266447E+03  0.12499371922E+03 0.  0.
         23    2    1    2    0    0 -0.30638642362E+03  0.12129792616E+03  0.14161838367E+03  0.36981278102E+03  0.90110481889E+02 0.  0.
          5    1    3    3  502    0  0.13917407313E+03  0.73854182809E+01 -0.61112383429E+02  0.15225235776E+03  0.47000000000E+01 0. -1.
         -5    1    3    3    0  502  0.16721235049E+03 -0.12868334444E+03 -0.44796557373E+02  0.21575030671E+03  0.47000000000E+01 0. -1.
        -11    1    4    4    0    0 -0.19324481763E+03  0.87930401970E+02  0.13515027133E+03  0.25167620263E+03  0.00000000000E+00 0.  1.
         11    1    4    4    0    0 -0.11314160599E+03  0.33367524190E+02  0.64681123390E+01  0.11813657839E+03  0.00000000000E+00 0. -1.
<mgrwt>
<rscale>  0 0.34969889E+03</rscale>
<asrwt>0</asrwt>
<pdfrwt beam="1">  1        2 0.59501914E-01 0.35243334E+03</pdfrwt>
<pdfrwt beam="2">  1       -2 0.54008154E-01 0.35243334E+03</pdfrwt>
<totfact> 0.27299748E+02</totfact>
</mgrwt>
</event>
<event>
 8    1  0.1646661E-005  0.1474713E+03  0.7546771E-02  0.1218087E+00
          1   -1    0    0  501    0  0.00000000000E+00  0.00000000000E+00  0.15569195645E+03  0.15569195645E+03  0.00000000000E+00 0. -1.
         -1   -1    0    0    0  501 -0.00000000000E+00 -0.00000000000E+00 -0.14536189911E+03  0.14536189911E+03  0.00000000000E+00 0.  1.
         23    2    1    2    0    0 -0.77159579559E+02  0.12985787215E+02 -0.72851580572E+02  0.16448449387E+03  0.12500225816E+03 0.  0.
         23    2    1    2    0    0  0.77159579559E+02 -0.12985787215E+02  0.83181637905E+02  0.13656936169E+03  0.74898426426E+02 0.  0.
          5    1    3    3  502    0 -0.17183004598E+02 -0.53655791831E+02 -0.38291609965E+02  0.68282772628E+02  0.47000000000E+01 0.  1.
         -5    1    3    3    0  502 -0.59976574961E+02  0.66641579046E+02 -0.34559970607E+02  0.96201721243E+02  0.47000000000E+01 0.  1.
        -11    1    4    4    0    0  0.11255119843E+02  0.77062814364E+01 -0.12538248491E+02  0.18527605660E+02  0.00000000000E+00 0.  1.
         11    1    4    4    0    0  0.65904459716E+02 -0.20692068652E+02  0.95719886396E+02  0.11804175603E+03  0.00000000000E+00 0. -1.
<mgrwt>
<rscale>  0 0.13652188E+03</rscale>
<asrwt>0</asrwt>
<pdfrwt beam="1">  1        1 0.23952609E-01 0.14747134E+03</pdfrwt>
<pdfrwt beam="2">  1       -1 0.22363369E-01 0.14747134E+03</pdfrwt>
<totfact> 0.32833485E+03</totfact>
</mgrwt>
</event>
<event>
 8    1  0.1646661E-005  0.1256714E+03  0.7546771E-02  0.1248710E+00
          1   -1    0    0  501    0  0.00000000000E+00  0.00000000000E+00  0.20990614329E+03  0.20990614329E+03  0.00000000000E+00 0. -1.
         -1   -1    0    0    0  501 -0.00000000000E+00 -0.00000000000E+00 -0.57126814048E+02  0.57126814048E+02  0.00000000000E+00 0.  1.
         23    2    1    2    0    0  0.76388576329E+01  0.10426002852E+02  0.86157277374E+02  0.15236923263E+03  0.12500501160E+03 0.  0.
         23    2    1    2    0    0 -0.76388576329E+01 -0.10426002852E+02  0.66622051865E+02  0.11466372470E+03  0.92424121781E+02 0.  0.
          5    1    3    3  502    0 -0.93105801891E+01  0.40505119692E+02  0.10480918494E+03  0.11284682926E+03  0.47000000000E+01 0.  1.
         -5    1    3    3    0  502  0.16949437822E+02 -0.30079116840E+02 -0.18651907570E+02  0.39522403373E+02  0.47000000000E+01 0.  1.
        -11    1    4    4    0    0 -0.25298665776E+02  0.25677521565E+02  0.65136077259E+02  0.74445054668E+02  0.00000000000E+00 0. -1.
         11    1    4    4    0    0  0.17659808143E+02 -0.36103524417E+02  0.14859746051E+01  0.40218670037E+02  0.00000000000E+00 0.  1.
<mgrwt>
<rscale>  0 0.11666085E+03</rscale>
<asrwt>0</asrwt>
<pdfrwt beam="1">  1        1 0.32293252E-01 0.12567142E+03</pdfrwt>
<pdfrwt beam="2">  1       -1 0.87887408E-02 0.12567142E+03</pdfrwt>
<totfact> 0.96322108E+03</totfact>
</mgrwt>
</event>
<event>
 8    1  0.1646661E-005  0.1431555E+03  0.7546771E-02  0.1219568E+00
          1   -1    0    0  501    0  0.00000000000E+00  0.00000000000E+00  0.49797517293E+02  0.49797517293E+02  0.00000000000E+00 0. -1.
         -1   -1    0    0    0  501 -0.00000000000E+00 -0.00000000000E+00 -0.34698401668E+03  0.34698401668E+03  0.00000000000E+00 0.  1.
         23    2    1    2    0    0  0.50920722053E+02 -0.47713287490E+02 -0.20248127477E+03  0.24797614458E+03  0.12499609559E+03 0.  0.
         23    2    1    2    0    0 -0.50920722053E+02  0.47713287490E+02 -0.94705224622E+02  0.14880538939E+03  0.91128955903E+02 0.  0.
          5    1    3    3  502    0 -0.75562505728E+01  0.29144403458E+02 -0.91532387794E+01  0.31817683068E+02  0.47000000000E+01 0.  1.
         -5    1    3    3    0  502  0.58476972626E+02 -0.76857690949E+02 -0.19332803599E+03  0.21615846151E+03  0.47000000000E+01 0.  1.
        -11    1    4    4    0    0  0.16307777377E+02  0.38304650708E+01 -0.58290522965E+02  0.60649823852E+02  0.00000000000E+00 0.  1.
         11    1    4    4    0    0 -0.67228499430E+02  0.43882822420E+02 -0.36414701656E+02  0.88155565541E+02  0.00000000000E+00 0. -1.
<mgrwt>
<rscale>  0 0.13546298E+03</rscale>
<asrwt>0</asrwt>
<pdfrwt beam="1">  1        1 0.76611564E-02 0.14315552E+03</pdfrwt>
<pdfrwt beam="2">  1       -1 0.53382157E-01 0.14315552E+03</pdfrwt>
<totfact> 0.32366125E+03</totfact>
</mgrwt>
</event>
<event>
 8    1  0.1646661E-005  0.1358582E+03  0.7546771E-02  0.1226509E+00
          2   -1    0    0  501    0  0.00000000000E+00  0.00000000000E+00  0.50865020356E+03  0.50865020356E+03  0.00000000000E+00 0. -1.
         -2   -1    0    0    0  501 -0.00000000000E+00 -0.00000000000E+00 -0.32169601245E+02  0.32169601245E+02  0.00000000000E+00 0.  1.
         23    2    1    2    0    0  0.74627591783E+02 -0.13220982143E+01  0.20989711227E+03  0.25002847141E+03  0.11351833938E+03 0.  0.
         23    2    1    2    0    0 -0.74627591783E+02  0.13220982143E+01  0.26658349005E+03  0.29079133340E+03  0.89004589865E+02 0.  0.
          5    1    3    3  502    0 -0.62575039212E+01  0.96905013452E+01  0.14527652590E+03  0.14580953724E+03  0.47000000000E+01 0. -1.
         -5    1    3    3    0  502  0.80885095705E+02 -0.11012599559E+02  0.64620586367E+02  0.10421893417E+03  0.47000000000E+01 0.  1.
        -11    1    4    4    0    0 -0.32501420124E+00  0.10337205797E+02 -0.31933050071E+01  0.10824077549E+02  0.00000000000E+00 0.  1.
         11    1    4    4    0    0 -0.74302577582E+02 -0.90151075829E+01  0.26977679505E+03  0.27996725585E+03  0.00000000000E+00 0. -1.
<mgrwt>
<rscale>  0 0.13064032E+03</rscale>
<asrwt>0</asrwt>
<pdfrwt beam="1">  1        2 0.78253872E-01 0.13585816E+03</pdfrwt>
<pdfrwt beam="2">  1       -2 0.49491698E-02 0.13585816E+03</pdfrwt>
<totfact> 0.11537169E+04</totfact>
</mgrwt>
</event>
<event>
 8    1  0.1646661E-005  0.2667489E+03  0.7546771E-02  0.1105242E+00
         -1   -1    0    0    0  501 -0.00000000000E+00  0.00000000000E+00  0.31278020962E+03  0.31278020962E+03  0.00000000000E+00 0.  1.
          1   -1    0    0  501    0  0.00000000000E+00 -0.00000000000E+00 -0.25137343811E+03  0.25137343811E+03  0.00000000000E+00 0. -1.
         23    2    1    2    0    0  0.22379713716E+03  0.73762585822E+02  0.13757426944E+03  0.30013605152E+03  0.12501556759E+03 0.  0.
         23    2    1    2    0    0 -0.22379713716E+03 -0.73762585822E+02 -0.76167497922E+02  0.26401759622E+03  0.91529916989E+02 0.  0.
          5    1    3    3  502    0  0.15694539359E+03 -0.92360792311E+01  0.60467860896E+02  0.16850998169E+03  0.47000000000E+01 0.  1.
         -5    1    3    3    0  502  0.66851743568E+02  0.82998665053E+02  0.77106408542E+02  0.13162606982E+03  0.47000000000E+01 0.  1.
        -11    1    4    4    0    0 -0.12119259965E+03 -0.85683309504E+02 -0.32889291982E+02  0.15202296295E+03  0.00000000000E+00 0.  1.
         11    1    4    4    0    0 -0.10260453751E+03  0.11920723682E+02 -0.43278205940E+02  0.11199463326E+03  0.00000000000E+00 0. -1.
<mgrwt>
<rscale>  0 0.26318904E+03</rscale>
<asrwt>0</asrwt>
<pdfrwt beam="2">  1        1 0.38672837E-01 0.26674889E+03</pdfrwt>
<pdfrwt beam="1">  1       -1 0.48120032E-01 0.26674889E+03</pdfrwt>
<totfact> 0.48600493E+02</totfact>
</mgrwt>
</event>
<event>
 8    1  0.1646661E-005  0.1366445E+03  0.7546771E-02  0.1227706E+00
         -4   -1    0    0    0  501 -0.00000000000E+00  0.00000000000E+00  0.53802480621E+03  0.53802480621E+03  0.00000000000E+00 0. -1.
          4   -1    0    0  501    0  0.00000000000E+00 -0.00000000000E+00 -0.31443215810E+02  0.31443215810E+02  0.00000000000E+00 0.  1.
         23    2    1    2    0    0 -0.28183628235E+01 -0.55143364561E+02  0.36227073696E+03  0.38718445108E+03  0.12499191363E+03 0.  0.
         23    2    1    2    0    0  0.28183628235E+01  0.55143364561E+02  0.14431085343E+03  0.18228357094E+03  0.96710619849E+02 0.  0.
          5    1    3    3  502    0  0.11259049760E+02 -0.91152183193E+02  0.29960347330E+03  0.31340041148E+03  0.47000000000E+01 0. -1.
         -5    1    3    3    0  502 -0.14077412583E+02  0.36008818632E+02  0.62667263664E+02  0.73784039599E+02  0.47000000000E+01 0. -1.
        -11    1    4    4    0    0 -0.93681233896E+01 -0.14191117770E+02  0.94569780997E+02  0.96086383204E+02  0.00000000000E+00 0. -1.
         11    1    4    4    0    0  0.12186486213E+02  0.69334482331E+02  0.49741072437E+02  0.86197187735E+02  0.00000000000E+00 0.  1.
<mgrwt>
<rscale>  0 0.12983121E+03</rscale>
<asrwt>0</asrwt>
<pdfrwt beam="2">  1        4 0.48374182E-02 0.13664447E+03</pdfrwt>
<pdfrwt beam="1">  1       -4 0.82773040E-01 0.13664447E+03</pdfrwt>
<totfact> 0.55159345E+02</totfact>
</mgrwt>
</event>
<event>
 8    1  0.1646661E-005  0.1337006E+03  0.7546771E-02  0.1234734E+00
         -1   -1    0    0    0  501 -0.00000000000E+00  0.00000000000E+00  0.37775483201E+03  0.37775483201E+03  0.00000000000E+00 0.  1.
          1   -1    0    0  501    0  0.00000000000E+00 -0.00000000000E+00 -0.37609383859E+02  0.37609383859E+02  0.00000000000E+00 0. -1.
         23    2    1    2    0    0  0.27583660739E+02 -0.38596339521E+02  0.21739482204E+03  0.25521824511E+03  0.12500123290E+03 0.  0.
         23    2    1    2    0    0 -0.27583660739E+02  0.38596339521E+02  0.12275062611E+03  0.16014597076E+03  0.91260506101E+02 0.  0.
          5    1    3    3  502    0 -0.44351221350E+02 -0.18336992207E+01  0.12320181073E+03  0.13103880896E+03  0.47000000000E+01 0.  1.
         -5    1    3    3    0  502  0.71934882089E+02 -0.36762640301E+02  0.94193011311E+02  0.12417943615E+03  0.47000000000E+01 0.  1.
        -11    1    4    4    0    0 -0.29160726169E+02 -0.68458216624E+01  0.76684761434E+00  0.29963332261E+02  0.00000000000E+00 0. -1.
         11    1    4    4    0    0  0.15770654301E+01  0.45442161184E+02  0.12198377850E+03  0.13018263850E+03  0.00000000000E+00 0.  1.
<mgrwt>
<rscale>  0 0.12521479E+03</rscale>
<asrwt>0</asrwt>
<pdfrwt beam="2">  1        1 0.57860593E-02 0.13370058E+03</pdfrwt>
<pdfrwt beam="1">  1       -1 0.58116125E-01 0.13370058E+03</pdfrwt>
<totfact> 0.40211831E+03</totfact>
</mgrwt>
</event>
<event>
 8    1  0.1646661E-005  0.1737319E+03  0.7546771E-02  0.1180023E+00
          1   -1    0    0  501    0  0.00000000000E+00  0.00000000000E+00  0.42511935187E+03  0.42511935187E+03  0.00000000000E+00 0. -1.
         -1   -1    0    0    0  501 -0.00000000000E+00 -0.00000000000E+00 -0.67061052087E+02  0.67061052087E+02  0.00000000000E+00 0.  1.
         23    2    1    2    0    0 -0.12065568289E+03  0.74384165279E-01  0.12464335841E+03  0.21381943189E+03  0.12499993325E+03 0.  0.
         23    2    1    2    0    0  0.12065568289E+03 -0.74384165279E-01  0.23341494137E+03  0.27836097206E+03  0.91893941926E+02 0.  0.
          5    1    3    3  502    0 -0.11446756827E+03 -0.21918238781E+02  0.35869705025E+02  0.12203261497E+03  0.47000000000E+01 0. -1.
         -5    1    3    3    0  502 -0.61881146228E+01  0.21992622946E+02  0.88773653384E+02  0.91786816928E+02  0.47000000000E+01 0. -1.
        -11    1    4    4    0    0  0.56627065916E+02 -0.37850614828E+02  0.15992916900E+03  0.17382932070E+03  0.00000000000E+00 0. -1.
         11    1    4    4    0    0  0.64028616977E+02  0.37776230663E+02  0.73485772368E+02  0.10453165136E+03  0.00000000000E+00 0.  1.
<mgrwt>
<rscale>  0 0.16793110E+03</rscale>
<asrwt>0</asrwt>
<pdfrwt beam="1">  1        1 0.65402975E-01 0.17373193E+03</pdfrwt>
<pdfrwt beam="2">  1       -1 0.10317085E-01 0.17373193E+03</pdfrwt>
<totfact> 0.31873724E+03</totfact>
</mgrwt>
</event>
<event>
 8    1  0.1646661E-005  0.1562540E+03  0.7546771E-02  0.1198858E+00
         -2   -1    0    0    0  501 -0.00000000000E+00  0.00000000000E+00  0.24266625390E+02  0.24266625390E+02  0.00000000000E+00 0.  1.
          2   -1    0    0  501    0  0.00000000000E+00 -0.00000000000E+00 -0.89234304401E+03  0.89234304401E+03  0.00000000000E+00 0. -1.
         23    2    1    2    0    0 -0.66788807020E+02 -0.65801755225E+02 -0.49125386079E+03  0.51550526943E+03  0.12499884534E+03 0.  0.
         23    2    1    2    0    0  0.66788807020E+02  0.65801755225E+02 -0.37682255783E+03  0.40110439997E+03  0.10049320301E+03 0.  0.
          5    1    3    3  502    0 -0.69460576134E+02 -0.85961355107E+02 -0.47833464185E+03  0.49095849702E+03  0.47000000000E+01 0.  1.
         -5    1    3    3    0  502  0.26717691133E+01  0.20159599882E+02 -0.12919218947E+02  0.24546772411E+02  0.47000000000E+01 0.  1.
        -11    1    4    4    0    0  0.91806464412E+02  0.41051392867E+02 -0.30443961923E+03  0.32061990818E+03  0.00000000000E+00 0.  1.
         11    1    4    4    0    0 -0.25017657392E+02  0.24750362358E+02 -0.72382938600E+02  0.80484491789E+02  0.00000000000E+00 0. -1.
<mgrwt>
<rscale>  0 0.15132163E+03</rscale>
<asrwt>0</asrwt>
<pdfrwt beam="2">  1        2 0.13728353E+00 0.15625405E+03</pdfrwt>
<pdfrwt beam="1">  1       -2 0.37333275E-02 0.15625405E+03</pdfrwt>
<totfact> 0.91034558E+03</totfact>
</mgrwt>
</event>
<event>
 8    1  0.1646661E-005  0.1695974E+03  0.7546771E-02  0.1184669E+00
          2   -1    0    0  501    0  0.00000000000E+00  0.00000000000E+00  0.96822315031E+02  0.96822315031E+02  0.00000000000E+00 0. -1.
         -2   -1    0    0    0  501 -0.00000000000E+00 -0.00000000000E+00 -0.26394418074E+03  0.26394418074E+03  0.00000000000E+00 0.  1.
         23    2    1    2    0    0  0.11113665906E+03  0.28052902725E+02 -0.11482526701E+03  0.20481242287E+03  0.12499985712E+03 0.  0.
         23    2    1    2    0    0 -0.11113665906E+03 -0.28052902725E+02 -0.52296598700E+02  0.15595407291E+03  0.91915266862E+02 0.  0.
          5    1    3    3  502    0  0.11759480880E+03 -0.20350217795E+02 -0.70465489698E+02  0.13867280072E+03  0.47000000000E+01 0. -1.
         -5    1    3    3    0  502 -0.64581497468E+01  0.48403120520E+02 -0.44359777311E+02  0.66139622144E+02  0.47000000000E+01 0. -1.
        -11    1    4    4    0    0  0.59448167436E+01 -0.19192078388E+02  0.10638738970E+02  0.22734543889E+02  0.00000000000E+00 0. -1.
         11    1    4    4    0    0 -0.11708147580E+03 -0.88608243371E+01 -0.62935337670E+02  0.13321952902E+03  0.00000000000E+00 0.  1.
<mgrwt>
<rscale>  0 0.16362054E+03</rscale>
<asrwt>0</asrwt>
<pdfrwt beam="1">  1        2 0.14895741E-01 0.16959743E+03</pdfrwt>
<pdfrwt beam="2">  1       -2 0.40606796E-01 0.16959743E+03</pdfrwt>
<totfact> 0.22234739E+03</totfact>
</mgrwt>
</event>
<event>
 8    1  0.1646661E-005  0.1483785E+03  0.7546771E-02  0.1211979E+00
          1   -1    0    0  501    0  0.00000000000E+00  0.00000000000E+00  0.19678934539E+03  0.19678934539E+03  0.00000000000E+00 0. -1.
         -1   -1    0    0    0  501 -0.00000000000E+00 -0.00000000000E+00 -0.11344103183E+03  0.11344103183E+03  0.00000000000E+00 0.  1.
         23    2    1    2    0    0 -0.26381424737E+01 -0.79892425288E+02 -0.21723380827E+02  0.14996031231E+03  0.12500572218E+03 0.  0.
         23    2    1    2    0    0  0.26381424737E+01  0.79892425288E+02  0.10507169439E+03  0.16027006491E+03  0.90866238670E+02 0.  0.
          5    1    3    3  502    0  0.59450154914E+02 -0.23557060951E+02 -0.47665560938E+01  0.64296703624E+02  0.47000000000E+01 0.  1.
         -5    1    3    3    0  502 -0.62088297387E+02 -0.56335364336E+02 -0.16956824734E+02  0.85663608682E+02  0.47000000000E+01 0.  1.
        -11    1    4    4    0    0  0.30745547302E+02  0.30898105928E+02  0.30992185410E+01  0.43698819028E+02  0.00000000000E+00 0.  1.
         11    1    4    4    0    0 -0.28107404828E+02  0.48994319360E+02  0.10197247585E+03  0.11657124588E+03  0.00000000000E+00 0. -1.
<mgrwt>
<rscale>  0 0.14100834E+03</rscale>
<asrwt>0</asrwt>
<pdfrwt beam="1">  1        1 0.30275284E-01 0.14837854E+03</pdfrwt>
<pdfrwt beam="2">  1       -1 0.17452466E-01 0.14837854E+03</pdfrwt>
<totfact> 0.36477368E+03</totfact>
</mgrwt>
</event>
<event>
 8    1  0.1864503E-005  0.2979552E+03  0.7546771E-02  0.1087868E+00
          1   -1    0    0  501    0  0.00000000000E+00  0.00000000000E+00  0.13323678585E+04  0.13323678585E+04  0.00000000000E+00 0. -1.
         -1   -1    0    0    0  501 -0.00000000000E+00 -0.00000000000E+00 -0.64020956459E+02  0.64020956459E+02  0.00000000000E+00 0.  1.
         23    2    1    2    0    0  0.26374375791E+03 -0.59920103836E+02  0.67989678184E+03  0.74231864065E+03  0.12500456641E+03 0.  0.
         23    2    1    2    0    0 -0.26374375791E+03  0.59920103836E+02  0.58845012020E+03  0.65407017431E+03  0.91559053468E+02 0.  0.
          5    1    3    3  502    0  0.22951847562E+03 -0.16426421114E+02  0.61634592932E+03  0.65791561203E+03  0.47000000000E+01 0. -1.
         -5    1    3    3    0  502  0.34225282296E+02 -0.43493682722E+02  0.63550852512E+02  0.84403028618E+02  0.47000000000E+01 0. -1.
        -11    1    4    4    0    0 -0.17474721614E+03  0.49926245522E+02  0.48102098725E+03  0.51420852746E+03  0.00000000000E+00 0. -1.
         11    1    4    4    0    0 -0.88996541769E+02  0.99938583143E+01  0.10742913295E+03  0.13986164684E+03  0.00000000000E+00 0.  1.
<mgrwt>
<rscale>  0 0.29480225E+03</rscale>
<asrwt>0</asrwt>
<pdfrwt beam="1">  1        1 0.20497965E+00 0.29795525E+03</pdfrwt>
<pdfrwt beam="2">  1       -1 0.98493789E-02 0.29795525E+03</pdfrwt>
<totfact> 0.57876410E+02</totfact>
</mgrwt>
</event>
<event>
 8    1  0.1646661E-005  0.1261177E+03  0.7546771E-02  0.1247924E+00
          2   -1    0    0  501    0  0.00000000000E+00  0.00000000000E+00  0.84665793308E+03  0.84665793308E+03  0.00000000000E+00 0. -1.
         -2   -1    0    0    0  501 -0.00000000000E+00 -0.00000000000E+00 -0.14699403966E+02  0.14699403966E+02  0.00000000000E+00 0.  1.
         23    2    1    2    0    0  0.36365021908E+01 -0.16377258631E+02  0.40346916815E+03  0.42272098910E+03  0.12499690487E+03 0.  0.
         23    2    1    2    0    0 -0.36365021908E+01  0.16377258631E+02  0.42848936097E+03  0.43863634795E+03  0.92289081338E+02 0.  0.
          5    1    3    3  502    0  0.52923809702E+02  0.22150556753E+02  0.25724660711E+03  0.26360858042E+03  0.47000000000E+01 0.  1.
         -5    1    3    3    0  502 -0.49287307511E+02 -0.38527815383E+02  0.14622256104E+03  0.15911240868E+03  0.47000000000E+01 0.  1.
        -11    1    4    4    0    0 -0.26018625799E+02 -0.31387824619E+02  0.20384271194E+03  0.20787981055E+03  0.00000000000E+00 0.  1.
         11    1    4    4    0    0  0.22382123609E+02  0.47765083250E+02  0.22464664902E+03  0.23075653740E+03  0.00000000000E+00 0. -1.
<mgrwt>
<rscale>  0 0.11712088E+03</rscale>
<asrwt>0</asrwt>
<pdfrwt beam="1">  1        2 0.13025503E+00 0.12611766E+03</pdfrwt>
<pdfrwt beam="2">  1       -2 0.22614474E-02 0.12611766E+03</pdfrwt>
<totfact> 0.20066944E+04</totfact>
</mgrwt>
</event>
<event>
 8    1  0.1646661E-005  0.1476770E+03  0.7546771E-02  0.1213496E+00
         -2   -1    0    0    0  501 -0.00000000000E+00  0.00000000000E+00  0.20693724306E+03  0.20693724306E+03  0.00000000000E+00 0. -1.
          2   -1    0    0  501    0  0.00000000000E+00 -0.00000000000E+00 -0.21584648852E+03  0.21584648852E+03  0.00000000000E+00 0.  1.
         23    2    1    2    0    0 -0.48603589367E+02 -0.61819116049E+02  0.15904014981E+03  0.21703058874E+03  0.12499838075E+03 0.  0.
         23    2    1    2    0    0  0.48603589367E+02  0.61819116049E+02 -0.16794939527E+03  0.20575314284E+03  0.89126002996E+02 0.  0.
          5    1    3    3  502    0  0.52209746026E+01  0.27942895677E+02  0.28448357242E+01  0.28952497041E+02  0.47000000000E+01 0.  1.
         -5    1    3    3    0  502 -0.53824563969E+02 -0.89762011726E+02  0.15619531408E+03  0.18807809170E+03  0.47000000000E+01 0.  1.
        -11    1    4    4    0    0  0.66598750278E+02  0.27338975338E+02 -0.70210803064E+02  0.10056028032E+03  0.00000000000E+00 0. -1.
         11    1    4    4    0    0 -0.17995160911E+02  0.34480140711E+02 -0.97738592203E+02  0.10519286252E+03  0.00000000000E+00 0.  1.
<mgrwt>
<rscale>  0 0.13987572E+03</rscale>
<asrwt>0</asrwt>
<pdfrwt beam="2">  1        2 0.33207152E-01 0.14767704E+03</pdfrwt>
<pdfrwt beam="1">  1       -2 0.31836499E-01 0.14767704E+03</pdfrwt>
<totfact> 0.14129510E+03</totfact>
</mgrwt>
</event>
<event>
 8    1  0.1646661E-005  0.1631057E+03  0.7546771E-02  0.1196275E+00
          2   -1    0    0  501    0  0.00000000000E+00  0.00000000000E+00  0.21978811170E+03  0.21978811170E+03  0.00000000000E+00 0. -1.
         -2   -1    0    0    0  501 -0.00000000000E+00 -0.00000000000E+00 -0.10246796504E+03  0.10246796504E+03  0.00000000000E+00 0.  1.
         23    2    1    2    0    0 -0.58044878081E+02 -0.87227763449E+02  0.26036597952E+02  0.16517074654E+03  0.12500232195E+03 0.  0.
         23    2    1    2    0    0  0.58044878081E+02  0.87227763449E+02  0.91283548712E+02  0.15708533019E+03  0.73247690124E+02 0.  0.
          5    1    3    3  502    0 -0.70543480793E+02 -0.47852726473E+02 -0.34209082512E+02  0.91970742302E+02  0.47000000000E+01 0. -1.
         -5    1    3    3    0  502  0.12498602711E+02 -0.39375036975E+02  0.60245680464E+02  0.73200004243E+02  0.47000000000E+01 0. -1.
        -11    1    4    4    0    0  0.24069247270E+02  0.26859778956E+02  0.78848867613E+02  0.86705941628E+02  0.00000000000E+00 0. -1.
         11    1    4    4    0    0  0.33975630811E+02  0.60367984492E+02  0.12434681099E+02  0.70379388564E+02  0.00000000000E+00 0.  1.
<mgrwt>
<rscale>  0 0.15346831E+03</rscale>
<asrwt>0</asrwt>
<pdfrwt beam="1">  1        2 0.33813556E-01 0.16310571E+03</pdfrwt>
<pdfrwt beam="2">  1       -2 0.15764302E-01 0.16310571E+03</pdfrwt>
<totfact> 0.46858226E+03</totfact>
</mgrwt>
</event>
<event>
 8    1  0.1646661E-005  0.2424852E+03  0.7546771E-02  0.1120986E+00
         -2   -1    0    0    0  501 -0.00000000000E+00  0.00000000000E+00  0.85299893070E+02  0.85299893070E+02  0.00000000000E+00 0.  1.
          2   -1    0    0  501    0  0.00000000000E+00 -0.00000000000E+00 -0.67479751845E+03  0.67479751845E+03  0.00000000000E+00 0. -1.
         23    2    1    2    0    0 -0.11727314454E+03 -0.17153802341E+03 -0.22209657070E+03  0.32882509832E+03  0.12498309752E+03 0.  0.
         23    2    1    2    0    0  0.11727314454E+03  0.17153802341E+03 -0.36740105469E+03  0.43127231320E+03  0.88509825695E+02 0.  0.
          5    1    3    3  502    0 -0.10738087726E+03 -0.52992693836E+02 -0.83186869137E+02  0.14588016862E+03  0.47000000000E+01 0. -1.
         -5    1    3    3    0  502 -0.98922672886E+01 -0.11854532957E+03 -0.13890970156E+03  0.18294492970E+03  0.47000000000E+01 0. -1.
        -11    1    4    4    0    0  0.57721331131E+02  0.12344478949E+03 -0.29911142526E+03  0.32869136411E+03  0.00000000000E+00 0.  1.
         11    1    4    4    0    0  0.59551813413E+02  0.48093233914E+02 -0.68289629426E+02  0.10258094909E+03  0.00000000000E+00 0. -1.
<mgrwt>
<rscale>  0 0.23821726E+03</rscale>
<asrwt>0</asrwt>
<pdfrwt beam="2">  1        2 0.10381500E+00 0.24248517E+03</pdfrwt>
<pdfrwt beam="1">  1       -2 0.13123061E-01 0.24248517E+03</pdfrwt>
<totfact> 0.18685955E+03</totfact>
</mgrwt>
</event>
<event>
 8    1  0.1646661E-005  0.1242884E+03  0.7546771E-02  0.1250114E+00
          2   -1    0    0  501    0  0.00000000000E+00  0.00000000000E+00  0.37368182973E+03  0.37368182973E+03  0.00000000000E+00 0. -1.
         -2   -1    0    0    0  501 -0.00000000000E+00 -0.00000000000E+00 -0.42430522126E+02  0.42430522126E+02  0.00000000000E+00 0.  1.
         23    2    1    2    0    0  0.34166152700E+01  0.23745071799E+02  0.79715411480E+02  0.14765552509E+03  0.12195124258E+03 0.  0.
         23    2    1    2    0    0 -0.34166152700E+01 -0.23745071799E+02  0.25153589612E+03  0.26845682676E+03  0.90682187352E+02 0.  0.
          5    1    3    3  502    0 -0.14502708730E+02 -0.42532860109E+02  0.61778897712E+02  0.76538192767E+02  0.47000000000E+01 0. -1.
         -5    1    3    3    0  502  0.17919324000E+02  0.66277931908E+02  0.17936513768E+02  0.71117332323E+02  0.47000000000E+01 0.  1.
        -11    1    4    4    0    0  0.11071919376E+02 -0.56677772947E+02  0.14975843086E+03  0.16050714924E+03  0.00000000000E+00 0. -1.
         11    1    4    4    0    0 -0.14488534646E+02  0.32932701148E+02  0.10177746527E+03  0.10794967752E+03  0.00000000000E+00 0.  1.
<mgrwt>
<rscale>  0 0.11584456E+03</rscale>
<asrwt>0</asrwt>
<pdfrwt beam="1">  1        2 0.57489510E-01 0.12428840E+03</pdfrwt>
<pdfrwt beam="2">  1       -2 0.65277729E-02 0.12428840E+03</pdfrwt>
<totfact> 0.10518525E+04</totfact>
</mgrwt>
</event>
<event>
 8    1  0.1646661E-005  0.1261458E+03  0.7546771E-02  0.1236251E+00
          1   -1    0    0  501    0  0.00000000000E+00  0.00000000000E+00  0.13219069724E+02  0.13219069724E+02  0.00000000000E+00 0. -1.
         -1   -1    0    0    0  501 -0.00000000000E+00 -0.00000000000E+00 -0.11896039256E+04  0.11896039256E+04  0.00000000000E+00 0.  1.
         23    2    1    2    0    0  0.15853752044E+02 -0.71682277688E+01 -0.73521199226E+03  0.74595538465E+03  0.12494013521E+03 0.  0.
         23    2    1    2    0    0 -0.15853752044E+02  0.71682277688E+01 -0.44117286358E+03  0.45686761064E+03  0.11743846536E+03 0.  0.
          5    1    3    3  502    0  0.51247397751E+02 -0.28826755731E+02 -0.63005245508E+03  0.63280760408E+03  0.47000000000E+01 0.  1.
         -5    1    3    3    0  502 -0.35393645707E+02  0.21658527962E+02 -0.10515953718E+03  0.11314778058E+03  0.47000000000E+01 0.  1.
        -11    1    4    4    0    0 -0.60086759081E+02 -0.14322244727E+02 -0.16161313162E+03  0.17301546065E+03  0.00000000000E+00 0. -1.
         11    1    4    4    0    0  0.44233007037E+02  0.21490472495E+02 -0.27955973196E+03  0.28385214999E+03  0.00000000000E+00 0.  1.
<mgrwt>
<rscale>  0 0.12424699E+03</rscale>
<asrwt>0</asrwt>
<pdfrwt beam="1">  1        1 0.20337025E-02 0.12614580E+03</pdfrwt>
<pdfrwt beam="2">  1       -1 0.18301604E+00 0.12614580E+03</pdfrwt>
<totfact> 0.12541360E+03</totfact>
</mgrwt>
</event>
<event>
 8    1  0.1646661E-005  0.1538543E+03  0.7546771E-02  0.1204387E+00
          1   -1    0    0  501    0  0.00000000000E+00  0.00000000000E+00  0.10631446231E+03  0.10631446231E+03  0.00000000000E+00 0. -1.
         -1   -1    0    0    0  501 -0.00000000000E+00 -0.00000000000E+00 -0.19145070716E+03  0.19145070716E+03  0.00000000000E+00 0.  1.
         23    2    1    2    0    0 -0.89100805579E+02 -0.10329631151E+02 -0.70394767205E+02  0.16919387199E+03  0.12500195293E+03 0.  0.
         23    2    1    2    0    0  0.89100805579E+02  0.10329631151E+02 -0.14741477648E+02  0.12857129747E+03  0.90926412752E+02 0.  0.
          5    1    3    3  502    0 -0.40609982044E+02 -0.65336596972E+02 -0.18572121921E+02  0.79278340410E+02  0.47000000000E+01 0.  1.
         -5    1    3    3    0  502 -0.48490823535E+02  0.55006965820E+02 -0.51822645284E+02  0.89915531584E+02  0.47000000000E+01 0.  1.
        -11    1    4    4    0    0  0.12819350434E+02  0.31173968830E+02 -0.33260026717E+02  0.47353790296E+02  0.00000000000E+00 0.  1.
         11    1    4    4    0    0  0.76281455145E+02 -0.20844337679E+02  0.18518549069E+02  0.81217507176E+02  0.00000000000E+00 0. -1.
<mgrwt>
<rscale>  0 0.14685875E+03</rscale>
<asrwt>0</asrwt>
<pdfrwt beam="1">  1        1 0.16356071E-01 0.15385429E+03</pdfrwt>
<pdfrwt beam="2">  1       -1 0.29453955E-01 0.15385429E+03</pdfrwt>
<totfact> 0.33962084E+03</totfact>
</mgrwt>
</event>
<event>
 8    1  0.1646661E-005  0.1783979E+03  0.7546771E-02  0.1175004E+00
          1   -1    0    0  501    0  0.00000000000E+00  0.00000000000E+00  0.16654644674E+03  0.16654644674E+03  0.00000000000E+00 0. -1.
         -1   -1    0    0    0  501 -0.00000000000E+00 -0.00000000000E+00 -0.41190520076E+03  0.41190520076E+03  0.00000000000E+00 0.  1.
         23    2    1    2    0    0  0.12725359216E+03 -0.27432297328E+01 -0.34794226114E+03  0.39101101884E+03  0.12499919096E+03 0.  0.
         23    2    1    2    0    0 -0.12725359216E+03  0.27432297328E+01  0.10258350712E+03  0.18744062866E+03  0.91703932913E+02 0.  0.
          5    1    3    3  502    0  0.49586808425E+01  0.33410218616E+02 -0.21007349521E+02  0.40052839570E+02  0.47000000000E+01 0.  1.
         -5    1    3    3    0  502  0.12229491132E+03 -0.36153448349E+02 -0.32693491162E+03  0.35095817927E+03  0.47000000000E+01 0.  1.
        -11    1    4    4    0    0 -0.50292881803E+02  0.14964464236E+02 -0.70408595355E+01  0.52942259613E+02  0.00000000000E+00 0.  1.
         11    1    4    4    0    0 -0.76960710359E+02 -0.12221234503E+02  0.10962436665E+03  0.13449836904E+03  0.00000000000E+00 0. -1.
<mgrwt>
<rscale>  0 0.17275577E+03</rscale>
<asrwt>0</asrwt>
<pdfrwt beam="1">  1        1 0.25622530E-01 0.17839787E+03</pdfrwt>
<pdfrwt beam="2">  1       -1 0.63370030E-01 0.17839787E+03</pdfrwt>
<totfact> 0.48656505E+02</totfact>
</mgrwt>
</event>
<event>
 8    1  0.1646661E-005  0.2231913E+03  0.7546771E-02  0.1134808E+00
          4   -1    0    0  501    0  0.00000000000E+00  0.00000000000E+00  0.74796748818E+03  0.74796748818E+03  0.00000000000E+00 0. -1.
         -4   -1    0    0    0  501 -0.00000000000E+00 -0.00000000000E+00 -0.74019800036E+02  0.74019800036E+02  0.00000000000E+00 0.  1.
         23    2    1    2    0    0  0.19927064154E+02  0.18382523911E+03  0.17975352698E+03  0.28657577718E+03  0.12500215671E+03 0.  0.
         23    2    1    2    0    0 -0.19927064154E+02 -0.18382523911E+03  0.49419416117E+03  0.53541151104E+03  0.90822964063E+02 0.  0.
          5    1    3    3  502    0  0.33812679607E+02 -0.36053242743E+01  0.19115061246E+02  0.39290854302E+02  0.47000000000E+01 0. -1.
         -5    1    3    3    0  502 -0.13885615453E+02  0.18743056339E+03  0.16063846573E+03  0.24728492288E+03  0.47000000000E+01 0. -1.
        -11    1    4    4    0    0  0.15635298033E+02 -0.32104810015E+02  0.33078964290E+02  0.48676475316E+02  0.00000000000E+00 0.  1.
         11    1    4    4    0    0 -0.35562362187E+02 -0.15172042910E+03  0.46111519688E+03  0.48673503572E+03  0.00000000000E+00 0. -1.
<mgrwt>
<rscale>  0 0.21876447E+03</rscale>
<asrwt>0</asrwt>
<pdfrwt beam="1">  1        4 0.11507192E+00 0.22319128E+03</pdfrwt>
<pdfrwt beam="2">  1       -4 0.11387662E-01 0.22319128E+03</pdfrwt>
<totfact> 0.67146672E+01</totfact>
</mgrwt>
</event>
<event>
 7    1  0.3257860E-005  0.1211375E+03  0.7546771E-02  0.1307214E+00
          1   -1    0    0  501    0  0.00000000000E+00  0.00000000000E+00  0.66042352091E+02  0.66042352091E+02  0.00000000000E+00 0. -1.
         -1   -1    0    0    0  501 -0.00000000000E+00 -0.00000000000E+00 -0.95963103178E+02  0.95963103178E+02  0.00000000000E+00 0.  1.
         23    2    1    2    0    0 -0.17837468495E+02  0.10987868496E+02 -0.38045389375E+02  0.12697142267E+03  0.11931212003E+03 0.  0.
          5    1    3    3  502    0 -0.57292434063E+02  0.31001640150E+02  0.44294298343E+01  0.65461702861E+02  0.47000000000E+01 0. -1.
         -5    1    3    3    0  502  0.39454965568E+02 -0.20013771654E+02 -0.42474819210E+02  0.61509719806E+02  0.47000000000E+01 0.  1.
        -11    1    1    2    0    0  0.18044691220E+02  0.35363278870E+01 -0.53683136394E-02  0.18387945099E+02  0.00000000000E+00 0.  1.
         11    1    1    2    0    0 -0.20722272461E+00 -0.14524196383E+02  0.81300066019E+01  0.16646087504E+02  0.00000000000E+00 0. -1.
<mgrwt>
<rscale>  0 0.88222714E+02</rscale>
<asrwt>0</asrwt>
<pdfrwt beam="1">  1        1 0.10160362E-01 0.12113749E+03</pdfrwt>
<pdfrwt beam="2">  1       -1 0.14763554E-01 0.12113749E+03</pdfrwt>
<totfact> 0.18947649E+04</totfact>
</mgrwt>
</event>
<event>
 8    1  0.1646661E-005  0.1217897E+03  0.7546771E-02  0.1258140E+00
          3   -1    0    0  501    0  0.00000000000E+00  0.00000000000E+00  0.14469815542E+03  0.14469815542E+03  0.00000000000E+00 0. -1.
         -3   -1    0    0    0  501 -0.00000000000E+00 -0.00000000000E+00 -0.94601636937E+02  0.94601636937E+02  0.00000000000E+00 0.  1.
         23    2    1    2    0    0 -0.58694013871E+01  0.12655908421E+02 -0.26757692978E+02  0.12469447595E+03  0.12098808333E+03 0.  0.
         23    2    1    2    0    0  0.58694013871E+01 -0.12655908421E+02  0.76854211465E+02  0.11460531641E+03  0.83864097443E+02 0.  0.
          5    1    3    3  502    0 -0.60094819057E+02  0.10700441036E+02 -0.33546200532E+02  0.69809199151E+02  0.47000000000E+01 0. -1.
         -5    1    3    3    0  502  0.54225417670E+02  0.19554673851E+01  0.67885075539E+01  0.54885276796E+02  0.47000000000E+01 0.  1.
        -11    1    4    4    0    0  0.42234690859E+02 -0.20476352410E+02  0.34599890065E+02  0.58311255453E+02  0.00000000000E+00 0.  1.
         11    1    4    4    0    0 -0.36365289472E+02  0.78204439891E+01  0.42254321400E+02  0.56294060962E+02  0.00000000000E+00 0. -1.
<mgrwt>
<rscale>  0 0.11132273E+03</rscale>
<asrwt>0</asrwt>
<pdfrwt beam="1">  1        3 0.22261255E-01 0.12178973E+03</pdfrwt>
<pdfrwt beam="2">  1       -3 0.14554098E-01 0.12178973E+03</pdfrwt>
<totfact> 0.16328449E+03</totfact>
</mgrwt>
</event>
<event>
 8    1  0.1646661E-005  0.1283930E+03  0.7546771E-02  0.1245180E+00
          1   -1    0    0  501    0  0.00000000000E+00  0.00000000000E+00  0.17360062344E+03  0.17360062344E+03  0.00000000000E+00 0. -1.
         -1   -1    0    0    0  501 -0.00000000000E+00 -0.00000000000E+00 -0.73162441861E+02  0.73162441861E+02  0.00000000000E+00 0.  1.
         23    2    1    2    0    0 -0.29120109084E+02 -0.33496586260E+01  0.37756514099E+02  0.13382941531E+03  0.12500222830E+03 0.  0.
         23    2    1    2    0    0  0.29120109084E+02  0.33496586260E+01  0.62681667482E+02  0.11293364999E+03  0.89251425176E+02 0.  0.
          5    1    3    3  502    0 -0.72371411247E+02 -0.46700753122E+00 -0.50841279286E+01  0.72703353559E+02  0.47000000000E+01 0.  1.
         -5    1    3    3    0  502  0.43251302164E+02 -0.28826510948E+01  0.42840642027E+02  0.61126061753E+02  0.47000000000E+01 0.  1.
        -11    1    4    4    0    0 -0.18239164141E+02 -0.25132445236E+02  0.45449576015E+02  0.55045171197E+02  0.00000000000E+00 0. -1.
         11    1    4    4    0    0  0.47359273225E+02  0.28482103862E+02  0.17232091467E+02  0.57888478794E+02  0.00000000000E+00 0.  1.
<mgrwt>
<rscale>  0 0.11874639E+03</rscale>
<asrwt>0</asrwt>
<pdfrwt beam="1">  1        1 0.26707788E-01 0.12839298E+03</pdfrwt>
<pdfrwt beam="2">  1       -1 0.11255760E-01 0.12839298E+03</pdfrwt>
<totfact> 0.83803447E+03</totfact>
</mgrwt>
</event>
<event>
 8    1  0.1646661E-005  0.1527143E+03  0.7546771E-02  0.1205740E+00
         -4   -1    0    0    0  501 -0.00000000000E+00  0.00000000000E+00  0.12242115040E+03  0.12242115040E+03  0.00000000000E+00 0.  1.
          4   -1    0    0  501    0  0.00000000000E+00 -0.00000000000E+00 -0.16050562918E+03  0.16050562918E+03  0.00000000000E+00 0. -1.
         23    2    1    2    0    0  0.71247630252E+01 -0.87439910700E+02 -0.10277554622E+02  0.15305976563E+03  0.12500065398E+03 0.  0.
         23    2    1    2    0    0 -0.71247630252E+01  0.87439910700E+02 -0.27806924160E+02  0.12986701394E+03  0.91628140045E+02 0.  0.
          5    1    3    3  502    0 -0.51332764601E+01 -0.96031681538E+02 -0.51329912951E+02  0.10911133924E+03  0.47000000000E+01 0.  1.
         -5    1    3    3    0  502  0.12258039485E+02  0.85917708379E+01  0.41052358329E+02  0.43948426394E+02  0.47000000000E+01 0.  1.
        -11    1    4    4    0    0 -0.26031885846E+02  0.32513264926E+02  0.27297491792E+02  0.49798840699E+02  0.00000000000E+00 0.  1.
         11    1    4    4    0    0  0.18907122821E+02  0.54926645774E+02 -0.55104415952E+02  0.80068173245E+02  0.00000000000E+00 0. -1.
<mgrwt>
<rscale>  0 0.14579304E+03</rscale>
<asrwt>0</asrwt>
<pdfrwt beam="2">  1        4 0.24693174E-01 0.15271432E+03</pdfrwt>
<pdfrwt beam="1">  1       -4 0.18834023E-01 0.15271432E+03</pdfrwt>
<totfact> 0.65317642E+02</totfact>
</mgrwt>
</event>
<event>
 8    1  0.1646661E-005  0.1301786E+03  0.7546771E-02  0.1241745E+00
          4   -1    0    0  501    0  0.00000000000E+00  0.00000000000E+00  0.22353796688E+02  0.22353796688E+02  0.00000000000E+00 0. -1.
         -4   -1    0    0    0  501 -0.00000000000E+00 -0.00000000000E+00 -0.87951018715E+03  0.87951018715E+03  0.00000000000E+00 0.  1.
         23    2    1    2    0    0 -0.30646910859E+02 -0.19536477802E+02 -0.73342438798E+03  0.74488778214E+03  0.12500227197E+03 0.  0.
         23    2    1    2    0    0  0.30646910859E+02  0.19536477802E+02 -0.12373200249E+03  0.15697620170E+03  0.89504258835E+02 0.  0.
          5    1    3    3  502    0 -0.60396487846E+02 -0.34888285430E+02 -0.66400402165E+03  0.66767384176E+03  0.47000000000E+01 0.  1.
         -5    1    3    3    0  502  0.29749576988E+02  0.15351807628E+02 -0.69420366326E+02  0.77213940382E+02  0.47000000000E+01 0.  1.
        -11    1    4    4    0    0  0.17654366063E+02 -0.35380029080E+02 -0.42312427382E+02  0.57911696658E+02  0.00000000000E+00 0.  1.
         11    1    4    4    0    0  0.12992544795E+02  0.54916506882E+02 -0.81419575107E+02  0.99064505041E+02  0.00000000000E+00 0. -1.
<mgrwt>
<rscale>  0 0.12082342E+03</rscale>
<asrwt>0</asrwt>
<pdfrwt beam="1">  1        4 0.34390456E-02 0.13017863E+03</pdfrwt>
<pdfrwt beam="2">  1       -4 0.13530926E+00 0.13017863E+03</pdfrwt>
<totfact> 0.29767292E+02</totfact>
</mgrwt>
</event>
