<event>
 6    1  0.6981059E-006  0.9431824E+02  0.7561462E-02  0.1292719E+00
          1   -1    0    0  501    0  0.00000000000E+00  0.00000000000E+00  0.35538114403E+03  0.35538114403E+03  0.00000000000E+00 0.  1.
         -1   -1    0    0    0  501 -0.00000000000E+00 -0.00000000000E+00 -0.10706260625E+03  0.10706260625E+03  0.00000000000E+00 0. -1.
          5    1    1    2  502    0 -0.30795302063E+02  0.30455771845E+02  0.10916623937E+02  0.44861450557E+02  0.41800000000E+01 0.  1.
         -5    1    1    2    0  502  0.57467767894E+02 -0.31263348276E+02 -0.70407985462E+02  0.96201341514E+02  0.41800000000E+01 0.  1.
        -11    1    1    2    0    0 -0.43226512456E+02 -0.24229503551E+02  0.26178522414E+03  0.26643405150E+03  0.00000000000E+00 0. -1.
         11    1    1    2    0    0  0.16554046625E+02  0.25037079982E+02  0.46024675169E+02  0.54946906720E+02  0.00000000000E+00 0.  1.
</event>
<event>
 6    1  0.6981059E-006  0.1156304E+03  0.7561462E-02  0.1250485E+00
         -1   -1    0    0    0  501 -0.00000000000E+00  0.00000000000E+00  0.36842032876E+02  0.36842032876E+02  0.00000000000E+00 0.  1.
          1   -1    0    0  501    0  0.00000000000E+00 -0.00000000000E+00 -0.47301650524E+03  0.47301650524E+03  0.00000000000E+00 0. -1.
          5    1    1    2  502    0  0.39717128169E+02  0.39332363161E+02 -0.84084894648E+02  0.10105556377E+03  0.41800000000E+01 0.  1.
         -5    1    1    2    0  502 -0.86329720759E+02  0.17178602483E+02 -0.16946700897E+03  0.19100906942E+03  0.41800000000E+01 0.  1.
        -11    1    1    2    0    0  0.35630642669E+02 -0.69233924005E+01 -0.15655150314E+03  0.16070422892E+03  0.00000000000E+00 0. -1.
         11    1    1    2    0    0  0.10981949921E+02 -0.49587573243E+02 -0.26071065611E+02  0.57089676005E+02  0.00000000000E+00 0.  1.
</event>
<event>
 6    1  0.6981059E-006  0.1124000E+03  0.7561462E-02  0.1256189E+00
          2   -1    0    0  501    0  0.00000000000E+00  0.00000000000E+00  0.91763771280E+03  0.91763771280E+03  0.00000000000E+00 0. -1.
         -2   -1    0    0    0  501 -0.00000000000E+00 -0.00000000000E+00 -0.16265071302E+02  0.16265071302E+02  0.00000000000E+00 0.  1.
          5    1    1    2  502    0 -0.68096186503E+02  0.35584190668E+02  0.45007918911E+03  0.45660932329E+03  0.41800000000E+01 0. -1.
         -5    1    1    2    0  502  0.38566577233E+02  0.10903296209E+02  0.66595095355E+02  0.77837278171E+02  0.41800000000E+01 0. -1.
        -11    1    1    2    0    0  0.20564661915E+01  0.28046425515E+02  0.10377338537E+03  0.10751626179E+03  0.00000000000E+00 0.  1.
         11    1    1    2    0    0  0.27473143079E+02 -0.74533912393E+02  0.28092497166E+03  0.29193992086E+03  0.00000000000E+00 0. -1.
</event>
<event>
 6    1  0.6981059E-006  0.1446311E+03  0.7561462E-02  0.1207230E+00
         -2   -1    0    0    0  501 -0.00000000000E+00  0.00000000000E+00  0.51875534793E+02  0.51875534793E+02  0.00000000000E+00 0.  1.
          2   -1    0    0  501    0  0.00000000000E+00 -0.00000000000E+00 -0.46446568703E+03  0.46446568703E+03  0.00000000000E+00 0. -1.
          5    1    1    2  502    0 -0.32062303140E+02 -0.42029768391E+02 -0.14498978075E+03  0.15438264681E+03  0.41800000000E+01 0. -1.
         -5    1    1    2    0  502  0.84933866295E+02  0.90784900590E+02 -0.10870094075E+03  0.16519390648E+03  0.41800000000E+01 0.  1.
        -11    1    1    2    0    0 -0.75989124134E+02 -0.45304650421E+02 -0.14412829455E+03  0.16911482379E+03  0.00000000000E+00 0.  1.
         11    1    1    2    0    0  0.23117560978E+02 -0.34504817776E+01 -0.14771136198E+02  0.27649844749E+02  0.00000000000E+00 0. -1.
</event>
<event>
 6    1  0.6981059E-006  0.9188353E+02  0.7561462E-02  0.1298354E+00
          1   -1    0    0  501    0  0.00000000000E+00  0.00000000000E+00  0.68285009460E+02  0.68285009460E+02  0.00000000000E+00 0. -1.
         -1   -1    0    0    0  501 -0.00000000000E+00 -0.00000000000E+00 -0.26563515967E+03  0.26563515967E+03  0.00000000000E+00 0.  1.
          5    1    1    2  502    0  0.13920729815E+02 -0.35773258844E+02 -0.10384578271E+03  0.11079229104E+03  0.41800000000E+01 0.  1.
         -5    1    1    2    0  502 -0.42957491909E+02  0.76869931406E+02 -0.96540447889E+02  0.13073585179E+03  0.41800000000E+01 0.  1.
        -11    1    1    2    0    0  0.33761607639E+02 -0.30941603532E+02  0.35568350375E+02  0.57985657950E+02  0.00000000000E+00 0. -1.
         11    1    1    2    0    0 -0.47248455453E+01 -0.10155069029E+02 -0.32532269986E+02  0.34406368347E+02  0.00000000000E+00 0.  1.
</event>
<event>
 6    1  0.6981059E-006  0.1169703E+03  0.7561462E-02  0.1248180E+00
          2   -1    0    0  501    0  0.00000000000E+00  0.00000000000E+00  0.27344910508E+03  0.27344910508E+03  0.00000000000E+00 0.  1.
         -2   -1    0    0    0  501 -0.00000000000E+00 -0.00000000000E+00 -0.86769831005E+02  0.86769831005E+02  0.00000000000E+00 0. -1.
          5    1    1    2  502    0  0.18380301698E+02 -0.40252914533E+01 -0.39503007411E+02  0.43954504392E+02  0.41800000000E+01 0.  1.
         -5    1    1    2    0  502 -0.10856235855E+02 -0.88694650538E+02  0.73065913046E+02  0.11550194345E+03  0.41800000000E+01 0.  1.
        -11    1    1    2    0    0  0.38067835532E+02  0.35527202305E+02  0.38342389619E+02  0.64664372319E+02  0.00000000000E+00 0. -1.
         11    1    1    2    0    0 -0.45591901376E+02  0.57192739687E+02  0.11477397882E+03  0.13609811592E+03  0.00000000000E+00 0.  1.
</event>
<event>
 6    1  0.6981059E-006  0.1300035E+03  0.7561462E-02  0.1227451E+00
          1   -1    0    0  501    0  0.00000000000E+00  0.00000000000E+00  0.44013087822E+02  0.44013087822E+02  0.00000000000E+00 0. -1.
         -1   -1    0    0    0  501 -0.00000000000E+00 -0.00000000000E+00 -0.40078585665E+03  0.40078585665E+03  0.00000000000E+00 0.  1.
          5    1    1    2  502    0  0.33318430775E+02 -0.11644889659E+02 -0.77282579848E+02  0.85063451802E+02  0.41800000000E+01 0. -1.
         -5    1    1    2    0  502 -0.74215551245E+02  0.75128007339E+02 -0.11108421389E+03  0.15332755952E+03  0.41800000000E+01 0. -1.
        -11    1    1    2    0    0  0.10059326573E+02 -0.82128797923E+02 -0.12625150693E+03  0.15094956940E+03  0.00000000000E+00 0. -1.
         11    1    1    2    0    0  0.30837793897E+02  0.18645680243E+02 -0.42154468165E+02  0.55458363756E+02  0.00000000000E+00 0.  1.
</event>
<event>
 6    1  0.6981059E-006  0.1047806E+03  0.7561462E-02  0.1270552E+00
          2   -1    0    0  501    0  0.00000000000E+00  0.00000000000E+00  0.56939389739E+03  0.56939389739E+03  0.00000000000E+00 0. -1.
         -2   -1    0    0    0  501 -0.00000000000E+00 -0.00000000000E+00 -0.25242331904E+02  0.25242331904E+02  0.00000000000E+00 0.  1.
          5    1    1    2  502    0  0.17837148813E+02  0.64490537202E+02  0.11286233528E+03  0.13127289283E+03  0.41800000000E+01 0. -1.
         -5    1    1    2    0  502 -0.20543050088E+02 -0.44773589436E+02  0.47913933336E+02  0.68846994311E+02  0.41800000000E+01 0.  1.
        -11    1    1    2    0    0 -0.38935357475E+02 -0.31189990324E+02  0.20210206969E+03  0.20816825918E+03  0.00000000000E+00 0.  1.
         11    1    1    2    0    0  0.41641258750E+02  0.11473042557E+02  0.18127322718E+03  0.18634808298E+03  0.00000000000E+00 0. -1.
</event>
<event>
 6    1  0.6981059E-006  0.1144164E+03  0.7561462E-02  0.1252603E+00
          2   -1    0    0  501    0  0.00000000000E+00  0.00000000000E+00  0.16486117170E+03  0.16486117170E+03  0.00000000000E+00 0. -1.
         -2   -1    0    0    0  501 -0.00000000000E+00 -0.00000000000E+00 -0.84821904829E+02  0.84821904829E+02  0.00000000000E+00 0.  1.
          5    1    1    2  502    0 -0.32138954263E+02 -0.43087266211E+02  0.82175134801E+01  0.54538287638E+02  0.41800000000E+01 0.  1.
         -5    1    1    2    0  502 -0.35852676377E+00  0.79862628138E+02  0.24299699030E+02  0.83582986831E+02  0.41800000000E+01 0.  1.
        -11    1    1    2    0    0  0.48275564972E+02  0.66594114318E+01  0.53956359066E+01  0.49030509082E+02  0.00000000000E+00 0.  1.
         11    1    1    2    0    0 -0.15778083945E+02 -0.43434773358E+02  0.42126418455E+02  0.62531292978E+02  0.00000000000E+00 0. -1.
</event>
<event>
 6    1  0.6981059E-006  0.1031289E+03  0.7561462E-02  0.1273851E+00
          4   -1    0    0  501    0  0.00000000000E+00  0.00000000000E+00  0.25655565481E+03  0.25655565481E+03  0.00000000000E+00 0. -1.
         -4   -1    0    0    0  501 -0.00000000000E+00 -0.00000000000E+00 -0.60021393625E+02  0.60021393625E+02  0.00000000000E+00 0.  1.
          5    1    1    2  502    0 -0.37802413472E+02  0.81439608015E+02  0.83206323332E+02  0.12248345546E+03  0.41800000000E+01 0. -1.
         -5    1    1    2    0  502  0.22050193838E+02 -0.29475525140E+02 -0.41119300997E+00  0.37049414439E+02  0.41800000000E+01 0. -1.
        -11    1    1    2    0    0 -0.84554534467E+00 -0.60608166694E+02  0.23702946768E+02  0.65083749911E+02  0.00000000000E+00 0.  1.
         11    1    1    2    0    0  0.16597764979E+02  0.86440838193E+01  0.90036184090E+02  0.91960428625E+02  0.00000000000E+00 0. -1.
</event>
<event>
 6    1  0.6981059E-006  0.1832750E+03  0.7561462E-02  0.1164671E+00
         -1   -1    0    0    0  501 -0.00000000000E+00  0.00000000000E+00  0.11931251236E+03  0.11931251236E+03  0.00000000000E+00 0.  1.
          1   -1    0    0  501    0  0.00000000000E+00 -0.00000000000E+00 -0.38031660930E+03  0.38031660930E+03  0.00000000000E+00 0. -1.
          5    1    1    2  502    0 -0.74805033723E+02 -0.26615656946E+02 -0.77031988647E+02  0.11070494993E+03  0.41800000000E+01 0. -1.
         -5    1    1    2    0  502 -0.48172734457E+02 -0.84685879471E+02  0.30526117605E+02  0.10218427855E+03  0.41800000000E+01 0. -1.
        -11    1    1    2    0    0  0.13486037489E+02  0.71905706044E+02 -0.70473253517E+02  0.10158141183E+03  0.00000000000E+00 0.  1.
         11    1    1    2    0    0  0.10949173069E+03  0.39395830374E+02 -0.14402497239E+03  0.18515848134E+03  0.00000000000E+00 0. -1.
</event>
<event>
 6    1  0.6981059E-006  0.1064924E+03  0.7561462E-02  0.1267207E+00
         -2   -1    0    0    0  501 -0.00000000000E+00  0.00000000000E+00  0.46402217717E+02  0.46402217717E+02  0.00000000000E+00 0.  1.
          2   -1    0    0  501    0  0.00000000000E+00 -0.00000000000E+00 -0.36654449093E+03  0.36654449093E+03  0.00000000000E+00 0. -1.
          5    1    1    2  502    0  0.92671767408E+02 -0.30138919914E+02 -0.57595619939E+02  0.11327461677E+03  0.41800000000E+01 0.  1.
         -5    1    1    2    0  502 -0.31563575205E+02  0.14821099821E+02 -0.60379336201E+02  0.69850275016E+02  0.41800000000E+01 0.  1.
        -11    1    1    2    0    0 -0.25689708060E+02 -0.18262145694E+02 -0.16628119583E+03  0.16924214355E+03  0.00000000000E+00 0. -1.
         11    1    1    2    0    0 -0.35418484142E+02  0.33579965787E+02 -0.35886121243E+02  0.60579673315E+02  0.00000000000E+00 0.  1.
</event>
<event>
 6    1  0.6981059E-006  0.1070160E+03  0.7561462E-02  0.1266198E+00
          2   -1    0    0  501    0  0.00000000000E+00  0.00000000000E+00  0.21520514803E+03  0.21520514803E+03  0.00000000000E+00 0.  1.
         -2   -1    0    0    0  501 -0.00000000000E+00 -0.00000000000E+00 -0.67938978318E+02  0.67938978318E+02  0.00000000000E+00 0. -1.
          5    1    1    2  502    0  0.55033074606E+02 -0.20944767427E+02  0.71881518212E+02  0.93014771104E+02  0.41800000000E+01 0. -1.
         -5    1    1    2    0  502 -0.44211769041E+02 -0.27711013619E+02 -0.12992762635E+02  0.53933895450E+02  0.41800000000E+01 0. -1.
        -11    1    1    2    0    0  0.15072634003E+02 -0.22416128266E+02  0.15425516447E+02  0.31106489032E+02  0.00000000000E+00 0.  1.
         11    1    1    2    0    0 -0.25893939568E+02  0.71071909312E+02  0.72951897683E+02  0.10508897076E+03  0.00000000000E+00 0. -1.
</event>
<event>
 6    1  0.6981059E-006  0.1787697E+03  0.7561462E-02  0.1168999E+00
         -1   -1    0    0    0  501 -0.00000000000E+00  0.00000000000E+00  0.11404134260E+03  0.11404134260E+03  0.00000000000E+00 0.  1.
          1   -1    0    0  501    0  0.00000000000E+00 -0.00000000000E+00 -0.81310679613E+03  0.81310679613E+03  0.00000000000E+00 0. -1.
          5    1    1    2  502    0 -0.27971813825E+02 -0.10076133148E+03  0.31426836049E+02  0.10927207655E+03  0.41800000000E+01 0.  1.
         -5    1    1    2    0  502 -0.82367353789E+02  0.31637480292E+01 -0.17911284868E+02  0.84455176262E+02  0.41800000000E+01 0.  1.
        -11    1    1    2    0    0  0.12461279398E+03  0.92504871255E+02 -0.68003766293E+03  0.69752184384E+03  0.00000000000E+00 0.  1.
         11    1    1    2    0    0 -0.14273626368E+02  0.50927121947E+01 -0.32543341784E+02  0.35899042071E+02  0.00000000000E+00 0. -1.
</event>
<event>
 6    1  0.6981059E-006  0.7529456E+02  0.7561462E-02  0.1342961E+00
          2   -1    0    0  501    0  0.00000000000E+00  0.00000000000E+00  0.46103011332E+02  0.46103011332E+02  0.00000000000E+00 0. -1.
         -2   -1    0    0    0  501 -0.00000000000E+00 -0.00000000000E+00 -0.32563586836E+03  0.32563586836E+03  0.00000000000E+00 0.  1.
          5    1    1    2  502    0  0.30440501345E+02 -0.23531097210E+02 -0.13112154897E+02  0.40862423620E+02  0.41800000000E+01 0. -1.
         -5    1    1    2    0  502 -0.15078793340E+02  0.45029729153E+02 -0.21902575584E+03  0.22415352025E+03  0.41800000000E+01 0. -1.
        -11    1    1    2    0    0  0.63319115939E+01 -0.37010168614E+02  0.13772863258E+02  0.39994217677E+02  0.00000000000E+00 0. -1.
         11    1    1    2    0    0 -0.21693619599E+02  0.15511536671E+02 -0.61167809551E+02  0.66728718154E+02  0.00000000000E+00 0.  1.
</event>
<event>
 6    1  0.6981059E-006  0.2940947E+03  0.7561462E-02  0.1088230E+00
          2   -1    0    0  501    0  0.00000000000E+00  0.00000000000E+00  0.53699468217E+03  0.53699468217E+03  0.00000000000E+00 0. -1.
         -2   -1    0    0    0  501 -0.00000000000E+00 -0.00000000000E+00 -0.17288620378E+03  0.17288620378E+03  0.00000000000E+00 0.  1.
          5    1    1    2  502    0  0.18268043371E+03 -0.12433277758E+03  0.10653250910E+03  0.24535164221E+03  0.41800000000E+01 0. -1.
         -5    1    1    2    0  502  0.18798702059E+02 -0.76794053469E+02  0.10171128137E+03  0.12889288190E+03  0.41800000000E+01 0. -1.
        -11    1    1    2    0    0 -0.11917067080E+03  0.14808925002E+03  0.14083589494E+03  0.23657308396E+03  0.00000000000E+00 0. -1.
         11    1    1    2    0    0 -0.82308464968E+02  0.53037581027E+02  0.15028792981E+02  0.99063277884E+02  0.00000000000E+00 0.  1.
</event>
<event>
 6    1  0.6981059E-006  0.1754315E+03  0.7561462E-02  0.1172299E+00
          1   -1    0    0  501    0  0.00000000000E+00  0.00000000000E+00  0.14478365678E+03  0.14478365678E+03  0.00000000000E+00 0. -1.
         -1   -1    0    0    0  501 -0.00000000000E+00 -0.00000000000E+00 -0.27591047177E+03  0.27591047177E+03  0.00000000000E+00 0.  1.
          5    1    1    2  502    0  0.37739462323E+02  0.14277887398E+02 -0.63154207355E+02  0.75060318356E+02  0.41800000000E+01 0.  1.
         -5    1    1    2    0  502  0.47506588393E+02  0.12812706637E+03  0.17204183844E+02  0.13779287869E+03  0.41800000000E+01 0.  1.
        -11    1    1    2    0    0 -0.48117790969E+02 -0.12215610468E+03 -0.97791234173E+02  0.16370876947E+03  0.00000000000E+00 0.  1.
         11    1    1    2    0    0 -0.37128259747E+02 -0.20248849082E+02  0.12614442690E+02  0.44132162029E+02  0.00000000000E+00 0. -1.
</event>
<event>
 6    1  0.6981059E-006  0.1016115E+03  0.7561462E-02  0.1276943E+00
         -2   -1    0    0    0  501 -0.00000000000E+00  0.00000000000E+00  0.48492220269E+02  0.48492220269E+02  0.00000000000E+00 0.  1.
          2   -1    0    0  501    0  0.00000000000E+00 -0.00000000000E+00 -0.35699076589E+03  0.35699076589E+03  0.00000000000E+00 0. -1.
          5    1    1    2  502    0 -0.58303684360E+02 -0.19398157663E+02 -0.19471941364E+02  0.64592855883E+02  0.41800000000E+01 0.  1.
         -5    1    1    2    0  502  0.25558100750E+00  0.62317655377E+02 -0.12475560229E+03  0.13951698175E+03  0.41800000000E+01 0.  1.
        -11    1    1    2    0    0  0.48773906686E+02 -0.17005914561E+02 -0.21459989542E+02  0.55934124241E+02  0.00000000000E+00 0.  1.
         11    1    1    2    0    0  0.92741966658E+01 -0.25913583153E+02 -0.14281101243E+03  0.14543902429E+03  0.00000000000E+00 0. -1.
</event>
<event>
 6    1  0.6981059E-006  0.6301613E+02  0.7561462E-02  0.1385593E+00
          1   -1    0    0  501    0  0.00000000000E+00  0.00000000000E+00  0.42791973045E+03  0.42791973045E+03  0.00000000000E+00 0. -1.
         -1   -1    0    0    0  501 -0.00000000000E+00 -0.00000000000E+00 -0.28296269415E+02  0.28296269415E+02  0.00000000000E+00 0.  1.
          5    1    1    2  502    0  0.15530948232E+02 -0.67273137444E+01 -0.13458521456E+02  0.22024334337E+02  0.41800000000E+01 0.  1.
         -5    1    1    2    0  502 -0.28353600057E+02  0.91368554552E+01  0.20444026657E+03  0.20664148606E+03  0.41800000000E+01 0.  1.
        -11    1    1    2    0    0  0.64522332383E+01  0.37526022632E+02  0.15912834920E+03  0.16362049140E+03  0.00000000000E+00 0. -1.
         11    1    1    2    0    0  0.63704185874E+01 -0.39935564343E+02  0.49513366717E+02  0.63929688064E+02  0.00000000000E+00 0.  1.
</event>
<event>
 6    1  0.6981059E-006  0.1567910E+03  0.7561462E-02  0.1192368E+00
         -1   -1    0    0    0  501 -0.00000000000E+00  0.00000000000E+00  0.61237960635E+03  0.61237960635E+03  0.00000000000E+00 0.  1.
          1   -1    0    0  501    0  0.00000000000E+00 -0.00000000000E+00 -0.71605370420E+02  0.71605370420E+02  0.00000000000E+00 0. -1.
          5    1    1    2  502    0 -0.15932418011E+02  0.62656149379E+02  0.81984047171E+02  0.10449158526E+03  0.41800000000E+01 0. -1.
         -5    1    1    2    0  502 -0.38815628980E+02 -0.13260763896E+03  0.43007287218E+03  0.45174283254E+03  0.41800000000E+01 0.  1.
        -11    1    1    2    0    0 -0.14284516467E+02  0.23003306062E+02  0.34743618971E+02  0.44049047205E+02  0.00000000000E+00 0.  1.
         11    1    1    2    0    0  0.69032563458E+02  0.46948183515E+02 -0.60263023887E+01  0.83701511775E+02  0.00000000000E+00 0. -1.
</event>
<event>
 6    1  0.6981059E-006  0.5317584E+02  0.7561462E-02  0.1428928E+00
         -1   -1    0    0    0  501 -0.00000000000E+00  0.00000000000E+00  0.22410789467E+03  0.22410789467E+03  0.00000000000E+00 0.  1.
          1   -1    0    0  501    0  0.00000000000E+00 -0.00000000000E+00 -0.44964236054E+02  0.44964236054E+02  0.00000000000E+00 0. -1.
          5    1    1    2  502    0 -0.24456283740E+02  0.15422610465E+02 -0.11091586191E+02  0.31248398553E+02  0.41800000000E+01 0.  1.
         -5    1    1    2    0  502  0.14720478305E+02 -0.27883053922E+02  0.16342765836E+03  0.16649393110E+03  0.41800000000E+01 0.  1.
        -11    1    1    2    0    0 -0.78835066268E+01 -0.12500534646E+02 -0.13996458862E+02  0.20354702254E+02  0.00000000000E+00 0. -1.
         11    1    1    2    0    0  0.17619312062E+02  0.24960978104E+02  0.40804045315E+02  0.50975098818E+02  0.00000000000E+00 0.  1.
</event>
<event>
 6    1  0.6981059E-006  0.9517827E+02  0.7561462E-02  0.1290775E+00
          2   -1    0    0  501    0  0.00000000000E+00  0.00000000000E+00  0.36611550007E+03  0.36611550007E+03  0.00000000000E+00 0. -1.
         -2   -1    0    0    0  501 -0.00000000000E+00 -0.00000000000E+00 -0.12259284826E+03  0.12259284826E+03  0.00000000000E+00 0.  1.
          5    1    1    2  502    0  0.64860538116E+02  0.39664428224E+02  0.19577455796E+03  0.21006024425E+03  0.41800000000E+01 0. -1.
         -5    1    1    2    0  502 -0.34057273242E+02 -0.14312199950E+00 -0.10239925433E+03  0.10799536115E+03  0.41800000000E+01 0.  1.
        -11    1    1    2    0    0 -0.18339836396E+02 -0.56179144268E+02  0.12290657814E+03  0.13637621787E+03  0.00000000000E+00 0. -1.
         11    1    1    2    0    0 -0.12463428478E+02  0.16657838044E+02  0.27240770033E+02  0.34276525053E+02  0.00000000000E+00 0.  1.
</event>
<event>
 6    1  0.6981059E-006  0.1086206E+03  0.7561462E-02  0.1263146E+00
          1   -1    0    0  501    0  0.00000000000E+00  0.00000000000E+00  0.19042628556E+03  0.19042628556E+03  0.00000000000E+00 0. -1.
         -1   -1    0    0    0  501 -0.00000000000E+00 -0.00000000000E+00 -0.81652932865E+02  0.81652932865E+02  0.00000000000E+00 0.  1.
          5    1    1    2  502    0  0.28023833443E+02 -0.82524523728E+02 -0.55316175060E+01  0.87428276030E+02  0.41800000000E+01 0. -1.
         -5    1    1    2    0  502 -0.14286887560E+02  0.27581400628E+02  0.46112119021E+02  0.55755257486E+02  0.41800000000E+01 0. -1.
        -11    1    1    2    0    0  0.12459216942E+02 -0.17573952275E+02 -0.55061584223E+01  0.22234964942E+02  0.00000000000E+00 0.  1.
         11    1    1    2    0    0 -0.26196162825E+02  0.72517075375E+02  0.73699009607E+02  0.10666071997E+03  0.00000000000E+00 0. -1.
</event>
<event>
 6    1  0.6981059E-006  0.9862731E+02  0.7561462E-02  0.1283209E+00
         -2   -1    0    0    0  501 -0.00000000000E+00  0.00000000000E+00  0.18903910539E+03  0.18903910539E+03  0.00000000000E+00 0.  1.
          2   -1    0    0  501    0  0.00000000000E+00 -0.00000000000E+00 -0.73286267285E+02  0.73286267285E+02  0.00000000000E+00 0. -1.
          5    1    1    2  502    0 -0.47395396361E+02 -0.32388804720E+02 -0.85107086941E+01  0.58183011523E+02  0.41800000000E+01 0.  1.
         -5    1    1    2    0  502  0.42874745020E+02 -0.14831882696E+02  0.83662084941E+02  0.95263032502E+02  0.41800000000E+01 0.  1.
        -11    1    1    2    0    0  0.33885821840E+02 -0.49744026041E+01 -0.36110536812E+01  0.34438834355E+02  0.00000000000E+00 0. -1.
         11    1    1    2    0    0 -0.29365170499E+02  0.52195090020E+02  0.44212515540E+02  0.74440494296E+02  0.00000000000E+00 0.  1.
</event>
<event>
 6    1  0.6981059E-006  0.2564720E+03  0.7561462E-02  0.1109282E+00
          1   -1    0    0  501    0  0.00000000000E+00  0.00000000000E+00  0.14161635998E+03  0.14161635998E+03  0.00000000000E+00 0. -1.
         -1   -1    0    0    0  501 -0.00000000000E+00 -0.00000000000E+00 -0.57726636904E+03  0.57726636904E+03  0.00000000000E+00 0.  1.
          5    1    1    2  502    0  0.23570794241E+01 -0.16433557006E+02 -0.18192173125E+02  0.24980896347E+02  0.41800000000E+01 0.  1.
         -5    1    1    2    0  502 -0.17138406703E+03  0.18317175971E+03 -0.35066103102E+03  0.43116704775E+03  0.41800000000E+01 0.  1.
        -11    1    1    2    0    0  0.66062743586E+02 -0.10743348258E+03 -0.69262313611E+02  0.14388713409E+03  0.00000000000E+00 0.  1.
         11    1    1    2    0    0  0.10296424402E+03 -0.59304720126E+02  0.24655087031E+01  0.11884765084E+03  0.00000000000E+00 0. -1.
</event>
<event>
 6    1  0.6981059E-006  0.1040547E+03  0.7561462E-02  0.1271993E+00
         -2   -1    0    0    0  501 -0.00000000000E+00  0.00000000000E+00  0.16035477916E+02  0.16035477916E+02  0.00000000000E+00 0.  1.
          2   -1    0    0  501    0  0.00000000000E+00 -0.00000000000E+00 -0.75424523000E+03  0.75424523000E+03  0.00000000000E+00 0. -1.
          5    1    1    2  502    0 -0.50650974177E+02 -0.30600566080E+02 -0.14236285869E+03  0.15422895891E+03  0.41800000000E+01 0.  1.
         -5    1    1    2    0  502  0.59822655586E+02  0.12779057316E+02 -0.28456795856E+03  0.29109869437E+03  0.41800000000E+01 0.  1.
        -11    1    1    2    0    0 -0.39194574006E+02 -0.15920628102E+02 -0.94773212237E+02  0.10378652508E+03  0.00000000000E+00 0.  1.
         11    1    1    2    0    0  0.30022892598E+02  0.33742136867E+02 -0.21650572259E+03  0.22116652955E+03  0.00000000000E+00 0. -1.
</event>
<event>
 6    1  0.6981059E-006  0.1355657E+03  0.7561462E-02  0.1219423E+00
         -1   -1    0    0    0  501 -0.00000000000E+00  0.00000000000E+00  0.75704025332E+03  0.75704025332E+03  0.00000000000E+00 0.  1.
          1   -1    0    0  501    0  0.00000000000E+00 -0.00000000000E+00 -0.24921167892E+02  0.24921167892E+02  0.00000000000E+00 0. -1.
          5    1    1    2  502    0  0.28822193274E+02 -0.37159828445E+02  0.97584781664E+02  0.10840587478E+03  0.41800000000E+01 0. -1.
         -5    1    1    2    0  502 -0.10143843218E+03 -0.55248616801E+01  0.30484109444E+03  0.32135003482E+03  0.41800000000E+01 0. -1.
        -11    1    1    2    0    0  0.69557226948E+02 -0.92938269657E+01  0.21700153973E+03  0.22806633089E+03  0.00000000000E+00 0.  1.
         11    1    1    2    0    0  0.30590119608E+01  0.51978517091E+02  0.11269166960E+03  0.12413918072E+03  0.00000000000E+00 0. -1.
</event>
<event>
 6    1  0.6981059E-006  0.8413038E+02  0.7561462E-02  0.1317722E+00
         -4   -1    0    0    0  501 -0.00000000000E+00  0.00000000000E+00  0.35288860707E+02  0.35288860707E+02  0.00000000000E+00 0.  1.
          4   -1    0    0  501    0  0.00000000000E+00 -0.00000000000E+00 -0.42684848727E+03  0.42684848727E+03  0.00000000000E+00 0. -1.
          5    1    1    2  502    0  0.98357822907E+01  0.26470013911E+02  0.13816882336E+02  0.31714080268E+02  0.41800000000E+01 0. -1.
         -5    1    1    2    0  502  0.30118218392E+02 -0.21776600772E+02 -0.16232833945E+03  0.16658118024E+03  0.41800000000E+01 0. -1.
        -11    1    1    2    0    0  0.28720805905E+02 -0.15748662446E+02 -0.88290708364E+02  0.94170877898E+02  0.00000000000E+00 0. -1.
         11    1    1    2    0    0 -0.68674806588E+02  0.11055249307E+02 -0.15475746109E+03  0.16967120958E+03  0.00000000000E+00 0.  1.
</event>
<event>
 6    1  0.6981059E-006  0.1044162E+03  0.7561462E-02  0.1271274E+00
          2   -1    0    0  501    0  0.00000000000E+00  0.00000000000E+00  0.19708410950E+03  0.19708410950E+03  0.00000000000E+00 0. -1.
         -2   -1    0    0    0  501 -0.00000000000E+00 -0.00000000000E+00 -0.58776433281E+02  0.58776433281E+02  0.00000000000E+00 0.  1.
          5    1    1    2  502    0 -0.31850954378E+02 -0.40295967204E+02  0.38721813656E+02  0.64460061437E+02  0.41800000000E+01 0.  1.
         -5    1    1    2    0  502  0.52678761031E+02  0.51659370991E+02  0.26252372066E+02  0.78424498175E+02  0.41800000000E+01 0.  1.
        -11    1    1    2    0    0  0.22474868154E+02  0.19876651302E+02  0.40103509644E+02  0.50084852513E+02  0.00000000000E+00 0.  1.
         11    1    1    2    0    0 -0.43302674807E+02 -0.31240055088E+02  0.33229980849E+02  0.62891130652E+02  0.00000000000E+00 0. -1.
</event>
<event>
 6    1  0.6981059E-006  0.2429320E+03  0.7561462E-02  0.1117855E+00
         -1   -1    0    0    0  501 -0.00000000000E+00  0.00000000000E+00  0.37217130358E+03  0.37217130358E+03  0.00000000000E+00 0.  1.
          1   -1    0    0  501    0  0.00000000000E+00 -0.00000000000E+00 -0.20545003513E+03  0.20545003513E+03  0.00000000000E+00 0. -1.
          5    1    1    2  502    0  0.62649312561E+02  0.82946656170E+02 -0.23369841300E+02  0.10662413431E+03  0.41800000000E+01 0. -1.
         -5    1    1    2    0  502  0.87513270469E+02  0.96902400019E+02  0.17619914592E+03  0.21934506847E+03  0.41800000000E+01 0.  1.
        -11    1    1    2    0    0 -0.19065615702E+02 -0.90642418173E+02  0.80544290814E+01  0.92975370407E+02  0.00000000000E+00 0. -1.
         11    1    1    2    0    0 -0.13109696733E+03 -0.89206638015E+02  0.58375347428E+01  0.15867676553E+03  0.00000000000E+00 0.  1.
</event>
<event>
 6    1  0.6981059E-006  0.1467580E+03  0.7561462E-02  0.1204514E+00
          1   -1    0    0  501    0  0.00000000000E+00  0.00000000000E+00  0.56772545876E+02  0.56772545876E+02  0.00000000000E+00 0. -1.
         -1   -1    0    0    0  501 -0.00000000000E+00 -0.00000000000E+00 -0.45665517584E+03  0.45665517584E+03  0.00000000000E+00 0.  1.
          5    1    1    2  502    0  0.25121557982E+01 -0.30469563660E+02 -0.39478023092E+02  0.50106805363E+02  0.41800000000E+01 0.  1.
         -5    1    1    2    0  502 -0.83568322050E+02  0.10740066008E+03 -0.23309589501E+03  0.26994394772E+03  0.41800000000E+01 0.  1.
        -11    1    1    2    0    0  0.73745532571E+02 -0.30990188052E+02 -0.12291325952E+03  0.14665082576E+03  0.00000000000E+00 0.  1.
         11    1    1    2    0    0  0.73106336807E+01 -0.45940908372E+02 -0.43954523374E+01  0.46726142877E+02  0.00000000000E+00 0. -1.
</event>
<event>
 6    1  0.6981059E-006  0.9566166E+02  0.7561462E-02  0.1289693E+00
         -2   -1    0    0    0  501 -0.00000000000E+00  0.00000000000E+00  0.46319320727E+02  0.46319320727E+02  0.00000000000E+00 0.  1.
          2   -1    0    0  501    0  0.00000000000E+00 -0.00000000000E+00 -0.40354005843E+03  0.40354005843E+03  0.00000000000E+00 0. -1.
          5    1    1    2  502    0 -0.28650228365E+01  0.62035292833E+01  0.19562427331E+02  0.21138900031E+02  0.41800000000E+01 0. -1.
         -5    1    1    2    0  502  0.37383187054E+02  0.21690083677E+02 -0.18992790342E+03  0.19482824051E+03  0.41800000000E+01 0. -1.
        -11    1    1    2    0    0 -0.85732877935E+02 -0.14454802593E+02 -0.10388355166E+03  0.13546534605E+03  0.00000000000E+00 0. -1.
         11    1    1    2    0    0  0.51214713717E+02 -0.13438810367E+02 -0.82971709954E+02  0.98426892554E+02  0.00000000000E+00 0.  1.
</event>
<event>
 6    1  0.6981059E-006  0.1591206E+03  0.7561462E-02  0.1189693E+00
          2   -1    0    0  501    0  0.00000000000E+00  0.00000000000E+00  0.87625975735E+02  0.87625975735E+02  0.00000000000E+00 0. -1.
         -2   -1    0    0    0  501 -0.00000000000E+00 -0.00000000000E+00 -0.31272391755E+03  0.31272391755E+03  0.00000000000E+00 0.  1.
          5    1    1    2  502    0  0.10875809845E+03  0.70533729796E+02 -0.70729455452E+02  0.14772765241E+03  0.41800000000E+01 0. -1.
         -5    1    1    2    0  502 -0.35308527796E+02  0.29648995696E+02 -0.32526819355E+02  0.56579337733E+02  0.41800000000E+01 0. -1.
        -11    1    1    2    0    0 -0.13243883152E+02 -0.76365866682E+02 -0.28785059255E+02  0.82678447441E+02  0.00000000000E+00 0. -1.
         11    1    1    2    0    0 -0.60205687500E+02 -0.23816858810E+02 -0.93056607757E+02  0.11336445571E+03  0.00000000000E+00 0.  1.
</event>
<event>
 6    1  0.6981059E-006  0.9420736E+02  0.7561462E-02  0.1292971E+00
         -2   -1    0    0    0  501 -0.00000000000E+00  0.00000000000E+00  0.98996057140E+02  0.98996057140E+02  0.00000000000E+00 0.  1.
          2   -1    0    0  501    0  0.00000000000E+00 -0.00000000000E+00 -0.26650145877E+03  0.26650145877E+03  0.00000000000E+00 0. -1.
          5    1    1    2  502    0  0.12709941054E+02  0.57127585118E+01 -0.39768989887E+02  0.42346465827E+02  0.41800000000E+01 0. -1.
         -5    1    1    2    0  502 -0.98813898559E+01 -0.63824939258E+02  0.70920442661E+02  0.96012740425E+02  0.41800000000E+01 0.  1.
        -11    1    1    2    0    0  0.39430296177E+02  0.27880402364E+01 -0.57904343051E+02  0.70110158815E+02  0.00000000000E+00 0.  1.
         11    1    1    2    0    0 -0.42258847375E+02  0.55324140510E+02 -0.14075251135E+03  0.15702815084E+03  0.00000000000E+00 0. -1.
</event>
<event>
 6    1  0.6981059E-006  0.1086483E+03  0.7561462E-02  0.1263094E+00
         -1   -1    0    0    0  501 -0.00000000000E+00  0.00000000000E+00  0.12708890984E+04  0.12708890984E+04  0.00000000000E+00 0.  1.
          1   -1    0    0  501    0  0.00000000000E+00 -0.00000000000E+00 -0.12723045966E+02  0.12723045966E+02  0.00000000000E+00 0. -1.
          5    1    1    2  502    0 -0.13163834497E+02  0.44417343246E+02  0.17306331471E+03  0.17920538557E+03  0.41800000000E+01 0.  1.
         -5    1    1    2    0  502 -0.27031819819E+02 -0.64408711065E+02  0.77041146750E+03  0.77358289989E+03  0.41800000000E+01 0.  1.
        -11    1    1    2    0    0  0.34476833394E+02  0.55228883053E+02  0.22678312077E+03  0.23594377599E+03  0.00000000000E+00 0.  1.
         11    1    1    2    0    0  0.57188209210E+01 -0.35237515234E+02  0.87908149443E+02  0.94880082900E+02  0.00000000000E+00 0. -1.
</event>
<event>
 6    1  0.6981059E-006  0.2328494E+03  0.7561462E-02  0.1124650E+00
          1   -1    0    0  501    0  0.00000000000E+00  0.00000000000E+00  0.11293294336E+04  0.11293294336E+04  0.00000000000E+00 0. -1.
         -1   -1    0    0    0  501 -0.00000000000E+00 -0.00000000000E+00 -0.58970469022E+02  0.58970469022E+02  0.00000000000E+00 0.  1.
          5    1    1    2  502    0 -0.88005303056E+02 -0.10281515861E+03  0.22349362919E+03  0.26130971068E+03  0.41800000000E+01 0. -1.
         -5    1    1    2    0  502 -0.10116595543E+03  0.11889909592E+02  0.88733813586E+02  0.13515577147E+03  0.41800000000E+01 0. -1.
        -11    1    1    2    0    0  0.10816688598E+03  0.21726727214E+01  0.37605571088E+03  0.39130894880E+03  0.00000000000E+00 0.  1.
         11    1    1    2    0    0  0.81004372505E+02  0.88752576295E+02  0.38207581088E+03  0.40052547163E+03  0.00000000000E+00 0. -1.
</event>
<event>
 6    1  0.6981059E-006  0.1045695E+03  0.7561462E-02  0.1270970E+00
          2   -1    0    0  501    0  0.00000000000E+00  0.00000000000E+00  0.16380107331E+03  0.16380107331E+03  0.00000000000E+00 0. -1.
         -2   -1    0    0    0  501 -0.00000000000E+00 -0.00000000000E+00 -0.10422058455E+03  0.10422058455E+03  0.00000000000E+00 0.  1.
          5    1    1    2  502    0 -0.34876312033E+02  0.18813820754E+02  0.19561493041E+02  0.44389654227E+02  0.41800000000E+01 0. -1.
         -5    1    1    2    0  502  0.92854186258E+02  0.74130585475E+01 -0.22810488202E+02  0.95992937838E+02  0.41800000000E+01 0. -1.
        -11    1    1    2    0    0 -0.33256409300E+02 -0.36409973164E+02 -0.97720341834E+01  0.50270941481E+02  0.00000000000E+00 0.  1.
         11    1    1    2    0    0 -0.24721464925E+02  0.10183093862E+02  0.72601518107E+02  0.77368124316E+02  0.00000000000E+00 0. -1.
</event>
<event>
 6    1  0.6981059E-006  0.1408391E+03  0.7561462E-02  0.1212204E+00
          1   -1    0    0  501    0  0.00000000000E+00  0.00000000000E+00  0.93604252153E+03  0.93604252153E+03  0.00000000000E+00 0. -1.
         -1   -1    0    0    0  501 -0.00000000000E+00 -0.00000000000E+00 -0.24929688979E+02  0.24929688979E+02  0.00000000000E+00 0.  1.
          5    1    1    2  502    0  0.83716979655E+02 -0.88264771453E+02  0.32221752776E+03  0.34444275309E+03  0.41800000000E+01 0.  1.
         -5    1    1    2    0  502 -0.20322523755E+02  0.48901458019E+01  0.24059882209E+03  0.24154126788E+03  0.41800000000E+01 0.  1.
        -11    1    1    2    0    0 -0.85868996996E+02  0.53200748648E+02  0.26450888174E+03  0.28314087099E+03  0.00000000000E+00 0.  1.
         11    1    1    2    0    0  0.22474541096E+02  0.30173877002E+02  0.83787600957E+02  0.91847318550E+02  0.00000000000E+00 0. -1.
</event>
<event>
 6    1  0.6981059E-006  0.1038455E+03  0.7561462E-02  0.1272411E+00
          1   -1    0    0  501    0  0.00000000000E+00  0.00000000000E+00  0.94275875512E+02  0.94275875512E+02  0.00000000000E+00 0. -1.
         -1   -1    0    0    0  501 -0.00000000000E+00 -0.00000000000E+00 -0.19351831213E+03  0.19351831213E+03  0.00000000000E+00 0.  1.
          5    1    1    2  502    0  0.53611555586E+02 -0.40978990206E+01 -0.13262434829E+02  0.55536980890E+02  0.41800000000E+01 0. -1.
         -5    1    1    2    0  502 -0.63564204390E+02  0.38678563399E+02 -0.45109747140E+02  0.87113724713E+02  0.41800000000E+01 0. -1.
        -11    1    1    2    0    0  0.25185443323E+02 -0.50974984831E+02 -0.81137192606E+02  0.99075726886E+02  0.00000000000E+00 0.  1.
         11    1    1    2    0    0 -0.15232794519E+02  0.16394320452E+02  0.40266937960E+02  0.46067755150E+02  0.00000000000E+00 0. -1.
</event>
<event>
 6    1  0.1578171E-005  0.1532742E+03  0.7561462E-02  0.1196506E+00
         -1   -1    0    0    0  501 -0.00000000000E+00  0.00000000000E+00  0.36652956181E+03  0.36652956181E+03  0.00000000000E+00 0.  1.
          1   -1    0    0  501    0  0.00000000000E+00 -0.00000000000E+00 -0.73065740587E+02  0.73065740587E+02  0.00000000000E+00 0. -1.
          5    1    1    2  502    0 -0.11539365808E+03  0.22001851198E+02  0.16689361114E+03  0.20413409225E+03  0.41800000000E+01 0. -1.
         -5    1    1    2    0  502  0.97004580925E+01  0.38286651205E+02  0.36735207470E+01  0.39886510281E+02  0.41800000000E+01 0. -1.
        -11    1    1    2    0    0  0.20048403976E+02  0.22521504765E+02  0.10894305844E+02  0.32059984072E+02  0.00000000000E+00 0.  1.
         11    1    1    2    0    0  0.85644796013E+02 -0.82810007168E+02  0.11200238349E+03  0.16351471579E+03  0.00000000000E+00 0. -1.
</event>
<event>
 6    1  0.6981059E-006  0.1361252E+03  0.7561462E-02  0.1218640E+00
          1   -1    0    0  501    0  0.00000000000E+00  0.00000000000E+00  0.90106410828E+03  0.90106410828E+03  0.00000000000E+00 0. -1.
         -1   -1    0    0    0  501 -0.00000000000E+00 -0.00000000000E+00 -0.20989732581E+02  0.20989732581E+02  0.00000000000E+00 0.  1.
          5    1    1    2  502    0  0.37485109705E+02  0.16954138027E+01  0.11555990979E+03  0.12157126728E+03  0.41800000000E+01 0.  1.
         -5    1    1    2    0  502 -0.91081963877E+02 -0.66654147136E+02  0.37743413027E+03  0.39397042347E+03  0.41800000000E+01 0.  1.
        -11    1    1    2    0    0  0.94168646205E+01  0.75537951412E+02  0.20004960226E+03  0.21404322649E+03  0.00000000000E+00 0. -1.
         11    1    1    2    0    0  0.44179989551E+02 -0.10579218078E+02  0.18703073339E+03  0.19246892363E+03  0.00000000000E+00 0.  1.
</event>
<event>
 6    1  0.6981059E-006  0.1341403E+03  0.7561462E-02  0.1221438E+00
         -1   -1    0    0    0  501 -0.00000000000E+00  0.00000000000E+00  0.70543522362E+03  0.70543522362E+03  0.00000000000E+00 0.  1.
          1   -1    0    0  501    0  0.00000000000E+00 -0.00000000000E+00 -0.33835093662E+02  0.33835093662E+02  0.00000000000E+00 0. -1.
          5    1    1    2  502    0 -0.31318693048E+02 -0.51088020427E+02  0.15782350399E+03  0.16886852039E+03  0.41800000000E+01 0. -1.
         -5    1    1    2    0  502 -0.55049423247E+02  0.72222404434E+02  0.35241026695E+03  0.36394640176E+03  0.41800000000E+01 0. -1.
        -11    1    1    2    0    0  0.78652433394E+02  0.15244977568E+02  0.65018498143E+02  0.10317955088E+03  0.00000000000E+00 0. -1.
         11    1    1    2    0    0  0.77156829006E+01 -0.36379361574E+02  0.96347860869E+02  0.10327584425E+03  0.00000000000E+00 0.  1.
</event>
<event>
 6    1  0.6981059E-006  0.6985821E+02  0.7561462E-02  0.1360576E+00
          2   -1    0    0  501    0  0.00000000000E+00  0.00000000000E+00  0.53933070866E+03  0.53933070866E+03  0.00000000000E+00 0. -1.
         -2   -1    0    0    0  501 -0.00000000000E+00 -0.00000000000E+00 -0.27369047159E+02  0.27369047159E+02  0.00000000000E+00 0.  1.
          5    1    1    2  502    0 -0.34706151842E+02 -0.19737152624E+02  0.65169525379E+01  0.40669586176E+02  0.41800000000E+01 0. -1.
         -5    1    1    2    0  502  0.18837981880E+02 -0.59513962730E+01  0.21172264208E+03  0.21268342260E+03  0.41800000000E+01 0. -1.
        -11    1    1    2    0    0 -0.27490612985E+02  0.23161322902E+02  0.32254054135E+02  0.48296011109E+02  0.00000000000E+00 0.  1.
         11    1    1    2    0    0  0.43358782947E+02  0.25272259956E+01  0.26146801275E+03  0.26505073594E+03  0.00000000000E+00 0. -1.
</event>
<event>
 6    1  0.6981059E-006  0.1195844E+03  0.7561462E-02  0.1243784E+00
          1   -1    0    0  501    0  0.00000000000E+00  0.00000000000E+00  0.33785344789E+03  0.33785344789E+03  0.00000000000E+00 0.  1.
         -1   -1    0    0    0  501 -0.00000000000E+00 -0.00000000000E+00 -0.53318046035E+02  0.53318046035E+02  0.00000000000E+00 0. -1.
          5    1    1    2  502    0 -0.45094257119E+02  0.13456116761E+02  0.39649448664E+02  0.61677469815E+02  0.41800000000E+01 0. -1.
         -5    1    1    2    0  502  0.40338681432E+02 -0.90153078579E+02  0.11196412677E+03  0.14935938163E+03  0.41800000000E+01 0. -1.
        -11    1    1    2    0    0 -0.18313864789E+02  0.69192543592E+01  0.95836059242E+02  0.97815254308E+02  0.00000000000E+00 0.  1.
         11    1    1    2    0    0  0.23069440476E+02  0.69777707459E+02  0.37085767178E+02  0.82319388173E+02  0.00000000000E+00 0. -1.
</event>
<event>
 6    1  0.6981059E-006  0.1847227E+03  0.7561462E-02  0.1163309E+00
          2   -1    0    0  501    0  0.00000000000E+00  0.00000000000E+00  0.75917948951E+03  0.75917948951E+03  0.00000000000E+00 0. -1.
         -2   -1    0    0    0  501 -0.00000000000E+00 -0.00000000000E+00 -0.62758639325E+02  0.62758639325E+02  0.00000000000E+00 0.  1.
          5    1    1    2  502    0  0.59448430835E+02 -0.19476564624E+02  0.13018835655E+03  0.14449890339E+03  0.41800000000E+01 0. -1.
         -5    1    1    2    0  502  0.80978065071E+02  0.10500182254E+03  0.41709423415E+03  0.43768470652E+03  0.41800000000E+01 0.  1.
        -11    1    1    2    0    0 -0.11384175905E+03 -0.92402229365E+02  0.15312910100E+03  0.21200622554E+03  0.00000000000E+00 0. -1.
         11    1    1    2    0    0 -0.26584736854E+02  0.68769714465E+01 -0.39908415160E+01  0.27748293387E+02  0.00000000000E+00 0.  1.
</event>
<event>
 6    1  0.6981059E-006  0.1286166E+03  0.7561462E-02  0.1229523E+00
         -1   -1    0    0    0  501 -0.00000000000E+00  0.00000000000E+00  0.26803949135E+03  0.26803949135E+03  0.00000000000E+00 0.  1.
          1   -1    0    0  501    0  0.00000000000E+00 -0.00000000000E+00 -0.17526001905E+03  0.17526001905E+03  0.00000000000E+00 0. -1.
          5    1    1    2  502    0  0.11260341075E+02 -0.64324698295E+02  0.43202769778E+02  0.78411821866E+02  0.41800000000E+01 0.  1.
         -5    1    1    2    0  502  0.66075303210E+02  0.21645563161E+02  0.17329524483E+03  0.18677042159E+03  0.41800000000E+01 0.  1.
        -11    1    1    2    0    0  0.12910672824E+02  0.27832758664E+02 -0.10185657587E+02  0.32327937579E+02  0.00000000000E+00 0.  1.
         11    1    1    2    0    0 -0.90246317110E+02  0.14846376470E+02 -0.11353288472E+03  0.14578932937E+03  0.00000000000E+00 0. -1.
</event>
<event>
 6    1  0.6981059E-006  0.1320959E+03  0.7561462E-02  0.1224379E+00
          1   -1    0    0  501    0  0.00000000000E+00  0.00000000000E+00  0.10903495094E+03  0.10903495094E+03  0.00000000000E+00 0. -1.
         -1   -1    0    0    0  501 -0.00000000000E+00 -0.00000000000E+00 -0.19021021985E+03  0.19021021985E+03  0.00000000000E+00 0.  1.
          5    1    1    2  502    0 -0.64452181416E+02  0.40627242868E+01 -0.30905120645E+02  0.71716025405E+02  0.41800000000E+01 0.  1.
         -5    1    1    2    0  502  0.36022611986E+02  0.82255951533E+02 -0.44951902770E+02  0.10050779124E+03  0.41800000000E+01 0.  1.
        -11    1    1    2    0    0  0.43165621859E+02 -0.33199729879E+02 -0.34682696225E+02  0.64563011020E+02  0.00000000000E+00 0.  1.
         11    1    1    2    0    0 -0.14736052429E+02 -0.53118945941E+02  0.29364450734E+02  0.62458343126E+02  0.00000000000E+00 0. -1.
</event>
<event>
 6    1  0.6981059E-006  0.1036575E+03  0.7561462E-02  0.1272787E+00
          3   -1    0    0  501    0  0.00000000000E+00  0.00000000000E+00  0.51773503652E+03  0.51773503652E+03  0.00000000000E+00 0. -1.
         -3   -1    0    0    0  501 -0.00000000000E+00 -0.00000000000E+00 -0.29885036645E+02  0.29885036645E+02  0.00000000000E+00 0.  1.
          5    1    1    2  502    0  0.21200667743E+02  0.44791351473E+02  0.18609752633E+03  0.19262786710E+03  0.41800000000E+01 0.  1.
         -5    1    1    2    0  502  0.26403351891E+02 -0.57992794331E+02  0.58994125132E+02  0.86937220944E+02  0.41800000000E+01 0.  1.
        -11    1    1    2    0    0 -0.32819862679E+02  0.46717981779E+02  0.21399287218E+03  0.22147835684E+03  0.00000000000E+00 0. -1.
         11    1    1    2    0    0 -0.14784156955E+02 -0.33516538921E+02  0.28765476239E+02  0.46576628274E+02  0.00000000000E+00 0.  1.
</event>
<event>
 6    1  0.6981059E-006  0.1041910E+03  0.7561462E-02  0.1271722E+00
          3   -1    0    0  501    0  0.00000000000E+00  0.00000000000E+00  0.18615103212E+03  0.18615103212E+03  0.00000000000E+00 0. -1.
         -3   -1    0    0    0  501 -0.00000000000E+00 -0.00000000000E+00 -0.64400597921E+02  0.64400597921E+02  0.00000000000E+00 0.  1.
          5    1    1    2  502    0 -0.50803490322E+02 -0.48191399303E+02  0.78827837512E+01  0.70590482895E+02  0.41800000000E+01 0. -1.
         -5    1    1    2    0  502  0.32049325716E+02  0.39332188778E+02  0.39880342646E+02  0.64669115368E+02  0.41800000000E+01 0.  1.
        -11    1    1    2    0    0  0.52520329527E+02  0.10330371573E+02  0.53963027449E+02  0.76007301767E+02  0.00000000000E+00 0.  1.
         11    1    1    2    0    0 -0.33766164921E+02 -0.14711610475E+01  0.20024280350E+02  0.39284730008E+02  0.00000000000E+00 0. -1.
</event>
<event>
 6    1  0.6981059E-006  0.6889545E+02  0.7561462E-02  0.1363890E+00
         -2   -1    0    0    0  501 -0.00000000000E+00  0.00000000000E+00  0.32593056024E+03  0.32593056024E+03  0.00000000000E+00 0. -1.
          2   -1    0    0  501    0  0.00000000000E+00 -0.00000000000E+00 -0.44131425734E+02  0.44131425734E+02  0.00000000000E+00 0.  1.
          5    1    1    2  502    0 -0.53609716692E+02 -0.37069886067E+01  0.15030148202E+02  0.55956422717E+02  0.41800000000E+01 0. -1.
         -5    1    1    2    0  502  0.11857053788E+02  0.23212729766E+02  0.17164740967E+03  0.17366555846E+03  0.41800000000E+01 0. -1.
        -11    1    1    2    0    0  0.27442832240E+02  0.61426263702E+01 -0.11099625049E+02  0.30233137057E+02  0.00000000000E+00 0.  1.
         11    1    1    2    0    0  0.14309830664E+02 -0.25648367529E+02  0.10622120168E+03  0.11020686774E+03  0.00000000000E+00 0. -1.
</event>
<event>
 6    1  0.6981059E-006  0.4462527E+02  0.7561462E-02  0.1476695E+00
         -2   -1    0    0    0  501 -0.00000000000E+00  0.00000000000E+00  0.19209789762E+03  0.19209789762E+03  0.00000000000E+00 0.  1.
          2   -1    0    0  501    0  0.00000000000E+00 -0.00000000000E+00 -0.39660700714E+02  0.39660700714E+02  0.00000000000E+00 0. -1.
          5    1    1    2  502    0 -0.18659922784E+02 -0.17909241821E+01 -0.98494233502E+01  0.21584338491E+02  0.41800000000E+01 0. -1.
         -5    1    1    2    0  502  0.41633386652E+02  0.50670526176E+01  0.17462368459E+03  0.17963829638E+03  0.41800000000E+01 0.  1.
        -11    1    1    2    0    0 -0.78346813273E+01 -0.87988371364E+01 -0.59858911531E+01  0.13214865090E+02  0.00000000000E+00 0.  1.
         11    1    1    2    0    0 -0.15138782540E+02  0.55227087009E+01 -0.63511731795E+01  0.17321098376E+02  0.00000000000E+00 0. -1.
</event>
<event>
 6    1  0.6981059E-006  0.6328256E+02  0.7561462E-02  0.1384551E+00
          1   -1    0    0  501    0  0.00000000000E+00  0.00000000000E+00  0.53779035246E+03  0.53779035246E+03  0.00000000000E+00 0. -1.
         -1   -1    0    0    0  501 -0.00000000000E+00 -0.00000000000E+00 -0.29126758733E+02  0.29126758733E+02  0.00000000000E+00 0.  1.
          5    1    1    2  502    0 -0.12291609301E+02 -0.15126509346E+01 -0.13669075849E+02  0.18912636162E+02  0.41800000000E+01 0.  1.
         -5    1    1    2    0  502 -0.16069338961E+02 -0.50166982041E+02  0.24471564603E+03  0.25035608551E+03  0.41800000000E+01 0.  1.
        -11    1    1    2    0    0  0.27528564241E+00  0.12186208030E+02 -0.32628780781E+01  0.12618471448E+02  0.00000000000E+00 0.  1.
         11    1    1    2    0    0  0.28085662619E+02  0.39493424946E+02  0.28087990162E+03  0.28502991807E+03  0.00000000000E+00 0. -1.
</event>
<event>
 6    1  0.6981059E-006  0.1223046E+03  0.7561462E-02  0.1239343E+00
         -2   -1    0    0    0  501 -0.00000000000E+00  0.00000000000E+00  0.23620625532E+02  0.23620625532E+02  0.00000000000E+00 0.  1.
          2   -1    0    0  501    0  0.00000000000E+00 -0.00000000000E+00 -0.91678290678E+03  0.91678290678E+03  0.00000000000E+00 0. -1.
          5    1    1    2  502    0 -0.35630638367E+02  0.61105212367E+02 -0.30837945750E+03  0.31641547304E+03  0.41800000000E+01 0.  1.
         -5    1    1    2    0  502 -0.42679639093E+02 -0.19625770899E+02 -0.32290813701E+02  0.57156727740E+02  0.41800000000E+01 0.  1.
        -11    1    1    2    0    0  0.22701972956E+02 -0.62997610984E+02 -0.28098032923E+03  0.28884948326E+03  0.00000000000E+00 0.  1.
         11    1    1    2    0    0  0.55608304505E+02  0.21518169516E+02 -0.27151168082E+03  0.27798184827E+03  0.00000000000E+00 0. -1.
</event>
<event>
 6    1  0.6981059E-006  0.1006928E+03  0.7561462E-02  0.1278846E+00
         -1   -1    0    0    0  501 -0.00000000000E+00  0.00000000000E+00  0.61214311840E+03  0.61214311840E+03  0.00000000000E+00 0.  1.
          1   -1    0    0  501    0  0.00000000000E+00 -0.00000000000E+00 -0.80357126075E+02  0.80357126075E+02  0.00000000000E+00 0. -1.
          5    1    1    2  502    0  0.12839919383E+02  0.17215711996E+02  0.41979186803E+03  0.42036166468E+03  0.41800000000E+01 0.  1.
         -5    1    1    2    0  502  0.69395554198E+02 -0.26035953368E+02  0.13200174464E+03  0.15144486389E+03  0.41800000000E+01 0.  1.
        -11    1    1    2    0    0 -0.80394587219E+02  0.28655478532E+02  0.86571394984E+01  0.85786783180E+02  0.00000000000E+00 0.  1.
         11    1    1    2    0    0 -0.18408863613E+01 -0.19835237160E+02 -0.28664759841E+02  0.34906932728E+02  0.00000000000E+00 0. -1.
</event>
<event>
 6    1  0.6981059E-006  0.1843738E+03  0.7561462E-02  0.1163636E+00
          2   -1    0    0  501    0  0.00000000000E+00  0.00000000000E+00  0.26023840819E+02  0.26023840819E+02  0.00000000000E+00 0.  1.
         -2   -1    0    0    0  501 -0.00000000000E+00 -0.00000000000E+00 -0.16121767223E+04  0.16121767223E+04  0.00000000000E+00 0. -1.
          5    1    1    2  502    0 -0.33490439111E+02  0.90687793044E+02 -0.71123409017E+03  0.71778638100E+03  0.41800000000E+01 0.  1.
         -5    1    1    2    0  502 -0.16992172659E+02  0.72457944119E+02 -0.13178939336E+03  0.15140939271E+03  0.41800000000E+01 0.  1.
        -11    1    1    2    0    0  0.28088235763E+02 -0.17131640898E+03 -0.63715129096E+03  0.66037870086E+03  0.00000000000E+00 0. -1.
         11    1    1    2    0    0  0.22394376007E+02  0.81706718164E+01 -0.10597810695E+03  0.10862608852E+03  0.00000000000E+00 0.  1.
</event>
<event>
 6    1  0.6981059E-006  0.1713079E+03  0.7561462E-02  0.1176491E+00
         -2   -1    0    0    0  501 -0.00000000000E+00  0.00000000000E+00  0.37831318378E+02  0.37831318378E+02  0.00000000000E+00 0.  1.
          2   -1    0    0  501    0  0.00000000000E+00 -0.00000000000E+00 -0.10492220448E+04  0.10492220448E+04  0.00000000000E+00 0. -1.
          5    1    1    2  502    0  0.93033964611E+02 -0.10682020027E+03 -0.36878641119E+03  0.39507817357E+03  0.41800000000E+01 0. -1.
         -5    1    1    2    0  502 -0.12219009483E+02 -0.27759555049E+02 -0.76929291649E+01  0.31568190452E+02  0.41800000000E+01 0. -1.
        -11    1    1    2    0    0 -0.96260102685E+01  0.80006611506E+02 -0.41771435268E+03  0.42541626484E+03  0.00000000000E+00 0. -1.
         11    1    1    2    0    0 -0.71188944859E+02  0.54573143815E+02 -0.21719703334E+03  0.23499073426E+03  0.00000000000E+00 0.  1.
</event>
<event>
 6    1  0.6981059E-006  0.1069062E+03  0.7561462E-02  0.1266409E+00
          1   -1    0    0  501    0  0.00000000000E+00  0.00000000000E+00  0.18884404973E+03  0.18884404973E+03  0.00000000000E+00 0. -1.
         -1   -1    0    0    0  501 -0.00000000000E+00 -0.00000000000E+00 -0.81331851063E+02  0.81331851063E+02  0.00000000000E+00 0.  1.
          5    1    1    2  502    0 -0.41468986558E+02 -0.18791657778E+02  0.43195320303E+01  0.45923131482E+02  0.41800000000E+01 0.  1.
         -5    1    1    2    0  502  0.68301371701E+02  0.52483915118E+02  0.21323216750E+02  0.88835751220E+02  0.41800000000E+01 0.  1.
        -11    1    1    2    0    0 -0.30814228706E+02 -0.53451673134E+02  0.93592773558E+02  0.11209908703E+03  0.00000000000E+00 0. -1.
         11    1    1    2    0    0  0.39818435624E+01  0.19759415795E+02 -0.11723323673E+02  0.23317931054E+02  0.00000000000E+00 0.  1.
</event>
<event>
 6    1  0.6981059E-006  0.2831362E+03  0.7561462E-02  0.1093988E+00
          1   -1    0    0  501    0  0.00000000000E+00  0.00000000000E+00  0.84356391082E+03  0.84356391082E+03  0.00000000000E+00 0. -1.
         -1   -1    0    0    0  501 -0.00000000000E+00 -0.00000000000E+00 -0.98270851452E+02  0.98270851452E+02  0.00000000000E+00 0.  1.
          5    1    1    2  502    0  0.73953421006E+02  0.23612357216E+02  0.73517957253E+02  0.10700006697E+03  0.41800000000E+01 0.  1.
         -5    1    1    2    0  502  0.16499315485E+03 -0.13597605039E+03  0.24657433950E+03  0.32638720062E+03  0.41800000000E+01 0.  1.
        -11    1    1    2    0    0 -0.53090384291E+02  0.62993178314E+02  0.16995744103E+03  0.18887101731E+03  0.00000000000E+00 0.  1.
         11    1    1    2    0    0 -0.18585619157E+03  0.49370514860E+02  0.25524332158E+03  0.31957647738E+03  0.00000000000E+00 0. -1.
</event>
<event>
 6    1  0.6981059E-006  0.1109527E+03  0.7561462E-02  0.1258816E+00
         -2   -1    0    0    0  501 -0.00000000000E+00  0.00000000000E+00  0.34301166129E+03  0.34301166129E+03  0.00000000000E+00 0.  1.
          2   -1    0    0  501    0  0.00000000000E+00 -0.00000000000E+00 -0.64336617236E+02  0.64336617236E+02  0.00000000000E+00 0. -1.
          5    1    1    2  502    0  0.23598327884E+01 -0.90518493239E+02  0.79017074662E+02  0.12025114102E+03  0.41800000000E+01 0. -1.
         -5    1    1    2    0  502 -0.15447788681E+02  0.12539952984E+02  0.15708442845E+03  0.15839468002E+03  0.41800000000E+01 0. -1.
        -11    1    1    2    0    0  0.41845642858E+02  0.69186448076E+02  0.53222314262E+02  0.96801018378E+02  0.00000000000E+00 0.  1.
         11    1    1    2    0    0 -0.28757686966E+02  0.87920921789E+01 -0.10648773315E+02  0.31901439115E+02  0.00000000000E+00 0. -1.
</event>
<event>
 6    1  0.6981059E-006  0.1343108E+03  0.7561462E-02  0.1221196E+00
         -1   -1    0    0    0  501 -0.00000000000E+00  0.00000000000E+00  0.43982474131E+02  0.43982474131E+02  0.00000000000E+00 0.  1.
          1   -1    0    0  501    0  0.00000000000E+00 -0.00000000000E+00 -0.62361557829E+03  0.62361557829E+03  0.00000000000E+00 0. -1.
          5    1    1    2  502    0  0.69247664414E+02  0.41715775911E+02 -0.35364600645E+02  0.88337830885E+02  0.41800000000E+01 0.  1.
         -5    1    1    2    0  502  0.41515408225E+02  0.90000975637E+01 -0.20125151590E+03  0.20572840331E+03  0.41800000000E+01 0.  1.
        -11    1    1    2    0    0  0.97382092924E+01  0.63810513619E+01 -0.53948209835E+02  0.55190215448E+02  0.00000000000E+00 0. -1.
         11    1    1    2    0    0 -0.12050128193E+03 -0.57096924837E+02 -0.28906877778E+03  0.31834160278E+03  0.00000000000E+00 0.  1.
</event>
<event>
 6    1  0.6981059E-006  0.8923980E+02  0.7561462E-02  0.1304703E+00
         -1   -1    0    0    0  501 -0.00000000000E+00  0.00000000000E+00  0.76642692871E+02  0.76642692871E+02  0.00000000000E+00 0.  1.
          1   -1    0    0  501    0  0.00000000000E+00 -0.00000000000E+00 -0.17219108131E+03  0.17219108131E+03  0.00000000000E+00 0. -1.
          5    1    1    2  502    0  0.29022975828E+02 -0.41864120378E+02  0.33763637666E+02  0.61256781905E+02  0.41800000000E+01 0. -1.
         -5    1    1    2    0  502 -0.30418737444E+02  0.11670802787E+02 -0.62494928568E+02  0.70601669401E+02  0.41800000000E+01 0. -1.
        -11    1    1    2    0    0  0.45056391504E+02  0.88318568529E+01 -0.22212634547E+02  0.51004717864E+02  0.00000000000E+00 0.  1.
         11    1    1    2    0    0 -0.43660629888E+02  0.21361460738E+02 -0.44604462994E+02  0.65970605015E+02  0.00000000000E+00 0. -1.
</event>
<event>
 6    1  0.6981059E-006  0.1142661E+03  0.7561462E-02  0.1252868E+00
          1   -1    0    0  501    0  0.00000000000E+00  0.00000000000E+00  0.56883209778E+03  0.56883209778E+03  0.00000000000E+00 0. -1.
         -1   -1    0    0    0  501 -0.00000000000E+00 -0.00000000000E+00 -0.28197346358E+02  0.28197346358E+02  0.00000000000E+00 0.  1.
          5    1    1    2  502    0  0.67959695234E+02 -0.33364939361E+02  0.75446579522E+02  0.10696447128E+03  0.41800000000E+01 0. -1.
         -5    1    1    2    0  502 -0.37905492097E+02 -0.19749276039E+02  0.16271474993E+03  0.16828672698E+03  0.41800000000E+01 0.  1.
        -11    1    1    2    0    0 -0.44374377625E+02 -0.96283011783E+01  0.12770645478E+03  0.13553865930E+03  0.00000000000E+00 0.  1.
         11    1    1    2    0    0  0.14320174487E+02  0.62742516577E+02  0.17476696719E+03  0.18623958657E+03  0.00000000000E+00 0. -1.
</event>
<event>
 6    1  0.6981059E-006  0.9184628E+02  0.7561462E-02  0.1298441E+00
          2   -1    0    0  501    0  0.00000000000E+00  0.00000000000E+00  0.42660175842E+03  0.42660175842E+03  0.00000000000E+00 0. -1.
         -2   -1    0    0    0  501 -0.00000000000E+00 -0.00000000000E+00 -0.37256734437E+02  0.37256734437E+02  0.00000000000E+00 0.  1.
          5    1    1    2  502    0 -0.75447415079E+02  0.36095073577E+01  0.23203944728E+03  0.24405966172E+03  0.41800000000E+01 0. -1.
         -5    1    1    2    0  502  0.12826361531E+02 -0.33614558993E+01 -0.10862163678E+02  0.17642957112E+02  0.41800000000E+01 0. -1.
        -11    1    1    2    0    0 -0.34790642782E+01  0.23611180166E+02  0.10495479003E+03  0.10763410086E+03  0.00000000000E+00 0. -1.
         11    1    1    2    0    0  0.66100117826E+02 -0.23859231624E+02  0.63212950352E+02  0.94521773166E+02  0.00000000000E+00 0.  1.
</event>
<event>
 6    1  0.6981059E-006  0.1466309E+03  0.7561462E-02  0.1204675E+00
          1   -1    0    0  501    0  0.00000000000E+00  0.00000000000E+00  0.27548739239E+03  0.27548739239E+03  0.00000000000E+00 0. -1.
         -1   -1    0    0    0  501 -0.00000000000E+00 -0.00000000000E+00 -0.18095843048E+03  0.18095843048E+03  0.00000000000E+00 0.  1.
          5    1    1    2  502    0  0.54232918231E+02  0.94640198352E+01 -0.10309106160E+03  0.11694450168E+03  0.41800000000E+01 0. -1.
         -5    1    1    2    0  502 -0.50577636117E+02  0.57207515719E+02 -0.91172265153E+01  0.77015539661E+02  0.41800000000E+01 0.  1.
        -11    1    1    2    0    0 -0.23192487225E+02  0.43708781685E+02  0.68754892331E+02  0.84708820553E+02  0.00000000000E+00 0. -1.
         11    1    1    2    0    0  0.19537205112E+02 -0.11038031724E+03  0.13798235770E+03  0.17777696097E+03  0.00000000000E+00 0.  1.
</event>
<event>
 6    1  0.6981059E-006  0.1021015E+03  0.7561462E-02  0.1275938E+00
         -1   -1    0    0    0  501 -0.00000000000E+00  0.00000000000E+00  0.13637784281E+03  0.13637784281E+03  0.00000000000E+00 0.  1.
          1   -1    0    0  501    0  0.00000000000E+00 -0.00000000000E+00 -0.17486790841E+03  0.17486790841E+03  0.00000000000E+00 0. -1.
          5    1    1    2  502    0  0.37595074343E+02  0.39962498046E+02  0.70533807690E+02  0.89458824563E+02  0.41800000000E+01 0. -1.
         -5    1    1    2    0  502 -0.43554766038E+02 -0.43517566269E+02  0.19167591744E+02  0.64619387121E+02  0.41800000000E+01 0. -1.
        -11    1    1    2    0    0  0.25042674691E+02  0.39499895935E+02 -0.46771770809E+02  0.66143600440E+02  0.00000000000E+00 0.  1.
         11    1    1    2    0    0 -0.19082982997E+02 -0.35944827712E+02 -0.81419694228E+02  0.91023939090E+02  0.00000000000E+00 0. -1.
</event>
<event>
 6    1  0.6981059E-006  0.1193743E+03  0.7561462E-02  0.1244133E+00
         -3   -1    0    0    0  501 -0.00000000000E+00  0.00000000000E+00  0.23542449641E+03  0.23542449641E+03  0.00000000000E+00 0.  1.
          3   -1    0    0  501    0  0.00000000000E+00 -0.00000000000E+00 -0.10251447415E+03  0.10251447415E+03  0.00000000000E+00 0. -1.
          5    1    1    2  502    0  0.13587632280E+02  0.53008872712E+01 -0.15259699995E+02  0.21518689570E+02  0.41800000000E+01 0. -1.
         -5    1    1    2    0  502 -0.10755575640E+03 -0.82982119945E+01  0.15106906078E+03  0.18567830940E+03  0.41800000000E+01 0. -1.
        -11    1    1    2    0    0 -0.75126658510E+01 -0.10851840331E+02  0.21708433138E+02  0.25405878376E+02  0.00000000000E+00 0.  1.
         11    1    1    2    0    0  0.10148078997E+03  0.13849165054E+02 -0.24607771661E+02  0.10533609321E+03  0.00000000000E+00 0. -1.
</event>
<event>
 6    1  0.6981059E-006  0.1143372E+03  0.7561462E-02  0.1252742E+00
         -1   -1    0    0    0  501 -0.00000000000E+00  0.00000000000E+00  0.20791819371E+03  0.20791819371E+03  0.00000000000E+00 0.  1.
          1   -1    0    0  501    0  0.00000000000E+00 -0.00000000000E+00 -0.10718961174E+03  0.10718961174E+03  0.00000000000E+00 0. -1.
          5    1    1    2  502    0  0.34377729016E+01  0.62684845579E-01 -0.34761628366E+02  0.35180469277E+02  0.41800000000E+01 0.  1.
         -5    1    1    2    0  502 -0.10334448925E+03  0.17404184754E+02  0.80542742391E+02  0.13224067021E+03  0.41800000000E+01 0.  1.
        -11    1    1    2    0    0  0.10600669888E+03 -0.69665685591E+01  0.70838197320E+02  0.12768713124E+03  0.00000000000E+00 0.  1.
         11    1    1    2    0    0 -0.60999825268E+01 -0.10500301040E+02 -0.15890729380E+02  0.19999534720E+02  0.00000000000E+00 0. -1.
</event>
<event>
 6    1  0.6981059E-006  0.2572215E+03  0.7561462E-02  0.1108824E+00
          1   -1    0    0  501    0  0.00000000000E+00  0.00000000000E+00  0.90798878943E+03  0.90798878943E+03  0.00000000000E+00 0. -1.
         -1   -1    0    0    0  501 -0.00000000000E+00 -0.00000000000E+00 -0.94009070417E+02  0.94009070417E+02  0.00000000000E+00 0.  1.
          5    1    1    2  502    0 -0.18622861247E+03  0.84001775203E+02  0.11650132516E+03  0.23521782565E+03  0.41800000000E+01 0.  1.
         -5    1    1    2    0  502 -0.30366451270E+02  0.41690227900E+02  0.12204972143E+03  0.13256622257E+03  0.41800000000E+01 0.  1.
        -11    1    1    2    0    0  0.63431582880E+02 -0.55102223722E+01  0.21915571513E+03  0.22821734318E+03  0.00000000000E+00 0.  1.
         11    1    1    2    0    0  0.15316348086E+03 -0.12018178073E+03  0.35627295730E+03  0.40599646844E+03  0.00000000000E+00 0. -1.
</event>
<event>
 6    1  0.6981059E-006  0.1202195E+03  0.7561462E-02  0.1242735E+00
          1   -1    0    0  501    0  0.00000000000E+00  0.00000000000E+00  0.72175162716E+02  0.72175162716E+02  0.00000000000E+00 0. -1.
         -1   -1    0    0    0  501 -0.00000000000E+00 -0.00000000000E+00 -0.29166507550E+03  0.29166507550E+03  0.00000000000E+00 0.  1.
          5    1    1    2  502    0  0.64301000247E+02 -0.39624201988E+02 -0.26297570274E+02  0.80085770386E+02  0.41800000000E+01 0.  1.
         -5    1    1    2    0  502 -0.37291955295E+02 -0.51211049789E+02 -0.11369946535E+03  0.13022404682E+03  0.41800000000E+01 0.  1.
        -11    1    1    2    0    0 -0.59274504141E+01  0.74239532397E+02 -0.96399775194E+02  0.12181773063E+03  0.00000000000E+00 0.  1.
         11    1    1    2    0    0 -0.21081594538E+02  0.16595719381E+02  0.16906898030E+02  0.31712690378E+02  0.00000000000E+00 0. -1.
</event>
<event>
 6    1  0.6981059E-006  0.1012314E+03  0.7561462E-02  0.1277728E+00
         -1   -1    0    0    0  501 -0.00000000000E+00  0.00000000000E+00  0.32325087657E+02  0.32325087657E+02  0.00000000000E+00 0.  1.
          1   -1    0    0  501    0  0.00000000000E+00 -0.00000000000E+00 -0.50510851626E+03  0.50510851626E+03  0.00000000000E+00 0. -1.
          5    1    1    2  502    0  0.67937052895E+02  0.40719146025E+02 -0.26487769296E+03  0.27649802285E+03  0.41800000000E+01 0. -1.
         -5    1    1    2    0  502 -0.25161541448E+02 -0.86895308258E+01  0.70798064592E+00  0.26955236051E+02  0.41800000000E+01 0.  1.
        -11    1    1    2    0    0 -0.40670652749E+02 -0.57618172276E+02 -0.99967105224E+02  0.12234123548E+03  0.00000000000E+00 0.  1.
         11    1    1    2    0    0 -0.21048586982E+01  0.25588557077E+02 -0.10864661106E+03  0.11163910953E+03  0.00000000000E+00 0. -1.
</event>
<event>
 6    1  0.6981059E-006  0.1873159E+03  0.7561462E-02  0.1160905E+00
          2   -1    0    0  501    0  0.00000000000E+00  0.00000000000E+00  0.67273934166E+03  0.67273934166E+03  0.00000000000E+00 0.  1.
         -2   -1    0    0    0  501 -0.00000000000E+00 -0.00000000000E+00 -0.71300798906E+02  0.71300798906E+02  0.00000000000E+00 0. -1.
          5    1    1    2  502    0 -0.16012858656E+02 -0.26053869694E+02  0.38733885276E+02  0.49527790552E+02  0.41800000000E+01 0.  1.
         -5    1    1    2    0  502 -0.96574033598E+02  0.13444253858E+03  0.89961853167E+02  0.18844613971E+03  0.41800000000E+01 0.  1.
        -11    1    1    2    0    0  0.61312223327E+02 -0.11103351751E+03  0.37137616769E+03  0.39243838838E+03  0.00000000000E+00 0. -1.
         11    1    1    2    0    0  0.51274668926E+02  0.26448486232E+01  0.10136663662E+03  0.11362782193E+03  0.00000000000E+00 0.  1.
</event>
<event>
 6    1  0.6981059E-006  0.7608754E+02  0.7561462E-02  0.1340536E+00
          2   -1    0    0  501    0  0.00000000000E+00  0.00000000000E+00  0.40981124434E+03  0.40981124434E+03  0.00000000000E+00 0. -1.
         -2   -1    0    0    0  501 -0.00000000000E+00 -0.00000000000E+00 -0.33304375404E+02  0.33304375404E+02  0.00000000000E+00 0.  1.
          5    1    1    2  502    0  0.15659160803E+02  0.21405469528E+02  0.22575394448E+03  0.22734493460E+03  0.41800000000E+01 0.  1.
         -5    1    1    2    0  502  0.23955849366E+02 -0.30737352656E+02  0.67207325916E+01  0.39765666267E+02  0.41800000000E+01 0.  1.
        -11    1    1    2    0    0  0.22945340244E+02  0.45277073427E+01  0.56470527914E+01  0.24059883165E+02  0.00000000000E+00 0.  1.
         11    1    1    2    0    0 -0.62560350412E+02  0.48041757853E+01  0.13838513908E+03  0.15194513571E+03  0.00000000000E+00 0. -1.
</event>
<event>
 6    1  0.6981059E-006  0.2618927E+03  0.7561462E-02  0.1106011E+00
          1   -1    0    0  501    0  0.00000000000E+00  0.00000000000E+00  0.64833190807E+03  0.64833190807E+03  0.00000000000E+00 0. -1.
         -1   -1    0    0    0  501 -0.00000000000E+00 -0.00000000000E+00 -0.11590700418E+03  0.11590700418E+03  0.00000000000E+00 0.  1.
          5    1    1    2  502    0  0.75150256717E+02  0.13953750443E+03  0.21425460467E+03  0.26653477119E+03  0.41800000000E+01 0. -1.
         -5    1    1    2    0  502  0.86635263985E+02  0.51659994626E+02  0.30853998137E+02  0.10556450924E+03  0.41800000000E+01 0. -1.
        -11    1    1    2    0    0  0.81520881055E+01 -0.26154927969E+02  0.48856183564E+02  0.56013065173E+02  0.00000000000E+00 0.  1.
         11    1    1    2    0    0 -0.16993760881E+03 -0.16504257109E+03  0.23846011752E+03  0.33612656665E+03  0.00000000000E+00 0. -1.
</event>
<event>
 6    1  0.6981059E-006  0.1417857E+03  0.7561462E-02  0.1210946E+00
         -2   -1    0    0    0  501 -0.00000000000E+00  0.00000000000E+00  0.38495472548E+02  0.38495472548E+02  0.00000000000E+00 0.  1.
          2   -1    0    0  501    0  0.00000000000E+00 -0.00000000000E+00 -0.93086086610E+03  0.93086086610E+03  0.00000000000E+00 0. -1.
          5    1    1    2  502    0  0.42695778329E+01  0.89260463932E+01 -0.11436625931E+03  0.11486956632E+03  0.41800000000E+01 0.  1.
         -5    1    1    2    0  502 -0.11918984594E+03 -0.34947210029E+02 -0.97681977534E+02  0.15807203421E+03  0.41800000000E+01 0.  1.
        -11    1    1    2    0    0  0.12850108994E+03  0.12044833134E+02 -0.60537687241E+03  0.61898203994E+03  0.00000000000E+00 0.  1.
         11    1    1    2    0    0 -0.13580821835E+02  0.13976330501E+02 -0.74940284302E+02  0.77432698179E+02  0.00000000000E+00 0. -1.
</event>
<event>
 6    1  0.6981059E-006  0.1267298E+03  0.7561462E-02  0.1232390E+00
         -2   -1    0    0    0  501 -0.00000000000E+00  0.00000000000E+00  0.47827659312E+02  0.47827659312E+02  0.00000000000E+00 0.  1.
          2   -1    0    0  501    0  0.00000000000E+00 -0.00000000000E+00 -0.45789411935E+03  0.45789411935E+03  0.00000000000E+00 0. -1.
          5    1    1    2  502    0  0.92949315170E+02 -0.11395185015E+02 -0.51930335132E+02  0.10716182874E+03  0.41800000000E+01 0. -1.
         -5    1    1    2    0  502 -0.64130416453E+01  0.52471390847E+02 -0.92258476665E+02  0.10641180798E+03  0.41800000000E+01 0. -1.
        -11    1    1    2    0    0 -0.33217256348E+02 -0.41773671115E+02 -0.63931631933E+02  0.83280725737E+02  0.00000000000E+00 0.  1.
         11    1    1    2    0    0 -0.53319017177E+02  0.69746528302E+00 -0.20194601631E+03  0.20886741621E+03  0.00000000000E+00 0. -1.
</event>
<event>
 6    1  0.6981059E-006  0.2893307E+03  0.7561462E-02  0.1090699E+00
         -3   -1    0    0    0  501 -0.00000000000E+00  0.00000000000E+00  0.12577965031E+03  0.12577965031E+03  0.00000000000E+00 0.  1.
          3   -1    0    0  501    0  0.00000000000E+00 -0.00000000000E+00 -0.68673949447E+03  0.68673949447E+03  0.00000000000E+00 0. -1.
          5    1    1    2  502    0  0.50433192572E+02  0.64188740841E+02 -0.67938258606E+02  0.10628631495E+03  0.41800000000E+01 0. -1.
         -5    1    1    2    0  502 -0.65328571578E+02  0.20375802985E+03 -0.14972059962E+03  0.26118745633E+03  0.41800000000E+01 0. -1.
        -11    1    1    2    0    0  0.52265114338E+02 -0.17778006456E+03 -0.21491469140E+03  0.28377053778E+03  0.00000000000E+00 0. -1.
         11    1    1    2    0    0 -0.37369735332E+02 -0.90166706131E+02 -0.12838629454E+03  0.16127483573E+03  0.00000000000E+00 0.  1.
</event>
<event>
 6    1  0.6981059E-006  0.1150519E+03  0.7561462E-02  0.1251491E+00
          1   -1    0    0  501    0  0.00000000000E+00  0.00000000000E+00  0.14451178640E+03  0.14451178640E+03  0.00000000000E+00 0. -1.
         -1   -1    0    0    0  501 -0.00000000000E+00 -0.00000000000E+00 -0.93661054028E+02  0.93661054028E+02  0.00000000000E+00 0.  1.
          5    1    1    2  502    0 -0.29483162534E+00 -0.66518829117E+02  0.23393750930E+02  0.70636970033E+02  0.41800000000E+01 0. -1.
         -5    1    1    2    0  502 -0.38785608238E+02  0.50404653865E+02  0.16564826782E+01  0.63758676841E+02  0.41800000000E+01 0. -1.
        -11    1    1    2    0    0  0.39554555330E+02  0.51159563668E+02  0.22925800801E+02  0.68610903975E+02  0.00000000000E+00 0. -1.
         11    1    1    2    0    0 -0.47411546605E+00 -0.35045388416E+02  0.28746979677E+01  0.35166289584E+02  0.00000000000E+00 0.  1.
</event>
<event>
 6    1  0.6981059E-006  0.1648836E+03  0.7561462E-02  0.1183291E+00
          4   -1    0    0  501    0  0.00000000000E+00  0.00000000000E+00  0.47524914714E+03  0.47524914714E+03  0.00000000000E+00 0. -1.
         -4   -1    0    0    0  501 -0.00000000000E+00 -0.00000000000E+00 -0.60595053312E+02  0.60595053312E+02  0.00000000000E+00 0.  1.
          5    1    1    2  502    0  0.23404179307E+02  0.13848711004E+02  0.86233749777E+01  0.28833615824E+02  0.41800000000E+01 0.  1.
         -5    1    1    2    0  502 -0.15719458726E+02 -0.14372768921E+03  0.20373712102E+03  0.24986203575E+03  0.41800000000E+01 0.  1.
        -11    1    1    2    0    0  0.32491491859E+02  0.10600761981E+03  0.15582121535E+03  0.19124215972E+03  0.00000000000E+00 0.  1.
         11    1    1    2    0    0 -0.40176212440E+02  0.23871358402E+02  0.46472382476E+02  0.65906389152E+02  0.00000000000E+00 0. -1.
</event>
<event>
 6    1  0.6981059E-006  0.1172398E+03  0.7561462E-02  0.1247721E+00
         -1   -1    0    0    0  501 -0.00000000000E+00  0.00000000000E+00  0.14474610714E+02  0.14474610714E+02  0.00000000000E+00 0.  1.
          1   -1    0    0  501    0  0.00000000000E+00 -0.00000000000E+00 -0.97702701897E+03  0.97702701897E+03  0.00000000000E+00 0. -1.
          5    1    1    2  502    0 -0.90182797435E+02  0.17868795330E+02 -0.34119674212E+03  0.35339060547E+03  0.41800000000E+01 0. -1.
         -5    1    1    2    0  502  0.41076794688E+02 -0.65165883862E+01 -0.20409628356E+03  0.20833274910E+03  0.41800000000E+01 0. -1.
        -11    1    1    2    0    0  0.58599247562E+02 -0.39681722725E+02 -0.24791812704E+03  0.25782146661E+03  0.00000000000E+00 0.  1.
         11    1    1    2    0    0 -0.94932448150E+01  0.28329515781E+02 -0.16934125554E+03  0.17195680850E+03  0.00000000000E+00 0. -1.
</event>
<event>
 6    1  0.6981059E-006  0.1104153E+03  0.7561462E-02  0.1259803E+00
          1   -1    0    0  501    0  0.00000000000E+00  0.00000000000E+00  0.12636656022E+03  0.12636656022E+03  0.00000000000E+00 0. -1.
         -1   -1    0    0    0  501 -0.00000000000E+00 -0.00000000000E+00 -0.11214623982E+03  0.11214623982E+03  0.00000000000E+00 0.  1.
          5    1    1    2  502    0  0.44074637911E+02  0.20143744766E+02  0.12322904618E+01  0.48655267957E+02  0.41800000000E+01 0.  1.
         -5    1    1    2    0  502 -0.63851003004E+02 -0.44040397148E+02 -0.30849793003E+02  0.83580436071E+02  0.41800000000E+01 0.  1.
        -11    1    1    2    0    0 -0.22294795095E+02  0.42900673390E+02  0.10884597552E+02  0.49558048080E+02  0.00000000000E+00 0. -1.
         11    1    1    2    0    0  0.42071160188E+02 -0.19004021008E+02  0.32953225390E+02  0.56719047926E+02  0.00000000000E+00 0.  1.
</event>
<event>
 6    1  0.6981059E-006  0.7894822E+02  0.7561462E-02  0.1332063E+00
          1   -1    0    0  501    0  0.00000000000E+00  0.00000000000E+00  0.14436244635E+03  0.14436244635E+03  0.00000000000E+00 0. -1.
         -1   -1    0    0    0  501 -0.00000000000E+00 -0.00000000000E+00 -0.10445885720E+03  0.10445885720E+03  0.00000000000E+00 0.  1.
          5    1    1    2  502    0 -0.16296848400E+02  0.12192117976E+02 -0.57733319904E+02  0.61358321649E+02  0.41800000000E+01 0.  1.
         -5    1    1    2    0  502  0.45302605421E+02  0.28204882891E+02  0.50923783882E+02  0.73881971019E+02  0.41800000000E+01 0.  1.
        -11    1    1    2    0    0 -0.11263819942E+02 -0.57711092003E+02 -0.20958089911E+01  0.58837370737E+02  0.00000000000E+00 0.  1.
         11    1    1    2    0    0 -0.17741937079E+02  0.17314091136E+02  0.48808934157E+02  0.54743640148E+02  0.00000000000E+00 0. -1.
</event>
<event>
 6    1  0.8003681E-006  0.1149550E+03  0.7561462E-02  0.1251660E+00
          1   -1    0    0  501    0  0.00000000000E+00  0.00000000000E+00  0.57148811085E+02  0.57148811085E+02  0.00000000000E+00 0. -1.
         -1   -1    0    0    0  501 -0.00000000000E+00 -0.00000000000E+00 -0.26673838084E+03  0.26673838084E+03  0.00000000000E+00 0.  1.
          5    1    1    2  502    0  0.66996663643E+02 -0.47717333703E+02 -0.11203910809E+03  0.13905297917E+03  0.41800000000E+01 0.  1.
         -5    1    1    2    0  502 -0.82793979787E+01  0.40192448745E+02 -0.38066714071E+01  0.41423960630E+02  0.41800000000E+01 0.  1.
        -11    1    1    2    0    0 -0.77778640497E+02  0.23693482092E+02 -0.83046160759E+02  0.11622204106E+03  0.00000000000E+00 0.  1.
         11    1    1    2    0    0  0.19061374832E+02 -0.16168597135E+02 -0.10697629493E+02  0.27188211059E+02  0.00000000000E+00 0. -1.
</event>
<event>
 6    1  0.6981059E-006  0.6228611E+02  0.7561462E-02  0.1388481E+00
          3   -1    0    0  501    0  0.00000000000E+00  0.00000000000E+00  0.15262033324E+03  0.15262033324E+03  0.00000000000E+00 0. -1.
         -3   -1    0    0    0  501 -0.00000000000E+00 -0.00000000000E+00 -0.83480705754E+02  0.83480705754E+02  0.00000000000E+00 0.  1.
          5    1    1    2  502    0  0.13053681347E+02 -0.32803391601E+02 -0.32983852108E+02  0.48496061666E+02  0.41800000000E+01 0.  1.
         -5    1    1    2    0  502  0.17645378853E+02  0.37511310445E+02  0.77275663233E+02  0.87792131391E+02  0.41800000000E+01 0.  1.
        -11    1    1    2    0    0  0.23488432032E+01 -0.13059489624E+02 -0.31374128273E+02  0.34064692256E+02  0.00000000000E+00 0.  1.
         11    1    1    2    0    0 -0.33047903404E+02  0.83515707800E+01  0.56221944629E+02  0.65748153676E+02  0.00000000000E+00 0. -1.
</event>
<event>
 6    1  0.6981059E-006  0.9781237E+02  0.7561462E-02  0.1284965E+00
         -4   -1    0    0    0  501 -0.00000000000E+00  0.00000000000E+00  0.24179949968E+02  0.24179949968E+02  0.00000000000E+00 0.  1.
          4   -1    0    0  501    0  0.00000000000E+00 -0.00000000000E+00 -0.75167507515E+03  0.75167507515E+03  0.00000000000E+00 0. -1.
          5    1    1    2  502    0  0.39088898217E+02  0.54329909883E+02 -0.59276172119E+02  0.89503173423E+02  0.41800000000E+01 0. -1.
         -5    1    1    2    0  502 -0.40439625009E+02  0.11693409137E+02 -0.21475387932E+03  0.21888078986E+03  0.41800000000E+01 0. -1.
        -11    1    1    2    0    0 -0.17428670469E+01  0.10011899210E+02 -0.29610235176E+01  0.10585054162E+02  0.00000000000E+00 0.  1.
         11    1    1    2    0    0  0.30935938387E+01 -0.76035218230E+02 -0.45050405023E+03  0.45688600767E+03  0.00000000000E+00 0. -1.
</event>
<event>
 6    1  0.6981059E-006  0.9312946E+02  0.7561462E-02  0.1295445E+00
          1   -1    0    0  501    0  0.00000000000E+00  0.00000000000E+00  0.16017942850E+03  0.16017942850E+03  0.00000000000E+00 0. -1.
         -1   -1    0    0    0  501 -0.00000000000E+00 -0.00000000000E+00 -0.10555912592E+03  0.10555912592E+03  0.00000000000E+00 0.  1.
          5    1    1    2  502    0 -0.12992618231E+02 -0.29741166436E+02 -0.34086704982E+02  0.47251676859E+02  0.41800000000E+01 0. -1.
         -5    1    1    2    0  502 -0.15084145327E+02  0.86484069524E+02  0.30262945994E+02  0.92953450834E+02  0.41800000000E+01 0. -1.
        -11    1    1    2    0    0  0.20221137560E+02 -0.21405438799E+02 -0.22371445838E+02  0.36980654446E+02  0.00000000000E+00 0.  1.
         11    1    1    2    0    0  0.78556259985E+01 -0.35337464289E+02  0.80815507399E+02  0.88552772280E+02  0.00000000000E+00 0. -1.
</event>
<event>
 6    1  0.6981059E-006  0.7485015E+02  0.7561462E-02  0.1344336E+00
         -1   -1    0    0    0  501 -0.00000000000E+00  0.00000000000E+00  0.81197246123E+02  0.81197246123E+02  0.00000000000E+00 0.  1.
          1   -1    0    0  501    0  0.00000000000E+00 -0.00000000000E+00 -0.21409255519E+03  0.21409255519E+03  0.00000000000E+00 0. -1.
          5    1    1    2  502    0  0.16596510574E+02 -0.49469760047E+01 -0.71850531025E+02  0.74026265226E+02  0.41800000000E+01 0. -1.
         -5    1    1    2    0  502  0.28464734012E+02 -0.30373191552E+02  0.50078680216E+02  0.65254260088E+02  0.41800000000E+01 0. -1.
        -11    1    1    2    0    0  0.10216720049E+02 -0.13065547219E+02  0.60970586742E+01  0.17670993667E+02  0.00000000000E+00 0.  1.
         11    1    1    2    0    0 -0.55277964635E+02  0.48385714776E+02 -0.11722051694E+03  0.13833828233E+03  0.00000000000E+00 0. -1.
</event>
<event>
 6    1  0.6981059E-006  0.2210000E+03  0.7561462E-02  0.1133140E+00
          1   -1    0    0  501    0  0.00000000000E+00  0.00000000000E+00  0.57743852710E+03  0.57743852710E+03  0.00000000000E+00 0. -1.
         -1   -1    0    0    0  501 -0.00000000000E+00 -0.00000000000E+00 -0.87525482239E+02  0.87525482239E+02  0.00000000000E+00 0.  1.
          5    1    1    2  502    0 -0.65381456267E+02  0.11395523308E+03  0.10958224025E+03  0.17113231650E+03  0.41800000000E+01 0.  1.
         -5    1    1    2    0  502 -0.98439621998E+02  0.16037029450E+01  0.15438684195E+03  0.18315485363E+03  0.41800000000E+01 0.  1.
        -11    1    1    2    0    0  0.89926341406E+02 -0.10355244026E+03  0.12989408319E+03  0.18889766438E+03  0.00000000000E+00 0.  1.
         11    1    1    2    0    0  0.73894736859E+02 -0.12006495771E+02  0.96049879471E+02  0.12177917483E+03  0.00000000000E+00 0. -1.
</event>
<event>
 6    1  0.6981059E-006  0.9917221E+02  0.7561462E-02  0.1282046E+00
          1   -1    0    0  501    0  0.00000000000E+00  0.00000000000E+00  0.54978307412E+02  0.54978307412E+02  0.00000000000E+00 0. -1.
         -1   -1    0    0    0  501 -0.00000000000E+00 -0.00000000000E+00 -0.27002789632E+03  0.27002789632E+03  0.00000000000E+00 0.  1.
          5    1    1    2  502    0  0.57754380897E+01 -0.33254982821E+02 -0.10405415811E+03  0.10947141082E+03  0.41800000000E+01 0.  1.
         -5    1    1    2    0  502 -0.54920214202E+02  0.19392279870E+02  0.41800887367E+01  0.58542599775E+02  0.41800000000E+01 0.  1.
        -11    1    1    2    0    0  0.59709663860E+02 -0.25689671502E+02 -0.79489269107E+02  0.10268274969E+03  0.00000000000E+00 0.  1.
         11    1    1    2    0    0 -0.10564887748E+02  0.39552374453E+02 -0.35686250428E+02  0.54309443448E+02  0.00000000000E+00 0. -1.
</event>
<event>
 6    1  0.6981059E-006  0.8967294E+02  0.7561462E-02  0.1303646E+00
          1   -1    0    0  501    0  0.00000000000E+00  0.00000000000E+00  0.11108010601E+03  0.11108010601E+03  0.00000000000E+00 0. -1.
         -1   -1    0    0    0  501 -0.00000000000E+00 -0.00000000000E+00 -0.11259425623E+03  0.11259425623E+03  0.00000000000E+00 0.  1.
          5    1    1    2  502    0  0.74264578377E+02  0.18931571347E+02  0.31519260872E+01  0.76818220712E+02  0.41800000000E+01 0.  1.
         -5    1    1    2    0  502 -0.48661756211E+02 -0.11030766037E+02 -0.11625514379E+02  0.51403008682E+02  0.41800000000E+01 0.  1.
        -11    1    1    2    0    0 -0.33133315003E+02  0.87307178072E+01 -0.35436751074E+02  0.49293055527E+02  0.00000000000E+00 0.  1.
         11    1    1    2    0    0  0.75304928374E+01 -0.16631523117E+02  0.42396189145E+02  0.46160077314E+02  0.00000000000E+00 0. -1.
</event>
<event>
 6    1  0.6981059E-006  0.1184779E+03  0.7561462E-02  0.1245629E+00
          2   -1    0    0  501    0  0.00000000000E+00  0.00000000000E+00  0.13176629297E+03  0.13176629297E+03  0.00000000000E+00 0. -1.
         -2   -1    0    0    0  501 -0.00000000000E+00 -0.00000000000E+00 -0.14769715226E+03  0.14769715226E+03  0.00000000000E+00 0.  1.
          5    1    1    2  502    0  0.11312013824E+03  0.25509650409E+01 -0.39773884825E+02  0.12000878056E+03  0.41800000000E+01 0.  1.
         -5    1    1    2    0  502 -0.32011752957E+02  0.13255825951E+02  0.74732112551E+00  0.34907021326E+02  0.41800000000E+01 0.  1.
        -11    1    1    2    0    0 -0.57065626214E+02  0.46610235023E+01 -0.28577290334E+02  0.63991189692E+02  0.00000000000E+00 0.  1.
         11    1    1    2    0    0 -0.24042759068E+02 -0.20467814495E+02  0.51672994739E+02  0.60556453653E+02  0.00000000000E+00 0. -1.
</event>
<event>
 6    1  0.6981059E-006  0.1271718E+03  0.7561462E-02  0.1231714E+00
         -1   -1    0    0    0  501 -0.00000000000E+00  0.00000000000E+00  0.49137301154E+03  0.49137301154E+03  0.00000000000E+00 0.  1.
          1   -1    0    0  501    0  0.00000000000E+00 -0.00000000000E+00 -0.51242275636E+02  0.51242275636E+02  0.00000000000E+00 0. -1.
          5    1    1    2  502    0  0.78074912761E+01 -0.95178644558E+00  0.19625166025E+03  0.19645368250E+03  0.41800000000E+01 0.  1.
         -5    1    1    2    0  502  0.97822570632E+02  0.32061510958E+02  0.10070602366E+03  0.14407071670E+03  0.41800000000E+01 0.  1.
        -11    1    1    2    0    0 -0.58322324058E+02  0.29632062190E+02  0.60233620557E+02  0.88924921359E+02  0.00000000000E+00 0. -1.
         11    1    1    2    0    0 -0.47307737849E+02 -0.60741786703E+02  0.82939431437E+02  0.11316596661E+03  0.00000000000E+00 0.  1.
</event>
<event>
 6    1  0.6981059E-006  0.1065940E+03  0.7561462E-02  0.1267011E+00
          2   -1    0    0  501    0  0.00000000000E+00  0.00000000000E+00  0.20318569035E+03  0.20318569035E+03  0.00000000000E+00 0. -1.
         -2   -1    0    0    0  501 -0.00000000000E+00 -0.00000000000E+00 -0.96328009317E+02  0.96328009317E+02  0.00000000000E+00 0.  1.
          5    1    1    2  502    0 -0.44004683271E+00 -0.45674095253E+02  0.15208428955E+02  0.48322720637E+02  0.41800000000E+01 0.  1.
         -5    1    1    2    0  502 -0.20273789358E+02  0.67568736310E+02 -0.44905621221E+02  0.83729014557E+02  0.41800000000E+01 0.  1.
        -11    1    1    2    0    0  0.47934668865E+02  0.15518851108E+02  0.64791420757E+02  0.82076156237E+02  0.00000000000E+00 0.  1.
         11    1    1    2    0    0 -0.27220832674E+02 -0.37413492165E+02  0.71763452541E+02  0.85385808236E+02  0.00000000000E+00 0. -1.
</event>
<event>
 6    1  0.6981059E-006  0.1888199E+03  0.7561462E-02  0.1159530E+00
          2   -1    0    0  501    0  0.00000000000E+00  0.00000000000E+00  0.43491514979E+03  0.43491514979E+03  0.00000000000E+00 0. -1.
         -2   -1    0    0    0  501 -0.00000000000E+00 -0.00000000000E+00 -0.10789695672E+03  0.10789695672E+03  0.00000000000E+00 0.  1.
          5    1    1    2  502    0 -0.16601142622E+03  0.82929366420E+02  0.47419364669E+02  0.19158064097E+03  0.41800000000E+01 0.  1.
         -5    1    1    2    0  502  0.88770191400E+01 -0.20548973821E+02  0.18079887332E+02  0.29076047184E+02  0.41800000000E+01 0.  1.
        -11    1    1    2    0    0  0.74631263954E+02 -0.33885005382E+02  0.19773170837E+03  0.21404636798E+03  0.00000000000E+00 0.  1.
         11    1    1    2    0    0  0.82503143127E+02 -0.28495387217E+02  0.63787232690E+02  0.10810905037E+03  0.00000000000E+00 0. -1.
</event>
<event>
 6    1  0.7861721E-006  0.2426166E+03  0.7561462E-02  0.1118062E+00
         -1   -1    0    0    0  501 -0.00000000000E+00  0.00000000000E+00  0.68126842319E+02  0.68126842319E+02  0.00000000000E+00 0.  1.
          1   -1    0    0  501    0  0.00000000000E+00 -0.00000000000E+00 -0.93197920893E+03  0.93197920893E+03  0.00000000000E+00 0. -1.
          5    1    1    2  502    0  0.66262425669E+01 -0.20140415781E+03 -0.28052799846E+03  0.34542867888E+03  0.41800000000E+01 0. -1.
         -5    1    1    2    0  502 -0.44124701991E+02 -0.22259802945E+02 -0.13924930448E+03  0.14781856903E+03  0.41800000000E+01 0. -1.
        -11    1    1    2    0    0  0.47498178859E+02  0.10800017663E+03 -0.15100392454E+03  0.19163063527E+03  0.00000000000E+00 0. -1.
         11    1    1    2    0    0 -0.99997194354E+01  0.11566378413E+03 -0.29307113914E+03  0.31522816807E+03  0.00000000000E+00 0.  1.
</event>
<event>
 6    1  0.6981059E-006  0.7286194E+02  0.7561462E-02  0.1350623E+00
         -4   -1    0    0    0  501 -0.00000000000E+00  0.00000000000E+00  0.57249431726E+02  0.57249431726E+02  0.00000000000E+00 0.  1.
          4   -1    0    0  501    0  0.00000000000E+00 -0.00000000000E+00 -0.23043927361E+03  0.23043927361E+03  0.00000000000E+00 0. -1.
          5    1    1    2  502    0  0.63845168046E+01 -0.35999819927E+02 -0.11317631098E+03  0.11900881840E+03  0.41800000000E+01 0.  1.
         -5    1    1    2    0  502 -0.10425340887E+02  0.12874694870E+00  0.32341127670E+02  0.34236314745E+02  0.41800000000E+01 0.  1.
        -11    1    1    2    0    0  0.38680577015E+02  0.47403429205E+02 -0.56872281035E+02  0.83532798880E+02  0.00000000000E+00 0.  1.
         11    1    1    2    0    0 -0.34639752932E+02 -0.11532356226E+02 -0.35482377539E+02  0.50910773311E+02  0.00000000000E+00 0. -1.
</event>
<event>
 6    1  0.6981059E-006  0.7413670E+02  0.7561462E-02  0.1346565E+00
          2   -1    0    0  501    0  0.00000000000E+00  0.00000000000E+00  0.17063046956E+03  0.17063046956E+03  0.00000000000E+00 0. -1.
         -2   -1    0    0    0  501 -0.00000000000E+00 -0.00000000000E+00 -0.11690789234E+03  0.11690789234E+03  0.00000000000E+00 0.  1.
          5    1    1    2  502    0  0.11677221344E+02  0.26275134198E+02  0.58201532422E+02  0.65050987323E+02  0.41800000000E+01 0. -1.
         -5    1    1    2    0  502  0.19893919672E+02  0.20248452005E+01 -0.87491426417E+02  0.89844811394E+02  0.41800000000E+01 0.  1.
        -11    1    1    2    0    0  0.13563963099E+02  0.25306170015E+02  0.76086767083E+01  0.29703119315E+02  0.00000000000E+00 0.  1.
         11    1    1    2    0    0 -0.45135104115E+02 -0.53606149413E+02  0.75403794510E+02  0.10293944387E+03  0.00000000000E+00 0. -1.
</event>
<event>
 6    1  0.6981059E-006  0.1502939E+03  0.7561462E-02  0.1200112E+00
          2   -1    0    0  501    0  0.00000000000E+00  0.00000000000E+00  0.69533370534E+03  0.69533370534E+03  0.00000000000E+00 0. -1.
         -2   -1    0    0    0  501 -0.00000000000E+00 -0.00000000000E+00 -0.36321673873E+02  0.36321673873E+02  0.00000000000E+00 0.  1.
          5    1    1    2  502    0 -0.13100908036E+02 -0.52085659883E+02  0.87103310291E+02  0.10241586215E+03  0.41800000000E+01 0. -1.
         -5    1    1    2    0  502 -0.93950316178E+02  0.58709008654E+02  0.16990032585E+03  0.20287188749E+03  0.41800000000E+01 0. -1.
        -11    1    1    2    0    0 -0.64308979109E+01 -0.20537805741E+02  0.12256001090E+03  0.12443518066E+03  0.00000000000E+00 0.  1.
         11    1    1    2    0    0  0.11348212213E+03  0.13914456970E+02  0.27944838442E+03  0.30193244892E+03  0.00000000000E+00 0. -1.
</event>
<event>
 6    1  0.6981059E-006  0.1824643E+03  0.7561462E-02  0.1165439E+00
          1   -1    0    0  501    0  0.00000000000E+00  0.00000000000E+00  0.37469652203E+03  0.37469652203E+03  0.00000000000E+00 0. -1.
         -1   -1    0    0    0  501 -0.00000000000E+00 -0.00000000000E+00 -0.93787098301E+02  0.93787098301E+02  0.00000000000E+00 0.  1.
          5    1    1    2  502    0  0.37198864799E+02 -0.55883181653E+02  0.19854104487E+02  0.70130901883E+02  0.41800000000E+01 0.  1.
         -5    1    1    2    0  502  0.11167814261E+03  0.54628824138E+02  0.86468414005E+02  0.15149447179E+03  0.41800000000E+01 0.  1.
        -11    1    1    2    0    0 -0.79019260563E+02  0.44916453180E+02  0.76790529032E+02  0.11898872491E+03  0.00000000000E+00 0.  1.
         11    1    1    2    0    0 -0.69857746847E+02 -0.43662095665E+02  0.97796376204E+02  0.12786952174E+03  0.00000000000E+00 0. -1.
</event>
<event>
 6    1  0.6981059E-006  0.1092831E+03  0.7561462E-02  0.1261903E+00
          2   -1    0    0  501    0  0.00000000000E+00  0.00000000000E+00  0.18077835144E+03  0.18077835144E+03  0.00000000000E+00 0. -1.
         -2   -1    0    0    0  501 -0.00000000000E+00 -0.00000000000E+00 -0.11058555051E+03  0.11058555051E+03  0.00000000000E+00 0.  1.
          5    1    1    2  502    0  0.24019009818E+02  0.22542326497E+02  0.44698507270E+02  0.55682118034E+02  0.41800000000E+01 0.  1.
         -5    1    1    2    0  502 -0.54778942203E+02  0.47355808097E+02 -0.55381999459E+02  0.91257565897E+02  0.41800000000E+01 0.  1.
        -11    1    1    2    0    0 -0.11895573677E+02  0.14205368447E+02  0.34895427455E+02  0.39509340960E+02  0.00000000000E+00 0. -1.
         11    1    1    2    0    0  0.42655506063E+02 -0.84103503040E+02  0.45980865660E+02  0.10491487706E+03  0.00000000000E+00 0.  1.
</event>
<event>
 6    1  0.6981059E-006  0.1051739E+03  0.7561462E-02  0.1269777E+00
         -1   -1    0    0    0  501 -0.00000000000E+00  0.00000000000E+00  0.12613800044E+03  0.12613800044E+03  0.00000000000E+00 0.  1.
          1   -1    0    0  501    0  0.00000000000E+00 -0.00000000000E+00 -0.94576942428E+02  0.94576942428E+02  0.00000000000E+00 0. -1.
          5    1    1    2  502    0  0.13691937639E+02  0.58571690994E+02 -0.77114651919E-01  0.60295857975E+02  0.41800000000E+01 0.  1.
         -5    1    1    2    0  502 -0.13946464327E+02 -0.58737076121E+02  0.33561977811E+02  0.69198459037E+02  0.41800000000E+01 0.  1.
        -11    1    1    2    0    0 -0.33171013709E+02  0.30006493630E+02  0.77094471759E+01  0.45388780399E+02  0.00000000000E+00 0.  1.
         11    1    1    2    0    0  0.33425540397E+02 -0.29841108503E+02 -0.96332523250E+01  0.45831845456E+02  0.00000000000E+00 0. -1.
</event>
<event>
 6    1  0.6981059E-006  0.8245462E+02  0.7561462E-02  0.1322226E+00
          2   -1    0    0  501    0  0.00000000000E+00  0.00000000000E+00  0.28218533350E+03  0.28218533350E+03  0.00000000000E+00 0. -1.
         -2   -1    0    0    0  501 -0.00000000000E+00 -0.00000000000E+00 -0.45045652311E+02  0.45045652311E+02  0.00000000000E+00 0.  1.
          5    1    1    2  502    0  0.26900149754E+02 -0.10269731590E+02  0.11806525486E+03  0.12159754212E+03  0.41800000000E+01 0. -1.
         -5    1    1    2    0  502 -0.24788303373E+02  0.33017514650E+02 -0.12855876035E+02  0.43443782137E+02  0.41800000000E+01 0. -1.
        -11    1    1    2    0    0 -0.44249553830E+01  0.35624082632E+02  0.51985979319E+02  0.63175925314E+02  0.00000000000E+00 0.  1.
         11    1    1    2    0    0  0.23131090018E+01 -0.58371865692E+02  0.79944323048E+02  0.99013736245E+02  0.00000000000E+00 0. -1.
</event>
<event>
 6    1  0.6981059E-006  0.3003153E+03  0.7561462E-02  0.1085083E+00
         -4   -1    0    0    0  501 -0.00000000000E+00  0.00000000000E+00  0.12680835725E+04  0.12680835725E+04  0.00000000000E+00 0.  1.
          4   -1    0    0  501    0  0.00000000000E+00 -0.00000000000E+00 -0.11493519871E+03  0.11493519871E+03  0.00000000000E+00 0. -1.
          5    1    1    2  502    0 -0.76975041602E+01 -0.13791941705E+03  0.28441840838E+02  0.14109368476E+03  0.41800000000E+01 0. -1.
         -5    1    1    2    0  502 -0.15596828272E+02  0.29319405398E+03  0.92868995872E+03  0.97400643026E+03  0.41800000000E+01 0.  1.
        -11    1    1    2    0    0  0.44681687459E+02 -0.10006895691E+03  0.17217571267E+03  0.20409489304E+03  0.00000000000E+00 0.  1.
         11    1    1    2    0    0 -0.21387355027E+02 -0.55205680032E+02  0.23840861536E+02  0.63823763142E+02  0.00000000000E+00 0. -1.
</event>
<event>
 6    1  0.6981059E-006  0.1009204E+03  0.7561462E-02  0.1278372E+00
         -3   -1    0    0    0  501 -0.00000000000E+00  0.00000000000E+00  0.30704358882E+03  0.30704358882E+03  0.00000000000E+00 0.  1.
          3   -1    0    0  501    0  0.00000000000E+00 -0.00000000000E+00 -0.52000134209E+02  0.52000134209E+02  0.00000000000E+00 0. -1.
          5    1    1    2  502    0  0.86495965653E+02  0.46253694584E+02  0.13938363824E+03  0.17048820295E+03  0.41800000000E+01 0.  1.
         -5    1    1    2    0  502 -0.38656806015E+02 -0.56705616957E+01  0.31368014230E+02  0.50278510698E+02  0.41800000000E+01 0.  1.
        -11    1    1    2    0    0 -0.25060160572E+02 -0.11894758951E+02  0.95914519789E+02  0.99845340626E+02  0.00000000000E+00 0.  1.
         11    1    1    2    0    0 -0.22778999066E+02 -0.28688373937E+02 -0.11622717649E+02  0.38431668753E+02  0.00000000000E+00 0. -1.
</event>
<event>
 6    1  0.6981059E-006  0.1328175E+03  0.7561462E-02  0.1223334E+00
         -4   -1    0    0    0  501 -0.00000000000E+00  0.00000000000E+00  0.58780106357E+02  0.58780106357E+02  0.00000000000E+00 0.  1.
          4   -1    0    0  501    0  0.00000000000E+00 -0.00000000000E+00 -0.38564115323E+03  0.38564115323E+03  0.00000000000E+00 0. -1.
          5    1    1    2  502    0  0.28261664406E+02  0.24024512166E+02 -0.13253186317E+03  0.13768829295E+03  0.41800000000E+01 0.  1.
         -5    1    1    2    0  502 -0.48789693677E+02  0.73871809764E+02 -0.38497662483E+02  0.96628261412E+02  0.41800000000E+01 0.  1.
        -11    1    1    2    0    0 -0.35293341532E+02 -0.67372705703E+02 -0.70832204488E+02  0.10393220205E+03  0.00000000000E+00 0.  1.
         11    1    1    2    0    0  0.55821370803E+02 -0.30523616227E+02 -0.84999316731E+02  0.10617250318E+03  0.00000000000E+00 0. -1.
</event>
<event>
 6    1  0.6981059E-006  0.2568698E+03  0.7561462E-02  0.1109039E+00
         -2   -1    0    0    0  501 -0.00000000000E+00  0.00000000000E+00  0.22882509849E+03  0.22882509849E+03  0.00000000000E+00 0.  1.
          2   -1    0    0  501    0  0.00000000000E+00 -0.00000000000E+00 -0.30241838661E+03  0.30241838661E+03  0.00000000000E+00 0. -1.
          5    1    1    2  502    0  0.16550780507E+03 -0.94778833922E+02 -0.37887578337E+02  0.19449627732E+03  0.41800000000E+01 0. -1.
         -5    1    1    2    0  502  0.14226263612E+02 -0.64915636340E+02  0.27748350645E+02  0.72137852625E+02  0.41800000000E+01 0.  1.
        -11    1    1    2    0    0 -0.14035120269E+03  0.66704984952E+02 -0.46551504839E+02  0.16221916569E+03  0.00000000000E+00 0. -1.
         11    1    1    2    0    0 -0.39382866001E+02  0.92989485310E+02 -0.16902555593E+02  0.10239018946E+03  0.00000000000E+00 0.  1.
</event>
<event>
 6    1  0.6981059E-006  0.1601003E+03  0.7561462E-02  0.1188584E+00
         -1   -1    0    0    0  501 -0.00000000000E+00  0.00000000000E+00  0.75744916295E+02  0.75744916295E+02  0.00000000000E+00 0.  1.
          1   -1    0    0  501    0  0.00000000000E+00 -0.00000000000E+00 -0.39978062093E+03  0.39978062093E+03  0.00000000000E+00 0. -1.
          5    1    1    2  502    0 -0.52316453796E+02  0.13574519689E+03 -0.12257143143E+03  0.19027610995E+03  0.41800000000E+01 0.  1.
         -5    1    1    2    0  502 -0.21602185525E+02 -0.25377719163E+02 -0.93072131693E+01  0.34853689422E+02  0.41800000000E+01 0.  1.
        -11    1    1    2    0    0 -0.53050005417E+01 -0.20943627595E+02  0.27581993424E+01  0.21780409344E+02  0.00000000000E+00 0.  1.
         11    1    1    2    0    0  0.79223639863E+02 -0.89423850137E+02 -0.19491525938E+03  0.22861532850E+03  0.00000000000E+00 0. -1.
</event>
<event>
 6    1  0.6981059E-006  0.9102691E+02  0.7561462E-02  0.1300384E+00
         -2   -1    0    0    0  501 -0.00000000000E+00  0.00000000000E+00  0.16527497717E+02  0.16527497717E+02  0.00000000000E+00 0.  1.
          2   -1    0    0  501    0  0.00000000000E+00 -0.00000000000E+00 -0.92215544609E+03  0.92215544609E+03  0.00000000000E+00 0. -1.
          5    1    1    2  502    0  0.13510223344E+01 -0.27091736501E+02 -0.10443553401E+02  0.29365415979E+02  0.41800000000E+01 0. -1.
         -5    1    1    2    0  502  0.47984444675E+02  0.10068415440E+02 -0.39685122210E+03  0.39989029096E+03  0.41800000000E+01 0. -1.
        -11    1    1    2    0    0 -0.13427028809E+02 -0.37659842799E+02 -0.20908647840E+03  0.21287485598E+03  0.00000000000E+00 0.  1.
         11    1    1    2    0    0 -0.35908438200E+02  0.54683163860E+02 -0.28924669448E+03  0.29655238089E+03  0.00000000000E+00 0. -1.
</event>
<event>
 6    1  0.6981059E-006  0.8809837E+02  0.7561462E-02  0.1307523E+00
          1   -1    0    0  501    0  0.00000000000E+00  0.00000000000E+00  0.17815742669E+03  0.17815742669E+03  0.00000000000E+00 0. -1.
         -1   -1    0    0    0  501 -0.00000000000E+00 -0.00000000000E+00 -0.71788045520E+02  0.71788045520E+02  0.00000000000E+00 0.  1.
          5    1    1    2  502    0 -0.41901356659E+02 -0.29696933059E+02 -0.20532801055E+02  0.55468007374E+02  0.41800000000E+01 0. -1.
         -5    1    1    2    0  502  0.33961218944E+02  0.46938027296E+02  0.44808206553E+02  0.73360688200E+02  0.41800000000E+01 0. -1.
        -11    1    1    2    0    0 -0.17796957066E+02 -0.32216903383E+02  0.33821017673E+01  0.36960778628E+02  0.00000000000E+00 0.  1.
         11    1    1    2    0    0  0.25737094781E+02  0.14975809146E+02  0.78711873906E+02  0.84155998010E+02  0.00000000000E+00 0. -1.
</event>
<event>
 6    1  0.6981059E-006  0.9941745E+02  0.7561462E-02  0.1281526E+00
          1   -1    0    0  501    0  0.00000000000E+00  0.00000000000E+00  0.45213623731E+03  0.45213623731E+03  0.00000000000E+00 0. -1.
         -1   -1    0    0    0  501 -0.00000000000E+00 -0.00000000000E+00 -0.36684789236E+02  0.36684789236E+02  0.00000000000E+00 0.  1.
          5    1    1    2  502    0  0.21546283366E+02 -0.35375847091E+02  0.16291698488E+03  0.16815204205E+03  0.41800000000E+01 0. -1.
         -5    1    1    2    0  502 -0.52863883480E+02 -0.19770119704E+02  0.15289633481E+02  0.58623315342E+02  0.41800000000E+01 0. -1.
        -11    1    1    2    0    0  0.56104644891E+02  0.24571443621E+02  0.84831125715E+02  0.10463176817E+03  0.00000000000E+00 0.  1.
         11    1    1    2    0    0 -0.24787044777E+02  0.30574523175E+02  0.15241370400E+03  0.15741390099E+03  0.00000000000E+00 0. -1.
</event>
<event>
 6    1  0.1020359E-005  0.2112425E+03  0.7561462E-02  0.1140586E+00
         -3   -1    0    0    0  501 -0.00000000000E+00  0.00000000000E+00  0.44707945662E+03  0.44707945662E+03  0.00000000000E+00 0.  1.
          3   -1    0    0  501    0  0.00000000000E+00 -0.00000000000E+00 -0.11789099415E+03  0.11789099415E+03  0.00000000000E+00 0. -1.
          5    1    1    2  502    0 -0.14934020267E+03  0.11009832850E+03  0.23192076653E+03  0.29703341970E+03  0.41800000000E+01 0. -1.
         -5    1    1    2    0  502 -0.17982533206E+02 -0.32097094035E+02  0.37439089477E+02  0.52656934651E+02  0.41800000000E+01 0. -1.
        -11    1    1    2    0    0  0.15687383977E+02 -0.40841034297E+02 -0.89879243104E+01  0.44663932674E+02  0.00000000000E+00 0. -1.
         11    1    1    2    0    0  0.15163535190E+03 -0.37160200169E+02  0.68816530775E+02  0.17061616374E+03  0.00000000000E+00 0.  1.
</event>
<event>
 6    1  0.6981059E-006  0.1093163E+03  0.7561462E-02  0.1261841E+00
          2   -1    0    0  501    0  0.00000000000E+00  0.00000000000E+00  0.76232257979E+03  0.76232257979E+03  0.00000000000E+00 0. -1.
         -2   -1    0    0    0  501 -0.00000000000E+00 -0.00000000000E+00 -0.19940299318E+02  0.19940299318E+02  0.00000000000E+00 0.  1.
          5    1    1    2  502    0  0.34933672491E+02 -0.34324400711E+02  0.25169530376E+03  0.25644984752E+03  0.41800000000E+01 0.  1.
         -5    1    1    2    0  502  0.15647240078E+01  0.79721601289E+02  0.18409603975E+03  0.20066590723E+03  0.41800000000E+01 0.  1.
        -11    1    1    2    0    0  0.11655414656E+02  0.10616957120E+02  0.82430249653E+01  0.17790894578E+02  0.00000000000E+00 0.  1.
         11    1    1    2    0    0 -0.48153811155E+02 -0.56014157698E+02  0.29834791199E+03  0.30735622977E+03  0.00000000000E+00 0. -1.
</event>
<event>
 6    1  0.6981059E-006  0.1477474E+03  0.7561462E-02  0.1203269E+00
          2   -1    0    0  501    0  0.00000000000E+00  0.00000000000E+00  0.77173622154E+03  0.77173622154E+03  0.00000000000E+00 0. -1.
         -2   -1    0    0    0  501 -0.00000000000E+00 -0.00000000000E+00 -0.32198535272E+02  0.32198535272E+02  0.00000000000E+00 0.  1.
          5    1    1    2  502    0 -0.43465751229E+02  0.14032446671E+02  0.45111995376E+02  0.64333083373E+02  0.41800000000E+01 0.  1.
         -5    1    1    2    0  502  0.33516672527E+01 -0.10991111243E+03  0.23698392509E+03  0.26128631702E+03  0.41800000000E+01 0.  1.
        -11    1    1    2    0    0  0.68736338193E+02  0.48109985447E+02  0.28643635127E+03  0.29847116815E+03  0.00000000000E+00 0.  1.
         11    1    1    2    0    0 -0.28622254216E+02  0.47768680315E+02  0.17100541453E+03  0.17984418827E+03  0.00000000000E+00 0. -1.
</event>
<event>
 6    1  0.6981059E-006  0.1111403E+03  0.7561462E-02  0.1258473E+00
          2   -1    0    0  501    0  0.00000000000E+00  0.00000000000E+00  0.42160589943E+03  0.42160589943E+03  0.00000000000E+00 0. -1.
         -2   -1    0    0    0  501 -0.00000000000E+00 -0.00000000000E+00 -0.40117148767E+02  0.40117148767E+02  0.00000000000E+00 0.  1.
          5    1    1    2  502    0 -0.64780374359E+01  0.42957301975E+02  0.87415606978E+02  0.97704941049E+02  0.41800000000E+01 0. -1.
         -5    1    1    2    0  502  0.77314261846E+02 -0.55680073418E+02  0.91497597316E+02  0.13216296143E+03  0.41800000000E+01 0. -1.
        -11    1    1    2    0    0 -0.97445532626E+01 -0.13613221668E+02 -0.18817385989E+01  0.16846871004E+02  0.00000000000E+00 0.  1.
         11    1    1    2    0    0 -0.61091671147E+02  0.26335993111E+02  0.20445728496E+03  0.21500827470E+03  0.00000000000E+00 0. -1.
</event>
<event>
 6    1  0.6981059E-006  0.1922251E+03  0.7561462E-02  0.1156470E+00
          2   -1    0    0  501    0  0.00000000000E+00  0.00000000000E+00  0.10960233238E+04  0.10960233238E+04  0.00000000000E+00 0. -1.
         -2   -1    0    0    0  501 -0.00000000000E+00 -0.00000000000E+00 -0.39679364033E+02  0.39679364033E+02  0.00000000000E+00 0.  1.
          5    1    1    2  502    0  0.41520005995E+02 -0.14914926100E+02  0.52134054010E+02  0.68423664809E+02  0.41800000000E+01 0.  1.
         -5    1    1    2    0  502 -0.60848956481E+02 -0.14434018700E+03  0.28970205206E+03  0.32936520225E+03  0.41800000000E+01 0.  1.
        -11    1    1    2    0    0  0.46484386098E+02  0.40612640840E+02  0.27682502346E+03  0.28362347991E+03  0.00000000000E+00 0.  1.
         11    1    1    2    0    0 -0.27155435611E+02  0.11864247226E+03  0.43768283022E+03  0.45429034083E+03  0.00000000000E+00 0. -1.
</event>
<event>
 6    1  0.6981059E-006  0.1567090E+03  0.7561462E-02  0.1192463E+00
         -1   -1    0    0    0  501 -0.00000000000E+00  0.00000000000E+00  0.39845320027E+02  0.39845320027E+02  0.00000000000E+00 0.  1.
          1   -1    0    0  501    0  0.00000000000E+00 -0.00000000000E+00 -0.83299522119E+03  0.83299522119E+03  0.00000000000E+00 0. -1.
          5    1    1    2  502    0 -0.57510433571E+02  0.11487438690E+03 -0.33172160659E+03  0.35575310457E+03  0.41800000000E+01 0. -1.
         -5    1    1    2    0  502 -0.25541830952E+02  0.31539686582E+01  0.10673192402E+01  0.26094907876E+02  0.41800000000E+01 0. -1.
        -11    1    1    2    0    0  0.83801163305E+02 -0.65722000917E+02 -0.24236445766E+03  0.26473108377E+03  0.00000000000E+00 0.  1.
         11    1    1    2    0    0 -0.74889878245E+00 -0.52306354638E+02 -0.22013115616E+03  0.22626144501E+03  0.00000000000E+00 0. -1.
</event>
<event>
 6    1  0.6981059E-006  0.1127716E+03  0.7561462E-02  0.1255522E+00
         -1   -1    0    0    0  501 -0.00000000000E+00  0.00000000000E+00  0.98150651732E+02  0.98150651732E+02  0.00000000000E+00 0.  1.
          1   -1    0    0  501    0  0.00000000000E+00 -0.00000000000E+00 -0.19669208369E+03  0.19669208369E+03  0.00000000000E+00 0. -1.
          5    1    1    2  502    0  0.65848064741E+02 -0.21293988976E+02  0.38728996868E+02  0.79415421645E+02  0.41800000000E+01 0. -1.
         -5    1    1    2    0  502 -0.34378674506E+02  0.46794473838E+02 -0.20466469706E+02  0.61708709473E+02  0.41800000000E+01 0.  1.
        -11    1    1    2    0    0 -0.62056548959E+02 -0.26296439350E+02 -0.93488288409E+02  0.11525006751E+03  0.00000000000E+00 0.  1.
         11    1    1    2    0    0  0.30587158724E+02  0.79595448850E+00 -0.23315670707E+02  0.38468536791E+02  0.00000000000E+00 0. -1.
</event>
<event>
 6    1  0.6981059E-006  0.1140797E+03  0.7561462E-02  0.1253196E+00
         -3   -1    0    0    0  501 -0.00000000000E+00  0.00000000000E+00  0.68104453431E+03  0.68104453431E+03  0.00000000000E+00 0.  1.
          3   -1    0    0  501    0  0.00000000000E+00 -0.00000000000E+00 -0.32430485388E+02  0.32430485388E+02  0.00000000000E+00 0. -1.
          5    1    1    2  502    0  0.19142528675E-01 -0.37396631900E+02  0.37662584334E+03  0.37850099962E+03  0.41800000000E+01 0.  1.
         -5    1    1    2    0  502 -0.70969704592E+01 -0.56881060819E+02  0.50414698563E+02  0.76452183100E+02  0.41800000000E+01 0.  1.
        -11    1    1    2    0    0  0.40588224638E+02  0.92022422951E+01  0.74706379788E+02  0.85516831229E+02  0.00000000000E+00 0.  1.
         11    1    1    2    0    0 -0.33510396708E+02  0.85075450423E+02  0.14686712723E+03  0.17300500575E+03  0.00000000000E+00 0. -1.
</event>
<event>
 6    1  0.1335393E-005  0.2302813E+03  0.7561462E-02  0.1126442E+00
         -1   -1    0    0    0  501 -0.00000000000E+00  0.00000000000E+00  0.42710342483E+02  0.42710342483E+02  0.00000000000E+00 0.  1.
          1   -1    0    0  501    0  0.00000000000E+00 -0.00000000000E+00 -0.13757086028E+04  0.13757086028E+04  0.00000000000E+00 0. -1.
          5    1    1    2  502    0 -0.72218448433E+02 -0.13323400449E+03 -0.49896251469E+03  0.52148621047E+03  0.41800000000E+01 0.  1.
         -5    1    1    2    0  502 -0.77780392432E+02 -0.20303304683E+02 -0.11087088711E+03  0.13701036324E+03  0.41800000000E+01 0.  1.
        -11    1    1    2    0    0  0.45735235707E+02  0.36547486186E+01 -0.21798033309E+03  0.22275658147E+03  0.00000000000E+00 0. -1.
         11    1    1    2    0    0  0.10426360516E+03  0.14988256056E+03 -0.50518452543E+03  0.53716579010E+03  0.00000000000E+00 0.  1.
</event>
<event>
 6    1  0.6981059E-006  0.1136957E+03  0.7561462E-02  0.1253875E+00
          2   -1    0    0  501    0  0.00000000000E+00  0.00000000000E+00  0.46829247031E+02  0.46829247031E+02  0.00000000000E+00 0. -1.
         -2   -1    0    0    0  501 -0.00000000000E+00 -0.00000000000E+00 -0.36838397082E+03  0.36838397082E+03  0.00000000000E+00 0.  1.
          5    1    1    2  502    0 -0.13865024184E+02  0.60274584638E+02 -0.12768898437E+03  0.14194088058E+03  0.41800000000E+01 0. -1.
         -5    1    1    2    0  502  0.65767722951E+02 -0.76259696043E+01 -0.31002723899E+02  0.73226976475E+02  0.41800000000E+01 0. -1.
        -11    1    1    2    0    0  0.12506846737E+02 -0.26956816969E+02 -0.10684685078E+03  0.11090239276E+03  0.00000000000E+00 0.  1.
         11    1    1    2    0    0 -0.64409545504E+02 -0.25691798065E+02 -0.56016164729E+02  0.89142968039E+02  0.00000000000E+00 0. -1.
</event>
<event>
 6    1  0.6981059E-006  0.1053218E+03  0.7561462E-02  0.1269487E+00
         -1   -1    0    0    0  501 -0.00000000000E+00  0.00000000000E+00  0.47557927876E+02  0.47557927876E+02  0.00000000000E+00 0.  1.
          1   -1    0    0  501    0  0.00000000000E+00 -0.00000000000E+00 -0.30381133512E+03  0.30381133512E+03  0.00000000000E+00 0. -1.
          5    1    1    2  502    0  0.35341941878E+02  0.75885013482E+02 -0.86293382217E+02  0.12029799808E+03  0.41800000000E+01 0. -1.
         -5    1    1    2    0  502  0.69040054678E+01 -0.48624518632E+02 -0.29686584883E+02  0.57539332858E+02  0.41800000000E+01 0. -1.
        -11    1    1    2    0    0  0.38249327002E+01 -0.31075220160E+02 -0.64748017981E+01  0.31972214131E+02  0.00000000000E+00 0.  1.
         11    1    1    2    0    0 -0.46070880046E+02  0.38147253092E+01 -0.13379863834E+03  0.14155971793E+03  0.00000000000E+00 0. -1.
</event>
<event>
 6    1  0.6981059E-006  0.9487567E+02  0.7561462E-02  0.1291456E+00
          2   -1    0    0  501    0  0.00000000000E+00  0.00000000000E+00  0.11985775201E+03  0.11985775201E+03  0.00000000000E+00 0. -1.
         -2   -1    0    0    0  501 -0.00000000000E+00 -0.00000000000E+00 -0.12664980209E+03  0.12664980209E+03  0.00000000000E+00 0.  1.
          5    1    1    2  502    0  0.34029065366E+02 -0.35021554943E+02 -0.61810486865E+02  0.78882794618E+02  0.41800000000E+01 0.  1.
         -5    1    1    2    0  502 -0.58439808824E+02  0.65101235268E+01  0.13309299286E+02  0.60433457713E+02  0.41800000000E+01 0.  1.
        -11    1    1    2    0    0  0.43379456499E+02  0.40504561585E+02  0.55161783615E+02  0.81026039808E+02  0.00000000000E+00 0. -1.
         11    1    1    2    0    0 -0.18968713041E+02 -0.11993130169E+02 -0.13452646124E+02  0.26165261960E+02  0.00000000000E+00 0.  1.
</event>
<event>
 6    1  0.6981059E-006  0.1260622E+03  0.7561462E-02  0.1233418E+00
          1   -1    0    0  501    0  0.00000000000E+00  0.00000000000E+00  0.12342253650E+04  0.12342253650E+04  0.00000000000E+00 0. -1.
         -1   -1    0    0    0  501 -0.00000000000E+00 -0.00000000000E+00 -0.23470732698E+02  0.23470732698E+02  0.00000000000E+00 0.  1.
          5    1    1    2  502    0  0.19598987696E+02  0.19218529120E+02  0.37444363881E+03  0.37547168099E+03  0.41800000000E+01 0.  1.
         -5    1    1    2    0  502  0.80476661227E+02 -0.34468319786E+02  0.15708643823E+03  0.17988379456E+03  0.41800000000E+01 0.  1.
        -11    1    1    2    0    0  0.14232550266E+02  0.17278052137E+02  0.12012654897E+02  0.25404732835E+02  0.00000000000E+00 0.  1.
         11    1    1    2    0    0 -0.11430819919E+03 -0.20282614710E+01  0.66721190037E+03  0.67693588931E+03  0.00000000000E+00 0. -1.
</event>
<event>
 6    1  0.6981059E-006  0.8835485E+02  0.7561462E-02  0.1306885E+00
          2   -1    0    0  501    0  0.00000000000E+00  0.00000000000E+00  0.14627568630E+03  0.14627568630E+03  0.00000000000E+00 0. -1.
         -2   -1    0    0    0  501 -0.00000000000E+00 -0.00000000000E+00 -0.13013771577E+03  0.13013771577E+03  0.00000000000E+00 0.  1.
          5    1    1    2  502    0 -0.23065704763E+02 -0.27761556244E+02 -0.87779450489E+02  0.95002289811E+02  0.41800000000E+01 0.  1.
         -5    1    1    2    0  502 -0.62333283522E+01 -0.32377397723E+02  0.42454835413E+02  0.53916933477E+02  0.41800000000E+01 0.  1.
        -11    1    1    2    0    0 -0.28509621633E+02  0.31960960968E+02  0.42757555731E+02  0.60518675826E+02  0.00000000000E+00 0. -1.
         11    1    1    2    0    0  0.57808654748E+02  0.28177992999E+02  0.18705029881E+02  0.66975502955E+02  0.00000000000E+00 0.  1.
</event>
<event>
 6    1  0.6981059E-006  0.1087612E+03  0.7561462E-02  0.1262881E+00
         -1   -1    0    0    0  501 -0.00000000000E+00  0.00000000000E+00  0.11616032951E+03  0.11616032951E+03  0.00000000000E+00 0.  1.
          1   -1    0    0  501    0  0.00000000000E+00 -0.00000000000E+00 -0.13432190772E+03  0.13432190772E+03  0.00000000000E+00 0. -1.
          5    1    1    2  502    0 -0.55466735835E+01  0.27279646742E+02 -0.33501357939E+02  0.43757948969E+02  0.41800000000E+01 0. -1.
         -5    1    1    2    0  502  0.72792728978E+02 -0.26158348391E+02  0.44176589091E+02  0.89174458262E+02  0.41800000000E+01 0.  1.
        -11    1    1    2    0    0 -0.69888156804E+01  0.38932305475E+02 -0.20967377082E+02  0.44768279573E+02  0.00000000000E+00 0.  1.
         11    1    1    2    0    0 -0.60257239715E+02 -0.40053603826E+02 -0.78694322875E+01  0.72781550423E+02  0.00000000000E+00 0. -1.
</event>
<event>
 6    1  0.6981059E-006  0.1973106E+03  0.7561462E-02  0.1152028E+00
         -1   -1    0    0    0  501 -0.00000000000E+00  0.00000000000E+00  0.37149763511E+02  0.37149763511E+02  0.00000000000E+00 0. -1.
          1   -1    0    0  501    0  0.00000000000E+00 -0.00000000000E+00 -0.13109752871E+04  0.13109752871E+04  0.00000000000E+00 0.  1.
          5    1    1    2  502    0  0.78461925205E+01  0.11528597872E+02 -0.18400322262E+03  0.18457824802E+03  0.41800000000E+01 0. -1.
         -5    1    1    2    0  502 -0.12248438299E+03  0.13718206690E+03 -0.35765535319E+03  0.40218921867E+03  0.41800000000E+01 0. -1.
        -11    1    1    2    0    0  0.47878659335E+02 -0.10743447158E+03 -0.30215188000E+03  0.32423801488E+03  0.00000000000E+00 0. -1.
         11    1    1    2    0    0  0.66759531133E+02 -0.41276193192E+02 -0.43001506779E+03  0.43711956905E+03  0.00000000000E+00 0.  1.
</event>
<event>
 6    1  0.6981059E-006  0.1473397E+03  0.7561462E-02  0.1203781E+00
          1   -1    0    0  501    0  0.00000000000E+00  0.00000000000E+00  0.58329510476E+02  0.58329510476E+02  0.00000000000E+00 0. -1.
         -1   -1    0    0    0  501 -0.00000000000E+00 -0.00000000000E+00 -0.56736198905E+03  0.56736198905E+03  0.00000000000E+00 0.  1.
          5    1    1    2  502    0  0.58294748592E+02  0.10979678807E+02 -0.34677722265E+02  0.68839290246E+02  0.41800000000E+01 0.  1.
         -5    1    1    2    0  502  0.72819969871E+02  0.30362924325E+02 -0.34451170084E+03  0.35345500365E+03  0.41800000000E+01 0.  1.
        -11    1    1    2    0    0 -0.30263594222E+02 -0.46208585409E+02 -0.52548665633E+02  0.76239627232E+02  0.00000000000E+00 0.  1.
         11    1    1    2    0    0 -0.10085112424E+03  0.48659822782E+01 -0.77294389829E+02  0.12715757840E+03  0.00000000000E+00 0. -1.
</event>
<event>
 6    1  0.6981059E-006  0.9341466E+02  0.7561462E-02  0.1294787E+00
         -1   -1    0    0    0  501 -0.00000000000E+00  0.00000000000E+00  0.25037623214E+03  0.25037623214E+03  0.00000000000E+00 0.  1.
          1   -1    0    0  501    0  0.00000000000E+00 -0.00000000000E+00 -0.16956003861E+03  0.16956003861E+03  0.00000000000E+00 0. -1.
          5    1    1    2  502    0  0.36312070780E+02 -0.30853050884E+02  0.12870291747E+02  0.49533766693E+02  0.41800000000E+01 0.  1.
         -5    1    1    2    0  502  0.35111289931E+02  0.50833654728E+02  0.19173685793E+03  0.20148786123E+03  0.41800000000E+01 0.  1.
        -11    1    1    2    0    0 -0.35193354167E+02  0.10015066107E+01 -0.12203322405E+03  0.12701056241E+03  0.00000000000E+00 0. -1.
         11    1    1    2    0    0 -0.36230006544E+02 -0.20982110455E+02 -0.17577321022E+01  0.41904080415E+02  0.00000000000E+00 0.  1.
</event>
<event>
 6    1  0.6981059E-006  0.9777833E+02  0.7561462E-02  0.1285038E+00
         -2   -1    0    0    0  501 -0.00000000000E+00  0.00000000000E+00  0.37987728119E+02  0.37987728119E+02  0.00000000000E+00 0.  1.
          2   -1    0    0  501    0  0.00000000000E+00 -0.00000000000E+00 -0.40925249221E+03  0.40925249221E+03  0.00000000000E+00 0. -1.
          5    1    1    2  502    0 -0.73734632309E+02  0.67062077462E+01 -0.30333728027E+02  0.80121012725E+02  0.41800000000E+01 0. -1.
         -5    1    1    2    0  502  0.31580949020E+02  0.45247727445E+01 -0.10271089553E+03  0.10763284987E+03  0.41800000000E+01 0. -1.
        -11    1    1    2    0    0 -0.21231462952E+02  0.84532303367E+01 -0.13394420263E+03  0.13587965830E+03  0.00000000000E+00 0. -1.
         11    1    1    2    0    0  0.63385146241E+02 -0.19684210827E+02 -0.10427593790E+03  0.12360669943E+03  0.00000000000E+00 0.  1.
</event>
<event>
 6    1  0.6981059E-006  0.5007585E+02  0.7561462E-02  0.1444933E+00
          1   -1    0    0  501    0  0.00000000000E+00  0.00000000000E+00  0.20577134241E+03  0.20577134241E+03  0.00000000000E+00 0. -1.
         -1   -1    0    0    0  501 -0.00000000000E+00 -0.00000000000E+00 -0.59481248706E+02  0.59481248706E+02  0.00000000000E+00 0.  1.
          5    1    1    2  502    0 -0.15154443375E+02 -0.96847584853E+01  0.11797621358E+03  0.11941235728E+03  0.41800000000E+01 0. -1.
         -5    1    1    2    0  502 -0.44307733316E+01  0.12756506010E+02 -0.31097306516E+02  0.34159553136E+02  0.41800000000E+01 0. -1.
        -11    1    1    2    0    0  0.21219305017E+02 -0.32098733076E+02 -0.70681197855E+01  0.39122191756E+02  0.00000000000E+00 0.  1.
         11    1    1    2    0    0 -0.16340883105E+01  0.29026985551E+02  0.66479306433E+02  0.72558488949E+02  0.00000000000E+00 0. -1.
</event>
<event>
 6    1  0.6981059E-006  0.1168022E+03  0.7561462E-02  0.1248468E+00
         -1   -1    0    0    0  501 -0.00000000000E+00  0.00000000000E+00  0.47619584334E+03  0.47619584334E+03  0.00000000000E+00 0.  1.
          1   -1    0    0  501    0  0.00000000000E+00 -0.00000000000E+00 -0.46738615243E+02  0.46738615243E+02  0.00000000000E+00 0. -1.
          5    1    1    2  502    0  0.28636856468E+02  0.17382955015E+02  0.12675416551E+03  0.13117289182E+03  0.41800000000E+01 0.  1.
         -5    1    1    2    0  502 -0.74968590133E+02 -0.78428280009E+02  0.22051174772E+03  0.24579297772E+03  0.41800000000E+01 0.  1.
        -11    1    1    2    0    0  0.16688711029E+02 -0.61814435984E+01  0.69080230633E+02  0.71335836611E+02  0.00000000000E+00 0.  1.
         11    1    1    2    0    0  0.29643022636E+02  0.67226768592E+02  0.13111084230E+02  0.74632752435E+02  0.00000000000E+00 0. -1.
</event>
<event>
 6    1  0.6981059E-006  0.7760192E+02  0.7561462E-02  0.1335998E+00
          1   -1    0    0  501    0  0.00000000000E+00  0.00000000000E+00  0.22877619023E+03  0.22877619023E+03  0.00000000000E+00 0. -1.
         -1   -1    0    0    0  501 -0.00000000000E+00 -0.00000000000E+00 -0.52461537202E+02  0.52461537202E+02  0.00000000000E+00 0.  1.
          5    1    1    2  502    0 -0.25006764851E+02 -0.20982919908E+02  0.97499835860E+02  0.10290438090E+03  0.41800000000E+01 0. -1.
         -5    1    1    2    0  502  0.21304812042E+02  0.31429151690E+02 -0.21543366744E+02  0.43855166659E+02  0.41800000000E+01 0. -1.
        -11    1    1    2    0    0  0.38454691887E+02 -0.25584290732E+02  0.77480702966E+02  0.90202985496E+02  0.00000000000E+00 0. -1.
         11    1    1    2    0    0 -0.34752739078E+02  0.15138058950E+02  0.22877480941E+02  0.44275194369E+02  0.00000000000E+00 0.  1.
</event>
<event>
 6    1  0.6981059E-006  0.8741285E+02  0.7561462E-02  0.1309241E+00
          3   -1    0    0  501    0  0.00000000000E+00  0.00000000000E+00  0.33414450689E+03  0.33414450689E+03  0.00000000000E+00 0. -1.
         -3   -1    0    0    0  501 -0.00000000000E+00 -0.00000000000E+00 -0.37574425444E+02  0.37574425444E+02  0.00000000000E+00 0.  1.
          5    1    1    2  502    0 -0.23373281813E+01  0.72528983108E+02  0.49313703494E+02  0.87836383384E+02  0.41800000000E+01 0. -1.
         -5    1    1    2    0  502  0.16004905882E+02 -0.37687645727E+02  0.11436846083E+03  0.12154889093E+03  0.41800000000E+01 0. -1.
        -11    1    1    2    0    0  0.84460326705E+01  0.87125858171E+01 -0.71065388706E+01  0.14062272726E+02  0.00000000000E+00 0.  1.
         11    1    1    2    0    0 -0.22113610372E+02 -0.43553923198E+02  0.13999445599E+03  0.14827138530E+03  0.00000000000E+00 0. -1.
</event>
<event>
 6    1  0.6981059E-006  0.7471632E+02  0.7561462E-02  0.1344752E+00
          1   -1    0    0  501    0  0.00000000000E+00  0.00000000000E+00  0.24512427840E+03  0.24512427840E+03  0.00000000000E+00 0. -1.
         -1   -1    0    0    0  501 -0.00000000000E+00 -0.00000000000E+00 -0.66504437930E+02  0.66504437930E+02  0.00000000000E+00 0.  1.
          5    1    1    2  502    0  0.29244440701E+02 -0.26283777601E+01 -0.43436300526E+02  0.52595915097E+02  0.41800000000E+01 0.  1.
         -5    1    1    2    0  502 -0.33154901924E+02 -0.20705989778E+02  0.65814301578E+02  0.76661465068E+02  0.41800000000E+01 0.  1.
        -11    1    1    2    0    0 -0.23455336685E+01 -0.28326625496E+02  0.10706159761E+03  0.11077041538E+03  0.00000000000E+00 0. -1.
         11    1    1    2    0    0  0.62559948917E+01  0.51660993034E+02  0.49180241815E+02  0.71600920792E+02  0.00000000000E+00 0.  1.
</event>
<event>
 6    1  0.6981059E-006  0.1085688E+03  0.7561462E-02  0.1263243E+00
          2   -1    0    0  501    0  0.00000000000E+00  0.00000000000E+00  0.12857925596E+03  0.12857925596E+03  0.00000000000E+00 0. -1.
         -2   -1    0    0    0  501 -0.00000000000E+00 -0.00000000000E+00 -0.10376952754E+03  0.10376952754E+03  0.00000000000E+00 0.  1.
          5    1    1    2  502    0 -0.22143231869E+02  0.54737310667E+02 -0.12565143624E+02  0.60513231040E+02  0.41800000000E+01 0.  1.
         -5    1    1    2    0  502  0.17167601462E+02 -0.63931777077E+02 -0.12538697484E+02  0.67503259142E+02  0.41800000000E+01 0.  1.
        -11    1    1    2    0    0  0.22072812387E+02 -0.36595620585E+02  0.23718665118E+02  0.48877638728E+02  0.00000000000E+00 0. -1.
         11    1    1    2    0    0 -0.17097181980E+02  0.45790086995E+02  0.26194904408E+02  0.55454654589E+02  0.00000000000E+00 0.  1.
</event>
<event>
 6    1  0.6981059E-006  0.1021564E+03  0.7561462E-02  0.1275826E+00
          2   -1    0    0  501    0  0.00000000000E+00  0.00000000000E+00  0.48501069015E+02  0.48501069015E+02  0.00000000000E+00 0. -1.
         -2   -1    0    0    0  501 -0.00000000000E+00 -0.00000000000E+00 -0.45248386662E+03  0.45248386662E+03  0.00000000000E+00 0.  1.
          5    1    1    2  502    0  0.14529483500E+02 -0.28489212042E+02 -0.29019597035E+02  0.43386063495E+02  0.41800000000E+01 0. -1.
         -5    1    1    2    0  502 -0.21130656518E+02  0.79144538883E+02 -0.33517197235E+03  0.34506243801E+03  0.41800000000E+01 0. -1.
        -11    1    1    2    0    0 -0.22242946604E+02  0.88267295609E+01  0.13632690366E+02  0.27541061617E+02  0.00000000000E+00 0. -1.
         11    1    1    2    0    0  0.28844119622E+02 -0.59482056402E+02 -0.53423918585E+02  0.84995372507E+02  0.00000000000E+00 0.  1.
</event>
<event>
 6    1  0.6981059E-006  0.9180062E+02  0.7561462E-02  0.1298549E+00
         -3   -1    0    0    0  501 -0.00000000000E+00  0.00000000000E+00  0.74016717284E+02  0.74016717284E+02  0.00000000000E+00 0.  1.
          3   -1    0    0  501    0  0.00000000000E+00 -0.00000000000E+00 -0.23349327315E+03  0.23349327315E+03  0.00000000000E+00 0. -1.
          5    1    1    2  502    0  0.41672269346E+00 -0.50421799993E+02  0.34078808255E+02  0.61003025699E+02  0.41800000000E+01 0. -1.
         -5    1    1    2    0  502 -0.20889582477E+02 -0.11465185209E+02 -0.85944759160E+02  0.89284932408E+02  0.41800000000E+01 0. -1.
        -11    1    1    2    0    0  0.21713351980E+02  0.83950703530E+02 -0.62183740920E+02  0.10670523845E+03  0.00000000000E+00 0.  1.
         11    1    1    2    0    0 -0.12404921973E+01 -0.22063718328E+02 -0.45426864041E+02  0.50516793881E+02  0.00000000000E+00 0. -1.
</event>
<event>
 6    1  0.6981059E-006  0.1066374E+03  0.7561462E-02  0.1266927E+00
         -1   -1    0    0    0  501 -0.00000000000E+00  0.00000000000E+00  0.52784653538E+03  0.52784653538E+03  0.00000000000E+00 0.  1.
          1   -1    0    0  501    0  0.00000000000E+00 -0.00000000000E+00 -0.38520484878E+02  0.38520484878E+02  0.00000000000E+00 0. -1.
          5    1    1    2  502    0  0.72792878680E+02 -0.52561486443E+02  0.14516984766E+03  0.17074328717E+03  0.41800000000E+01 0. -1.
         -5    1    1    2    0  502 -0.10561756511E+02  0.16753938964E+02  0.23494773906E+03  0.23581806051E+03  0.41800000000E+01 0. -1.
        -11    1    1    2    0    0  0.14666865107E+02 -0.57350392636E+01  0.54415989048E+02  0.56648984735E+02  0.00000000000E+00 0.  1.
         11    1    1    2    0    0 -0.76897987276E+02  0.41542586742E+02  0.54792474731E+02  0.10315668785E+03  0.00000000000E+00 0. -1.
</event>
<event>
 6    1  0.6981059E-006  0.1283536E+03  0.7561462E-02  0.1229919E+00
         -1   -1    0    0    0  501 -0.00000000000E+00  0.00000000000E+00  0.25177681174E+03  0.25177681174E+03  0.00000000000E+00 0.  1.
          1   -1    0    0  501    0  0.00000000000E+00 -0.00000000000E+00 -0.98053083883E+02  0.98053083883E+02  0.00000000000E+00 0. -1.
          5    1    1    2  502    0 -0.24430961972E+02  0.13548407035E+02  0.42524010466E+01  0.28565478303E+02  0.41800000000E+01 0.  1.
         -5    1    1    2    0  502  0.10785692177E+03 -0.52075390709E+02  0.12807091417E+03  0.17539838468E+03  0.41800000000E+01 0.  1.
        -11    1    1    2    0    0 -0.82312657882E+02  0.50514981019E+02  0.54326076725E+02  0.11080821074E+03  0.00000000000E+00 0.  1.
         11    1    1    2    0    0 -0.11133019189E+01 -0.11987997345E+02 -0.32925664081E+02  0.35057821904E+02  0.00000000000E+00 0. -1.
</event>
<event>
 6    1  0.6981059E-006  0.8970978E+02  0.7561462E-02  0.1303556E+00
          1   -1    0    0  501    0  0.00000000000E+00  0.00000000000E+00  0.72197672791E+02  0.72197672791E+02  0.00000000000E+00 0. -1.
         -1   -1    0    0    0  501 -0.00000000000E+00 -0.00000000000E+00 -0.17726736913E+03  0.17726736913E+03  0.00000000000E+00 0.  1.
          5    1    1    2  502    0 -0.35871302607E+02  0.34028595204E+02 -0.24543787982E+02  0.55358518502E+02  0.41800000000E+01 0.  1.
         -5    1    1    2    0  502  0.68161047064E+02 -0.41219959929E+02 -0.41144227915E+02  0.89751508757E+02  0.41800000000E+01 0.  1.
        -11    1    1    2    0    0 -0.11050511696E+02  0.21673024351E+02 -0.64180557719E+02  0.68636563014E+02  0.00000000000E+00 0.  1.
         11    1    1    2    0    0 -0.21239232761E+02 -0.14481659625E+02  0.24798877278E+02  0.35718451647E+02  0.00000000000E+00 0. -1.
</event>
<event>
 6    1  0.6981059E-006  0.4834079E+02  0.7561462E-02  0.1454502E+00
         -1   -1    0    0    0  501 -0.00000000000E+00  0.00000000000E+00  0.16289088240E+03  0.16289088240E+03  0.00000000000E+00 0.  1.
          1   -1    0    0  501    0  0.00000000000E+00 -0.00000000000E+00 -0.99611075406E+02  0.99611075406E+02  0.00000000000E+00 0. -1.
          5    1    1    2  502    0  0.27924888202E+01 -0.16520755605E+01  0.13326834933E+03  0.13337335821E+03  0.41800000000E+01 0.  1.
         -5    1    1    2    0  502  0.12697560758E+02 -0.90461317869E+01 -0.27251858189E+02  0.31673280920E+02  0.41800000000E+01 0.  1.
        -11    1    1    2    0    0  0.23344659238E+02  0.24682241240E+02  0.50101466520E+01  0.34340758831E+02  0.00000000000E+00 0.  1.
         11    1    1    2    0    0 -0.38834708817E+02 -0.13984033893E+02 -0.47746830800E+02  0.63114559843E+02  0.00000000000E+00 0. -1.
</event>
<event>
 6    1  0.6981059E-006  0.3418103E+03  0.7561462E-02  0.1066028E+00
          1   -1    0    0  501    0  0.00000000000E+00  0.00000000000E+00  0.37664330999E+03  0.37664330999E+03  0.00000000000E+00 0. -1.
         -1   -1    0    0    0  501 -0.00000000000E+00 -0.00000000000E+00 -0.32635606458E+03  0.32635606458E+03  0.00000000000E+00 0.  1.
          5    1    1    2  502    0 -0.52520145429E+02 -0.30358689483E+03  0.69069757367E+02  0.31577123392E+03  0.41800000000E+01 0. -1.
         -5    1    1    2    0  502 -0.35135786262E+02 -0.16820715891E+02 -0.17498742037E+02  0.42908487881E+02  0.41800000000E+01 0. -1.
        -11    1    1    2    0    0  0.42220233576E+02  0.69421369408E+02 -0.32174236712E+02  0.87390252098E+02  0.00000000000E+00 0.  1.
         11    1    1    2    0    0  0.45435698115E+02  0.25098624131E+03  0.30890466799E+02  0.25692940067E+03  0.00000000000E+00 0. -1.
</event>
<event>
 6    1  0.6981059E-006  0.1297274E+03  0.7561462E-02  0.1227861E+00
         -2   -1    0    0    0  501 -0.00000000000E+00  0.00000000000E+00  0.81599695851E+02  0.81599695851E+02  0.00000000000E+00 0.  1.
          2   -1    0    0  501    0  0.00000000000E+00 -0.00000000000E+00 -0.26559495588E+03  0.26559495588E+03  0.00000000000E+00 0. -1.
          5    1    1    2  502    0  0.64748174861E+02 -0.65750450554E+02 -0.10133864490E+03  0.13712199403E+03  0.41800000000E+01 0.  1.
         -5    1    1    2    0  502 -0.35346881018E+02 -0.42064517154E+02  0.66623368723E+01  0.55503916382E+02  0.41800000000E+01 0.  1.
        -11    1    1    2    0    0 -0.30611779085E+01  0.21998174873E+02  0.66256736971E+01  0.23177360934E+02  0.00000000000E+00 0.  1.
         11    1    1    2    0    0 -0.26340115934E+02  0.85816792836E+02 -0.95944625697E+02  0.13139138039E+03  0.00000000000E+00 0. -1.
</event>
<event>
 6    1  0.6981059E-006  0.1089782E+03  0.7561462E-02  0.1262474E+00
          2   -1    0    0  501    0  0.00000000000E+00  0.00000000000E+00  0.13234952710E+03  0.13234952710E+03  0.00000000000E+00 0. -1.
         -2   -1    0    0    0  501 -0.00000000000E+00 -0.00000000000E+00 -0.17199762297E+03  0.17199762297E+03  0.00000000000E+00 0.  1.
          5    1    1    2  502    0  0.15198829073E+02 -0.10107436088E+02  0.29751564424E+02  0.35153842680E+02  0.41800000000E+01 0. -1.
         -5    1    1    2    0  502 -0.34468332015E+02 -0.76109959905E+02 -0.10862068260E+03  0.13710111960E+03  0.41800000000E+01 0. -1.
        -11    1    1    2    0    0 -0.28351519046E+02  0.23481991391E+02 -0.11313109185E+02  0.38512322591E+02  0.00000000000E+00 0.  1.
         11    1    1    2    0    0  0.47621021989E+02  0.62735404601E+02  0.50534131491E+02  0.93579865202E+02  0.00000000000E+00 0. -1.
</event>
<event>
 6    1  0.6981059E-006  0.1335842E+03  0.7561462E-02  0.1222232E+00
         -3   -1    0    0    0  501 -0.00000000000E+00  0.00000000000E+00  0.30510438837E+03  0.30510438837E+03  0.00000000000E+00 0.  1.
          3   -1    0    0  501    0  0.00000000000E+00 -0.00000000000E+00 -0.10049031699E+03  0.10049031699E+03  0.00000000000E+00 0. -1.
          5    1    1    2  502    0 -0.14497609635E+02 -0.74190134211E+02  0.16921240229E+03  0.18537709187E+03  0.41800000000E+01 0. -1.
         -5    1    1    2    0  502  0.55404585596E+02 -0.36647935957E+02  0.18117455632E+02  0.68981547630E+02  0.41800000000E+01 0. -1.
        -11    1    1    2    0    0  0.71306590392E+01  0.30261907138E+02 -0.32549403694E+02  0.45012142837E+02  0.00000000000E+00 0. -1.
         11    1    1    2    0    0 -0.48037634999E+02  0.80576163030E+02  0.49833617155E+02  0.10622392303E+03  0.00000000000E+00 0.  1.
</event>
<event>
 6    1  0.6981059E-006  0.2773008E+03  0.7561462E-02  0.1097172E+00
         -2   -1    0    0    0  501 -0.00000000000E+00  0.00000000000E+00  0.45783691389E+03  0.45783691389E+03  0.00000000000E+00 0. -1.
          2   -1    0    0  501    0  0.00000000000E+00 -0.00000000000E+00 -0.17825138470E+03  0.17825138470E+03  0.00000000000E+00 0.  1.
          5    1    1    2  502    0 -0.77120918214E+02  0.22442024857E+03  0.15514985788E+03  0.28355076229E+03  0.41800000000E+01 0. -1.
         -5    1    1    2    0  502 -0.51036771909E+02  0.48560664337E+01  0.15441108505E+02  0.53705062145E+02  0.41800000000E+01 0. -1.
        -11    1    1    2    0    0  0.79928189212E+02 -0.10111900782E+03  0.88678228096E+01  0.12919832606E+03  0.00000000000E+00 0.  1.
         11    1    1    2    0    0  0.48229500912E+02 -0.12815730718E+03  0.10012673999E+03  0.16963414810E+03  0.00000000000E+00 0. -1.
</event>
<event>
 6    1  0.6981059E-006  0.1614934E+03  0.7561462E-02  0.1187021E+00
          2   -1    0    0  501    0  0.00000000000E+00  0.00000000000E+00  0.16107576061E+03  0.16107576061E+03  0.00000000000E+00 0. -1.
         -2   -1    0    0    0  501 -0.00000000000E+00 -0.00000000000E+00 -0.19609169460E+03  0.19609169460E+03  0.00000000000E+00 0.  1.
          5    1    1    2  502    0 -0.16368874952E+02 -0.35255710767E+02 -0.44890372303E+02  0.59527498976E+02  0.41800000000E+01 0. -1.
         -5    1    1    2    0  502 -0.12370508350E+03  0.25744877195E+02  0.27263299664E+02  0.12933099510E+03  0.41800000000E+01 0. -1.
        -11    1    1    2    0    0  0.53418117471E+02  0.38770764244E+02 -0.35685872899E+02  0.75034318541E+02  0.00000000000E+00 0.  1.
         11    1    1    2    0    0  0.86655840981E+02 -0.29259930672E+02  0.18297011545E+02  0.93274642592E+02  0.00000000000E+00 0. -1.
</event>
<event>
 6    1  0.6981059E-006  0.1197596E+03  0.7561462E-02  0.1243494E+00
         -1   -1    0    0    0  501 -0.00000000000E+00  0.00000000000E+00  0.41658671683E+03  0.41658671683E+03  0.00000000000E+00 0.  1.
          1   -1    0    0  501    0  0.00000000000E+00 -0.00000000000E+00 -0.62582710527E+02  0.62582710527E+02  0.00000000000E+00 0. -1.
          5    1    1    2  502    0  0.36572790180E+01  0.36389722356E+02  0.21710130601E+03  0.22019999331E+03  0.41800000000E+01 0.  1.
         -5    1    1    2    0  502  0.32762864733E+02  0.68868281463E+02  0.38870742418E+02  0.85700948147E+02  0.41800000000E+01 0.  1.
        -11    1    1    2    0    0  0.20036043700E+01 -0.80706547679E+02  0.20453721235E+02  0.83282146832E+02  0.00000000000E+00 0.  1.
         11    1    1    2    0    0 -0.38423748121E+02 -0.24551456140E+02  0.77578236639E+02  0.89986339064E+02  0.00000000000E+00 0. -1.
</event>
<event>
 6    1  0.6981059E-006  0.8338408E+02  0.7561462E-02  0.1319713E+00
         -1   -1    0    0    0  501 -0.00000000000E+00  0.00000000000E+00  0.73257479552E+02  0.73257479552E+02  0.00000000000E+00 0.  1.
          1   -1    0    0  501    0  0.00000000000E+00 -0.00000000000E+00 -0.21262164705E+03  0.21262164705E+03  0.00000000000E+00 0. -1.
          5    1    1    2  502    0  0.21964563011E+02  0.19146409251E+02  0.45195825305E+02  0.53936648399E+02  0.41800000000E+01 0.  1.
         -5    1    1    2    0  502  0.11796398788E+02 -0.38455793710E+02 -0.67954394436E+02  0.79077653085E+02  0.41800000000E+01 0.  1.
        -11    1    1    2    0    0 -0.13915981923E+02  0.54631309781E+02 -0.52537027244E+02  0.77060844745E+02  0.00000000000E+00 0.  1.
         11    1    1    2    0    0 -0.19844979876E+02 -0.35321925322E+02 -0.64068571125E+02  0.75803980376E+02  0.00000000000E+00 0. -1.
</event>
<event>
 6    1  0.6981059E-006  0.9108993E+02  0.7561462E-02  0.1300234E+00
         -2   -1    0    0    0  501 -0.00000000000E+00  0.00000000000E+00  0.85269861393E+02  0.85269861393E+02  0.00000000000E+00 0.  1.
          2   -1    0    0  501    0  0.00000000000E+00 -0.00000000000E+00 -0.19020204890E+03  0.19020204890E+03  0.00000000000E+00 0. -1.
          5    1    1    2  502    0  0.76346669405E+01  0.11829846956E+02  0.39095652190E+02  0.41763331266E+02  0.41800000000E+01 0. -1.
         -5    1    1    2    0  502 -0.49353413082E+02  0.38004272565E+02 -0.87080056998E+02  0.10714706176E+03  0.41800000000E+01 0. -1.
        -11    1    1    2    0    0  0.34505722399E+02 -0.73029781155E+02 -0.21490236158E+02  0.83581242298E+02  0.00000000000E+00 0.  1.
         11    1    1    2    0    0  0.72130237419E+01  0.23195661634E+02 -0.35457546545E+02  0.42980274977E+02  0.00000000000E+00 0. -1.
</event>
<event>
 6    1  0.6981059E-006  0.1147868E+03  0.7561462E-02  0.1251954E+00
         -1   -1    0    0    0  501 -0.00000000000E+00  0.00000000000E+00  0.71138836846E+02  0.71138836846E+02  0.00000000000E+00 0.  1.
          1   -1    0    0  501    0  0.00000000000E+00 -0.00000000000E+00 -0.26811217520E+03  0.26811217520E+03  0.00000000000E+00 0. -1.
          5    1    1    2  502    0  0.26370765112E+02 -0.25602961095E+01 -0.86146391387E+02  0.90225525866E+02  0.41800000000E+01 0.  1.
         -5    1    1    2    0  502 -0.19150637223E+02 -0.81567056792E+02 -0.68557739295E+00  0.83892038216E+02  0.41800000000E+01 0.  1.
        -11    1    1    2    0    0 -0.10956322458E+02  0.10099396357E+03 -0.75996904207E+02  0.12686745496E+03  0.00000000000E+00 0. -1.
         11    1    1    2    0    0  0.37361945683E+01 -0.16866610669E+02 -0.34144465366E+02  0.38265993002E+02  0.00000000000E+00 0.  1.
</event>
<event>
 6    1  0.6981059E-006  0.9607899E+02  0.7561462E-02  0.1288764E+00
         -4   -1    0    0    0  501 -0.00000000000E+00  0.00000000000E+00  0.34028091524E+02  0.34028091524E+02  0.00000000000E+00 0.  1.
          4   -1    0    0  501    0  0.00000000000E+00 -0.00000000000E+00 -0.54569115908E+03  0.54569115908E+03  0.00000000000E+00 0. -1.
          5    1    1    2  502    0 -0.35522583163E+02 -0.26782063099E+02 -0.34619776020E+01  0.44817301428E+02  0.41800000000E+01 0.  1.
         -5    1    1    2    0  502 -0.62538298177E+01  0.59057340246E+02 -0.14299337354E+03  0.15489175931E+03  0.41800000000E+01 0.  1.
        -11    1    1    2    0    0 -0.15846162368E+02 -0.25360539045E+02 -0.41561835143E+02  0.51201991591E+02  0.00000000000E+00 0.  1.
         11    1    1    2    0    0  0.57622575348E+02 -0.69147381022E+01 -0.32364588127E+03  0.32880819828E+03  0.00000000000E+00 0. -1.
</event>
<event>
 6    1  0.6981059E-006  0.1502423E+03  0.7561462E-02  0.1200176E+00
         -1   -1    0    0    0  501 -0.00000000000E+00  0.00000000000E+00  0.70917733484E+02  0.70917733484E+02  0.00000000000E+00 0.  1.
          1   -1    0    0  501    0  0.00000000000E+00 -0.00000000000E+00 -0.42107183806E+03  0.42107183806E+03  0.00000000000E+00 0. -1.
          5    1    1    2  502    0  0.21547480539E+02 -0.32663669620E+02 -0.14542566056E+02  0.41954354460E+02  0.41800000000E+01 0. -1.
         -5    1    1    2    0  502 -0.13391274199E+03 -0.22545333247E+02 -0.10312882194E+03  0.17056946044E+03  0.41800000000E+01 0. -1.
        -11    1    1    2    0    0  0.58274665602E+02  0.31026102129E+02 -0.20264200792E+03  0.21312517223E+03  0.00000000000E+00 0.  1.
         11    1    1    2    0    0  0.54090595851E+02  0.24182900738E+02 -0.29840708660E+02  0.66340584418E+02  0.00000000000E+00 0. -1.
</event>
<event>
 6    1  0.6981059E-006  0.1154160E+03  0.7561462E-02  0.1250857E+00
         -2   -1    0    0    0  501 -0.00000000000E+00  0.00000000000E+00  0.48529524365E+02  0.48529524365E+02  0.00000000000E+00 0.  1.
          2   -1    0    0  501    0  0.00000000000E+00 -0.00000000000E+00 -0.42320832091E+03  0.42320832091E+03  0.00000000000E+00 0. -1.
          5    1    1    2  502    0 -0.18776900756E+02 -0.15344093133E+02 -0.12859067127E+03  0.13092381882E+03  0.41800000000E+01 0. -1.
         -5    1    1    2    0  502  0.78555533639E+02 -0.55908231310E+02 -0.59567601736E+02  0.11341284658E+03  0.41800000000E+01 0. -1.
        -11    1    1    2    0    0 -0.30385676422E+02 -0.23348499549E+01 -0.71433735887E+01  0.31301256240E+02  0.00000000000E+00 0.  1.
         11    1    1    2    0    0 -0.29392956460E+02  0.73587174398E+02 -0.17937714995E+03  0.19609992363E+03  0.00000000000E+00 0. -1.
</event>
<event>
 6    1  0.6981059E-006  0.8079453E+02  0.7561462E-02  0.1326812E+00
          1   -1    0    0  501    0  0.00000000000E+00  0.00000000000E+00  0.16103814873E+03  0.16103814873E+03  0.00000000000E+00 0. -1.
         -1   -1    0    0    0  501 -0.00000000000E+00 -0.00000000000E+00 -0.67152288230E+02  0.67152288230E+02  0.00000000000E+00 0.  1.
          5    1    1    2  502    0  0.57786860627E+02 -0.26266490587E+01  0.36748274270E+02  0.68659512147E+02  0.41800000000E+01 0.  1.
         -5    1    1    2    0  502 -0.65193627422E+02 -0.41987656301E+01  0.15467284365E+02  0.67264760275E+02  0.41800000000E+01 0.  1.
        -11    1    1    2    0    0  0.14671171287E+02  0.18967984866E+02  0.62581000905E+02  0.67017978118E+02  0.00000000000E+00 0. -1.
         11    1    1    2    0    0 -0.72644044932E+01 -0.12142570177E+02 -0.20910699040E+02  0.25248186420E+02  0.00000000000E+00 0.  1.
</event>
<event>
 6    1  0.6981059E-006  0.9904485E+02  0.7561462E-02  0.1282317E+00
          2   -1    0    0  501    0  0.00000000000E+00  0.00000000000E+00  0.31077362849E+02  0.31077362849E+02  0.00000000000E+00 0.  1.
         -2   -1    0    0    0  501 -0.00000000000E+00 -0.00000000000E+00 -0.49351869409E+03  0.49351869409E+03  0.00000000000E+00 0. -1.
          5    1    1    2  502    0 -0.39621258103E+02  0.67810436767E+02 -0.14768877517E+03  0.16732467284E+03  0.41800000000E+01 0. -1.
         -5    1    1    2    0  502  0.16370444987E+02 -0.35482894188E+02 -0.21107855527E+03  0.21470597603E+03  0.41800000000E+01 0. -1.
        -11    1    1    2    0    0  0.39375826503E+02 -0.44881117990E+02 -0.31402443113E+02  0.67460239388E+02  0.00000000000E+00 0.  1.
         11    1    1    2    0    0 -0.16125013387E+02  0.12553575410E+02 -0.72271557690E+02  0.75105168686E+02  0.00000000000E+00 0. -1.
</event>
<event>
 6    1  0.6981059E-006  0.5936003E+02  0.7561462E-02  0.1400537E+00
         -3   -1    0    0    0  501 -0.00000000000E+00  0.00000000000E+00  0.27146424356E+03  0.27146424356E+03  0.00000000000E+00 0.  1.
          3   -1    0    0  501    0  0.00000000000E+00 -0.00000000000E+00 -0.63767444172E+02  0.63767444172E+02  0.00000000000E+00 0. -1.
          5    1    1    2  502    0 -0.20152029777E+02 -0.10947229907E+02  0.17854161874E+03  0.18005701366E+03  0.41800000000E+01 0. -1.
         -5    1    1    2    0  502  0.23268762533E+02  0.46512302215E+02  0.23302179569E+02  0.57142747045E+02  0.41800000000E+01 0.  1.
        -11    1    1    2    0    0  0.10344746902E+02 -0.20939522295E+02 -0.40972705052E+02  0.47161848370E+02  0.00000000000E+00 0. -1.
         11    1    1    2    0    0 -0.13461479658E+02 -0.14625550013E+02  0.46825706135E+02  0.50870078659E+02  0.00000000000E+00 0.  1.
</event>
<event>
 6    1  0.6981059E-006  0.8529178E+02  0.7561462E-02  0.1314671E+00
         -2   -1    0    0    0  501 -0.00000000000E+00  0.00000000000E+00  0.25174622327E+02  0.25174622327E+02  0.00000000000E+00 0.  1.
          2   -1    0    0  501    0  0.00000000000E+00 -0.00000000000E+00 -0.52126649752E+03  0.52126649752E+03  0.00000000000E+00 0. -1.
          5    1    1    2  502    0 -0.12043243171E+02 -0.40668827917E+02 -0.17877814416E+03  0.18378816746E+03  0.41800000000E+01 0.  1.
         -5    1    1    2    0  502  0.22448643181E+02  0.44050752091E+02 -0.24973087268E+02  0.55547617664E+02  0.41800000000E+01 0.  1.
        -11    1    1    2    0    0 -0.44307649228E+02 -0.35489776416E+00 -0.24396024846E+03  0.24795139960E+03  0.00000000000E+00 0. -1.
         11    1    1    2    0    0  0.33902249218E+02 -0.30270264099E+01 -0.48380395307E+02  0.59153935127E+02  0.00000000000E+00 0.  1.
</event>
<event>
 6    1  0.6981059E-006  0.1251055E+03  0.7561462E-02  0.1234905E+00
          1   -1    0    0  501    0  0.00000000000E+00  0.00000000000E+00  0.66882040366E+02  0.66882040366E+02  0.00000000000E+00 0. -1.
         -1   -1    0    0    0  501 -0.00000000000E+00 -0.00000000000E+00 -0.35140751611E+03  0.35140751611E+03  0.00000000000E+00 0.  1.
          5    1    1    2  502    0  0.92956059574E+02  0.28960974724E+02 -0.19165014600E+03  0.21500422770E+03  0.41800000000E+01 0.  1.
         -5    1    1    2    0  502 -0.41777104213E+02  0.93436240040E+01 -0.81965229535E+02  0.92565657772E+02  0.41800000000E+01 0.  1.
        -11    1    1    2    0    0 -0.40508727507E+02  0.23630893977E+02 -0.95334561124E+01  0.47856691694E+02  0.00000000000E+00 0.  1.
         11    1    1    2    0    0 -0.10670227854E+02 -0.61935492705E+02 -0.13766441012E+01  0.62862979312E+02  0.00000000000E+00 0. -1.
</event>
<event>
 6    1  0.6981059E-006  0.1564054E+03  0.7561462E-02  0.1192816E+00
         -1   -1    0    0    0  501 -0.00000000000E+00  0.00000000000E+00  0.63386900067E+02  0.63386900067E+02  0.00000000000E+00 0.  1.
          1   -1    0    0  501    0  0.00000000000E+00 -0.00000000000E+00 -0.50154836558E+03  0.50154836558E+03  0.00000000000E+00 0. -1.
          5    1    1    2  502    0  0.10900129065E+03 -0.16373922230E+02 -0.81688597223E+02  0.13725846425E+03  0.41800000000E+01 0.  1.
         -5    1    1    2    0  502 -0.11531948239E+02 -0.68060995425E+02 -0.59671566105E+02  0.91342504508E+02  0.41800000000E+01 0.  1.
        -11    1    1    2    0    0 -0.24533761389E+02  0.41503781844E+01 -0.54846176728E+01  0.25479641245E+02  0.00000000000E+00 0.  1.
         11    1    1    2    0    0 -0.72935581025E+02  0.80284539470E+02 -0.29131668451E+03  0.31085465564E+03  0.00000000000E+00 0. -1.
</event>
<event>
 6    1  0.6981059E-006  0.1019100E+03  0.7561462E-02  0.1276330E+00
         -2   -1    0    0    0  501 -0.00000000000E+00  0.00000000000E+00  0.39807035691E+03  0.39807035691E+03  0.00000000000E+00 0.  1.
          2   -1    0    0  501    0  0.00000000000E+00 -0.00000000000E+00 -0.65735324838E+02  0.65735324838E+02  0.00000000000E+00 0. -1.
          5    1    1    2  502    0 -0.22257937305E+02 -0.29942066916E+02  0.22899778515E+02  0.43975167997E+02  0.41800000000E+01 0. -1.
         -5    1    1    2    0  502 -0.52127966006E+02  0.65506557560E+02  0.30908701140E+03  0.32025097492E+03  0.41800000000E+01 0. -1.
        -11    1    1    2    0    0  0.53658572747E+02 -0.25139579587E+02 -0.25794052642E+02  0.64626419077E+02  0.00000000000E+00 0. -1.
         11    1    1    2    0    0  0.20727330565E+02 -0.10424911058E+02  0.26142294796E+02  0.34953119748E+02  0.00000000000E+00 0.  1.
</event>
<event>
 6    1  0.6981059E-006  0.7624575E+02  0.7561462E-02  0.1340056E+00
          2   -1    0    0  501    0  0.00000000000E+00  0.00000000000E+00  0.55702070697E+03  0.55702070697E+03  0.00000000000E+00 0. -1.
         -2   -1    0    0    0  501 -0.00000000000E+00 -0.00000000000E+00 -0.29956343058E+02  0.29956343058E+02  0.00000000000E+00 0.  1.
          5    1    1    2  502    0  0.30071728653E+02 -0.15043892310E+02  0.24934055890E+03  0.25163229974E+03  0.41800000000E+01 0.  1.
         -5    1    1    2    0  502  0.31828778736E+02 -0.11016101315E+02 -0.15259073643E+01  0.33973908184E+02  0.41800000000E+01 0.  1.
        -11    1    1    2    0    0  0.30870516009E+01 -0.99173319872E+01 -0.19128750930E+01  0.10561366032E+02  0.00000000000E+00 0.  1.
         11    1    1    2    0    0 -0.64987558990E+02  0.35977325613E+02  0.28116258747E+03  0.29080947608E+03  0.00000000000E+00 0. -1.
</event>
<event>
 6    1  0.6981059E-006  0.1202551E+03  0.7561462E-02  0.1242677E+00
          1   -1    0    0  501    0  0.00000000000E+00  0.00000000000E+00  0.48694214094E+02  0.48694214094E+02  0.00000000000E+00 0. -1.
         -1   -1    0    0    0  501 -0.00000000000E+00 -0.00000000000E+00 -0.38212138767E+03  0.38212138767E+03  0.00000000000E+00 0.  1.
          5    1    1    2  502    0  0.21946389659E+02 -0.10614082101E+03 -0.10389833018E+03  0.15019937856E+03  0.41800000000E+01 0. -1.
         -5    1    1    2    0  502  0.24255805889E+02  0.32997448011E+02 -0.66494409069E+02  0.78205847173E+02  0.41800000000E+01 0. -1.
        -11    1    1    2    0    0 -0.44767847770E+02  0.47788440650E+02 -0.16441734193E+03  0.17697727985E+03  0.00000000000E+00 0.  1.
         11    1    1    2    0    0 -0.14343477782E+01  0.25354932352E+02  0.13829076102E+01  0.25433096185E+02  0.00000000000E+00 0. -1.
</event>
<event>
 6    1  0.6981059E-006  0.2658634E+03  0.7561462E-02  0.1103671E+00
         -1   -1    0    0    0  501 -0.00000000000E+00  0.00000000000E+00  0.48723284858E+03  0.48723284858E+03  0.00000000000E+00 0.  1.
          1   -1    0    0  501    0  0.00000000000E+00 -0.00000000000E+00 -0.47569389384E+03  0.47569389384E+03  0.00000000000E+00 0. -1.
          5    1    1    2  502    0  0.15365967444E+02 -0.23543462421E+03  0.58591504767E+02  0.24313784581E+03  0.41800000000E+01 0. -1.
         -5    1    1    2    0  502  0.71146237217E+02  0.50731386609E+02  0.29694279453E+03  0.30956090884E+03  0.41800000000E+01 0.  1.
        -11    1    1    2    0    0 -0.64799400450E+01  0.58333326345E+02 -0.38829338408E+02  0.70373887960E+02  0.00000000000E+00 0.  1.
         11    1    1    2    0    0 -0.80032264616E+02  0.12636991126E+03 -0.30516600615E+03  0.33985409981E+03  0.00000000000E+00 0. -1.
</event>
<event>
 6    1  0.6981059E-006  0.2887201E+03  0.7561462E-02  0.1091019E+00
         -3   -1    0    0    0  501 -0.00000000000E+00  0.00000000000E+00  0.15486672356E+04  0.15486672356E+04  0.00000000000E+00 0.  1.
          3   -1    0    0  501    0  0.00000000000E+00 -0.00000000000E+00 -0.80206763490E+02  0.80206763490E+02  0.00000000000E+00 0. -1.
          5    1    1    2  502    0 -0.60201949636E+02 -0.25221515799E+03  0.11298334510E+04  0.11592143288E+04  0.41800000000E+01 0. -1.
         -5    1    1    2    0  502 -0.24776706158E+02 -0.15713706456E+02  0.36507554517E+02  0.47022119002E+02  0.41800000000E+01 0. -1.
        -11    1    1    2    0    0  0.12198633805E+02  0.15129756703E+01 -0.12846994601E+01  0.12359053960E+02  0.00000000000E+00 0.  1.
         11    1    1    2    0    0  0.72780021989E+02  0.26641588878E+03  0.30340416600E+03  0.41027849729E+03  0.00000000000E+00 0. -1.
</event>
<event>
 6    1  0.6981059E-006  0.7069819E+02  0.7561462E-02  0.1357735E+00
         -2   -1    0    0    0  501 -0.00000000000E+00  0.00000000000E+00  0.28921338269E+03  0.28921338269E+03  0.00000000000E+00 0. -1.
          2   -1    0    0  501    0  0.00000000000E+00 -0.00000000000E+00 -0.59443983910E+02  0.59443983910E+02  0.00000000000E+00 0.  1.
          5    1    1    2  502    0 -0.65613182682E+01  0.23784987296E+02  0.19872948347E+03  0.20029891792E+03  0.41800000000E+01 0. -1.
         -5    1    1    2    0  502 -0.21520757890E+02 -0.12155523403E+02 -0.27122421713E+02  0.36932342587E+02  0.41800000000E+01 0.  1.
        -11    1    1    2    0    0 -0.40162373846E+01  0.34705514631E+02  0.77099367592E+01  0.35777730970E+02  0.00000000000E+00 0.  1.
         11    1    1    2    0    0  0.32098313543E+02 -0.46334978525E+02  0.50452400264E+02  0.75648375129E+02  0.00000000000E+00 0. -1.
</event>
<event>
 6    1  0.6981059E-006  0.7168161E+02  0.7561462E-02  0.1354466E+00
         -1   -1    0    0    0  501 -0.00000000000E+00  0.00000000000E+00  0.16112294172E+03  0.16112294172E+03  0.00000000000E+00 0.  1.
          1   -1    0    0  501    0  0.00000000000E+00 -0.00000000000E+00 -0.10553066553E+03  0.10553066553E+03  0.00000000000E+00 0. -1.
          5    1    1    2  502    0 -0.34769667153E+02 -0.67398714125E+01  0.95576798552E+02  0.10201349147E+03  0.41800000000E+01 0.  1.
         -5    1    1    2    0  502 -0.25584249615E+02 -0.27530645754E+02 -0.36685893677E+02  0.52686027359E+02  0.41800000000E+01 0.  1.
        -11    1    1    2    0    0  0.19611984393E+02  0.68419159816E+01  0.40905207799E+02  0.45876767227E+02  0.00000000000E+00 0.  1.
         11    1    1    2    0    0  0.40741932375E+02  0.27428601185E+02 -0.44203836481E+02  0.66077321195E+02  0.00000000000E+00 0. -1.
</event>
<event>
 6    1  0.6981059E-006  0.1731609E+03  0.7561462E-02  0.1174591E+00
          2   -1    0    0  501    0  0.00000000000E+00  0.00000000000E+00  0.45888944895E+03  0.45888944895E+03  0.00000000000E+00 0. -1.
         -2   -1    0    0    0  501 -0.00000000000E+00 -0.00000000000E+00 -0.16644573854E+03  0.16644573854E+03  0.00000000000E+00 0.  1.
          5    1    1    2  502    0  0.77962325138E+02 -0.12307651423E+02 -0.79381045037E+02  0.11201975333E+03  0.41800000000E+01 0.  1.
         -5    1    1    2    0  502  0.22111516714E+02 -0.96183317601E+02 -0.45772857962E+01  0.98886671000E+02  0.41800000000E+01 0.  1.
        -11    1    1    2    0    0 -0.83398299361E+02  0.30581455401E+02  0.14895250349E+03  0.17342822736E+03  0.00000000000E+00 0.  1.
         11    1    1    2    0    0 -0.16675542491E+02  0.77909513624E+02  0.22744953776E+03  0.24100053581E+03  0.00000000000E+00 0. -1.
</event>
<event>
 6    1  0.6981059E-006  0.1132127E+03  0.7561462E-02  0.1254734E+00
         -2   -1    0    0    0  501 -0.00000000000E+00  0.00000000000E+00  0.20939586725E+03  0.20939586725E+03  0.00000000000E+00 0.  1.
          2   -1    0    0  501    0  0.00000000000E+00 -0.00000000000E+00 -0.74967813828E+02  0.74967813828E+02  0.00000000000E+00 0. -1.
          5    1    1    2  502    0  0.81987414427E+02 -0.33815966549E+02  0.36090330438E+02  0.95840701527E+02  0.41800000000E+01 0. -1.
         -5    1    1    2    0  502 -0.27689113018E+02  0.16091462874E+01  0.69350517104E+02  0.74808040705E+02  0.41800000000E+01 0.  1.
        -11    1    1    2    0    0 -0.43277207425E+02  0.63255866914E+02  0.15970103188E+02  0.78289626244E+02  0.00000000000E+00 0. -1.
         11    1    1    2    0    0 -0.11021093984E+02 -0.31049046652E+02  0.13017102696E+02  0.35425312606E+02  0.00000000000E+00 0.  1.
</event>
<event>
 6    1  0.6981059E-006  0.6027775E+02  0.7561462E-02  0.1396670E+00
         -1   -1    0    0    0  501 -0.00000000000E+00  0.00000000000E+00  0.14446091025E+03  0.14446091025E+03  0.00000000000E+00 0.  1.
          1   -1    0    0  501    0  0.00000000000E+00 -0.00000000000E+00 -0.91330938229E+02  0.91330938229E+02  0.00000000000E+00 0. -1.
          5    1    1    2  502    0 -0.29055282122E+01 -0.16914316939E+01  0.97490954028E+02  0.97638422523E+02  0.41800000000E+01 0.  1.
         -5    1    1    2    0  502 -0.24176779068E+02  0.10127439582E+01 -0.36618513531E+02  0.44090024151E+02  0.41800000000E+01 0.  1.
        -11    1    1    2    0    0  0.49574688203E+02 -0.25805030211E+02  0.69877156910E+01  0.56323862307E+02  0.00000000000E+00 0.  1.
         11    1    1    2    0    0 -0.22492380923E+02  0.26483717946E+02 -0.14730184168E+02  0.37739539497E+02  0.00000000000E+00 0. -1.
</event>
<event>
 6    1  0.6981059E-006  0.1012862E+03  0.7561462E-02  0.1277614E+00
         -2   -1    0    0    0  501 -0.00000000000E+00  0.00000000000E+00  0.13476748597E+03  0.13476748597E+03  0.00000000000E+00 0.  1.
          2   -1    0    0  501    0  0.00000000000E+00 -0.00000000000E+00 -0.13563577586E+03  0.13563577586E+03  0.00000000000E+00 0. -1.
          5    1    1    2  502    0  0.15107953250E+02  0.76942966047E+02  0.40538077641E+02  0.88370121728E+02  0.41800000000E+01 0. -1.
         -5    1    1    2    0  502 -0.53096856071E+02 -0.26773434496E+02  0.97018304265E+01  0.60396116042E+02  0.41800000000E+01 0. -1.
        -11    1    1    2    0    0  0.27030001600E+02 -0.44581532808E+02  0.15113749329E+02  0.54282220596E+02  0.00000000000E+00 0.  1.
         11    1    1    2    0    0  0.10958901221E+02 -0.55879987424E+01 -0.66221947295E+02  0.67354803462E+02  0.00000000000E+00 0. -1.
</event>
<event>
 6    1  0.6981059E-006  0.1522340E+03  0.7561462E-02  0.1197754E+00
         -1   -1    0    0    0  501 -0.00000000000E+00  0.00000000000E+00  0.24685787642E+03  0.24685787642E+03  0.00000000000E+00 0.  1.
          1   -1    0    0  501    0  0.00000000000E+00 -0.00000000000E+00 -0.16671495551E+03  0.16671495551E+03  0.00000000000E+00 0. -1.
          5    1    1    2  502    0 -0.32583565200E+02 -0.16878658246E+02  0.11666093001E+03  0.12236757256E+03  0.41800000000E+01 0. -1.
         -5    1    1    2    0  502 -0.66516886064E+02 -0.87604472002E+02  0.18998191623E+02  0.11170247684E+03  0.41800000000E+01 0. -1.
        -11    1    1    2    0    0  0.63259605701E+02  0.21075962048E+02  0.10169956625E+02  0.67449254314E+02  0.00000000000E+00 0.  1.
         11    1    1    2    0    0  0.35840845563E+02  0.83407168201E+02 -0.65686157352E+02  0.11205352822E+03  0.00000000000E+00 0. -1.
</event>
<event>
 6    1  0.6981059E-006  0.1106013E+03  0.7561462E-02  0.1259460E+00
          2   -1    0    0  501    0  0.00000000000E+00  0.00000000000E+00  0.25153790521E+03  0.25153790521E+03  0.00000000000E+00 0. -1.
         -2   -1    0    0    0  501 -0.00000000000E+00 -0.00000000000E+00 -0.53650174416E+02  0.53650174416E+02  0.00000000000E+00 0.  1.
          5    1    1    2  502    0 -0.14221058045E+02  0.67424592668E+02  0.87561526124E+02  0.11150249973E+03  0.41800000000E+01 0.  1.
         -5    1    1    2    0  502 -0.24554301823E+02 -0.50789482142E+02  0.24429251159E+02  0.61617740517E+02  0.41800000000E+01 0.  1.
        -11    1    1    2    0    0  0.22287069903E+01  0.33491028030E+02  0.12143427070E+02  0.35694242034E+02  0.00000000000E+00 0.  1.
         11    1    1    2    0    0  0.36546652878E+02 -0.50126138556E+02  0.73753526438E+02  0.96373597345E+02  0.00000000000E+00 0. -1.
</event>
<event>
 6    1  0.6981059E-006  0.7929568E+02  0.7561462E-02  0.1331062E+00
          1   -1    0    0  501    0  0.00000000000E+00  0.00000000000E+00  0.13280660829E+03  0.13280660829E+03  0.00000000000E+00 0. -1.
         -1   -1    0    0    0  501 -0.00000000000E+00 -0.00000000000E+00 -0.14237012916E+03  0.14237012916E+03  0.00000000000E+00 0.  1.
          5    1    1    2  502    0  0.14595349206E+02  0.50397127583E+02 -0.90346882351E+02  0.10456063426E+03  0.41800000000E+01 0.  1.
         -5    1    1    2    0  502  0.28622185049E+02 -0.81274376178E+01  0.33989795163E+02  0.45365882494E+02  0.41800000000E+01 0.  1.
        -11    1    1    2    0    0 -0.27807824750E+02  0.31149996809E+01  0.67476688394E+02  0.73048489492E+02  0.00000000000E+00 0. -1.
         11    1    1    2    0    0 -0.15409709505E+02 -0.45384689646E+02 -0.20683122075E+02  0.52201731198E+02  0.00000000000E+00 0.  1.
</event>
<event>
 6    1  0.6981059E-006  0.6375201E+02  0.7561462E-02  0.1382728E+00
          2   -1    0    0  501    0  0.00000000000E+00  0.00000000000E+00  0.69772611869E+02  0.69772611869E+02  0.00000000000E+00 0. -1.
         -2   -1    0    0    0  501 -0.00000000000E+00 -0.00000000000E+00 -0.17467406484E+03  0.17467406484E+03  0.00000000000E+00 0.  1.
          5    1    1    2  502    0  0.27182175209E+02 -0.14653266568E+02  0.26096099728E+02  0.40645635574E+02  0.41800000000E+01 0.  1.
         -5    1    1    2    0  502 -0.34928840488E+02  0.25433016269E+02 -0.91190140158E+02  0.10099493193E+03  0.41800000000E+01 0.  1.
        -11    1    1    2    0    0  0.27210317204E+02  0.52576023265E+01 -0.62822280575E+02  0.68663546960E+02  0.00000000000E+00 0.  1.
         11    1    1    2    0    0 -0.19463651924E+02 -0.16037352028E+02  0.23014868029E+02  0.34142562245E+02  0.00000000000E+00 0. -1.
</event>
<event>
 6    1  0.6981059E-006  0.1859086E+03  0.7561462E-02  0.1162204E+00
         -1   -1    0    0    0  501 -0.00000000000E+00  0.00000000000E+00  0.18696060989E+03  0.18696060989E+03  0.00000000000E+00 0.  1.
          1   -1    0    0  501    0  0.00000000000E+00 -0.00000000000E+00 -0.22748965772E+03  0.22748965772E+03  0.00000000000E+00 0. -1.
          5    1    1    2  502    0 -0.12797665111E+03  0.71110733362E+01 -0.88568139873E+02  0.15585370831E+03  0.41800000000E+01 0. -1.
         -5    1    1    2    0  502 -0.35340860895E+02  0.43409836693E+02  0.30378864191E+02  0.63825842416E+02  0.41800000000E+01 0. -1.
        -11    1    1    2    0    0 -0.70461338358E+01 -0.10158186897E+02  0.15306014768E+02  0.19675132811E+02  0.00000000000E+00 0.  1.
         11    1    1    2    0    0  0.17036364584E+03 -0.40362723132E+02  0.23542130871E+01  0.17509558407E+03  0.00000000000E+00 0. -1.
</event>
<event>
 6    1  0.6981059E-006  0.8446574E+02  0.7561462E-02  0.1316836E+00
          2   -1    0    0  501    0  0.00000000000E+00  0.00000000000E+00  0.13061012935E+03  0.13061012935E+03  0.00000000000E+00 0. -1.
         -2   -1    0    0    0  501 -0.00000000000E+00 -0.00000000000E+00 -0.14928354586E+03  0.14928354586E+03  0.00000000000E+00 0.  1.
          5    1    1    2  502    0 -0.79197294183E+01  0.21963469558E+02  0.38510199832E+02  0.45228575040E+02  0.41800000000E+01 0. -1.
         -5    1    1    2    0  502 -0.45662710212E+02  0.28257590657E+02 -0.97448333921E+02  0.11134282517E+03  0.41800000000E+01 0. -1.
        -11    1    1    2    0    0 -0.98072816544E+01 -0.17387798654E+02  0.47542892340E+02  0.51563988670E+02  0.00000000000E+00 0. -1.
         11    1    1    2    0    0  0.63389721285E+02 -0.32833261561E+02 -0.72781747644E+01  0.71758286331E+02  0.00000000000E+00 0.  1.
</event>
<event>
 6    1  0.6981059E-006  0.1111053E+03  0.7561462E-02  0.1258537E+00
          2   -1    0    0  501    0  0.00000000000E+00  0.00000000000E+00  0.37121684967E+02  0.37121684967E+02  0.00000000000E+00 0. -1.
         -2   -1    0    0    0  501 -0.00000000000E+00 -0.00000000000E+00 -0.38427763292E+03  0.38427763292E+03  0.00000000000E+00 0.  1.
          5    1    1    2  502    0  0.57437592679E+02 -0.12091854035E+02 -0.96449785567E+02  0.11298373123E+03  0.41800000000E+01 0. -1.
         -5    1    1    2    0  502 -0.66387888813E+02 -0.11484796224E+02 -0.15219037047E+03  0.16648913956E+03  0.41800000000E+01 0. -1.
        -11    1    1    2    0    0  0.50933811376E+02  0.12985852143E+02 -0.77888303059E+02  0.93965276835E+02  0.00000000000E+00 0.  1.
         11    1    1    2    0    0 -0.41983515242E+02  0.10590798115E+02 -0.20627488852E+02  0.47961170264E+02  0.00000000000E+00 0. -1.
</event>
<event>
 6    1  0.6981059E-006  0.8658435E+02  0.7561462E-02  0.1311341E+00
         -2   -1    0    0    0  501 -0.00000000000E+00  0.00000000000E+00  0.26105030076E+03  0.26105030076E+03  0.00000000000E+00 0. -1.
          2   -1    0    0  501    0  0.00000000000E+00 -0.00000000000E+00 -0.61149156367E+02  0.61149156367E+02  0.00000000000E+00 0.  1.
          5    1    1    2  502    0  0.53984646256E+02  0.40275751836E+01  0.12348274455E+02  0.55682274337E+02  0.41800000000E+01 0. -1.
         -5    1    1    2    0  502 -0.16642933829E+02 -0.32387665111E+02  0.15078972210E+03  0.15518041368E+03  0.41800000000E+01 0. -1.
        -11    1    1    2    0    0 -0.49166310244E+02  0.41646369260E+02 -0.63037453040E+01  0.64741666185E+02  0.00000000000E+00 0.  1.
         11    1    1    2    0    0  0.11824597816E+02 -0.13286279333E+02  0.43066893142E+02  0.46595102928E+02  0.00000000000E+00 0. -1.
</event>
<event>
 6    1  0.6981059E-006  0.1284216E+03  0.7561462E-02  0.1229817E+00
          2   -1    0    0  501    0  0.00000000000E+00  0.00000000000E+00  0.45154872062E+03  0.45154872062E+03  0.00000000000E+00 0. -1.
         -2   -1    0    0    0  501 -0.00000000000E+00 -0.00000000000E+00 -0.47609040083E+02  0.47609040083E+02  0.00000000000E+00 0.  1.
          5    1    1    2  502    0 -0.73287602101E+01  0.84309703560E+02  0.97632876906E+02  0.12927292019E+03  0.41800000000E+01 0.  1.
         -5    1    1    2    0  502 -0.68830838990E+02 -0.22763596992E+02  0.11804867333E+03  0.13859591415E+03  0.41800000000E+01 0.  1.
        -11    1    1    2    0    0  0.41062014502E+02 -0.21871430755E+02  0.16841579606E+03  0.17472357849E+03  0.00000000000E+00 0. -1.
         11    1    1    2    0    0  0.35097584698E+02 -0.39674675812E+02  0.19842334245E+02  0.56565347879E+02  0.00000000000E+00 0.  1.
</event>
<event>
 6    1  0.6981059E-006  0.1731554E+03  0.7561462E-02  0.1174597E+00
         -2   -1    0    0    0  501 -0.00000000000E+00  0.00000000000E+00  0.10644532918E+03  0.10644532918E+03  0.00000000000E+00 0.  1.
          2   -1    0    0  501    0  0.00000000000E+00 -0.00000000000E+00 -0.38596889039E+03  0.38596889039E+03  0.00000000000E+00 0. -1.
          5    1    1    2  502    0 -0.63638723557E+01  0.12845458965E+02  0.18492128107E+02  0.23768380031E+02  0.41800000000E+01 0.  1.
         -5    1    1    2    0  502  0.52431176681E+02 -0.15653719989E+03 -0.66657143419E+02  0.17808304357E+03  0.41800000000E+01 0.  1.
        -11    1    1    2    0    0 -0.55950031656E+02  0.60273758063E+02 -0.16179784083E+03  0.18149896212E+03  0.00000000000E+00 0.  1.
         11    1    1    2    0    0  0.98827273306E+01  0.83417982867E+02 -0.69560705071E+02  0.10906383385E+03  0.00000000000E+00 0. -1.
</event>
<event>
 6    1  0.6981059E-006  0.9845392E+02  0.7561462E-02  0.1283581E+00
         -1   -1    0    0    0  501 -0.00000000000E+00  0.00000000000E+00  0.57797969486E+02  0.57797969486E+02  0.00000000000E+00 0.  1.
          1   -1    0    0  501    0  0.00000000000E+00 -0.00000000000E+00 -0.34776769332E+03  0.34776769332E+03  0.00000000000E+00 0. -1.
          5    1    1    2  502    0  0.35871542589E+02 -0.44848195393E+02 -0.99034220061E+02  0.11455731029E+03  0.41800000000E+01 0. -1.
         -5    1    1    2    0  502 -0.36220202100E+02 -0.14019223806E+02  0.26699873460E+02  0.47315930923E+02  0.41800000000E+01 0.  1.
        -11    1    1    2    0    0  0.35954286587E+02  0.58910051247E+01 -0.13168981189E+03  0.13663682235E+03  0.00000000000E+00 0.  1.
         11    1    1    2    0    0 -0.35605627076E+02  0.52976414074E+02 -0.85945565338E+02  0.10705559924E+03  0.00000000000E+00 0. -1.
</event>
<event>
 6    1  0.6981059E-006  0.1060671E+03  0.7561462E-02  0.1268031E+00
         -1   -1    0    0    0  501 -0.00000000000E+00  0.00000000000E+00  0.60890659032E+02  0.60890659032E+02  0.00000000000E+00 0.  1.
          1   -1    0    0  501    0  0.00000000000E+00 -0.00000000000E+00 -0.23496048105E+03  0.23496048105E+03  0.00000000000E+00 0. -1.
          5    1    1    2  502    0 -0.46065576517E+02 -0.11197650114E+02 -0.78158233119E+02  0.91507412335E+02  0.41800000000E+01 0. -1.
         -5    1    1    2    0  502  0.41756884903E+02 -0.60522718110E+02 -0.23305351040E+01  0.73685416726E+02  0.41800000000E+01 0. -1.
        -11    1    1    2    0    0  0.30067721885E+02  0.39588921246E+02 -0.45993780356E+02  0.67725758882E+02  0.00000000000E+00 0. -1.
         11    1    1    2    0    0 -0.25759030271E+02  0.32131446978E+02 -0.47587273441E+02  0.62932552140E+02  0.00000000000E+00 0.  1.
</event>
<event>
 6    1  0.6981059E-006  0.1226458E+03  0.7561462E-02  0.1238795E+00
          2   -1    0    0  501    0  0.00000000000E+00  0.00000000000E+00  0.21030208196E+03  0.21030208196E+03  0.00000000000E+00 0. -1.
         -2   -1    0    0    0  501 -0.00000000000E+00 -0.00000000000E+00 -0.90479558275E+02  0.90479558275E+02  0.00000000000E+00 0.  1.
          5    1    1    2  502    0 -0.70925000553E+01 -0.83953583447E+02  0.34758188931E+02  0.91236570674E+02  0.41800000000E+01 0.  1.
         -5    1    1    2    0  502  0.43554098056E+02  0.23151824189E+02 -0.19818902041E+02  0.53321925123E+02  0.41800000000E+01 0.  1.
        -11    1    1    2    0    0  0.28457153844E+02  0.19200479579E+02  0.53497735658E+02  0.63564736619E+02  0.00000000000E+00 0. -1.
         11    1    1    2    0    0 -0.64918751844E+02  0.41601279678E+02  0.51385501133E+02  0.92658407814E+02  0.00000000000E+00 0.  1.
</event>
<event>
 6    1  0.6981059E-006  0.7327171E+02  0.7561462E-02  0.1349308E+00
         -2   -1    0    0    0  501 -0.00000000000E+00  0.00000000000E+00  0.20569245163E+02  0.20569245163E+02  0.00000000000E+00 0. -1.
          2   -1    0    0  501    0  0.00000000000E+00 -0.00000000000E+00 -0.72206552843E+03  0.72206552843E+03  0.00000000000E+00 0.  1.
          5    1    1    2  502    0  0.18180671702E+02 -0.23582495106E+02 -0.23915658598E+03  0.24103944888E+03  0.41800000000E+01 0. -1.
         -5    1    1    2    0  502 -0.22581577137E+02  0.75888876603E+01  0.52352622891E+01  0.24746701056E+02  0.41800000000E+01 0. -1.
        -11    1    1    2    0    0 -0.43159153638E+02  0.10446261121E+02 -0.18568074480E+03  0.19091667267E+03  0.00000000000E+00 0.  1.
         11    1    1    2    0    0  0.47560059074E+02  0.55473463248E+01 -0.28189421478E+03  0.28593195099E+03  0.00000000000E+00 0. -1.
</event>
<event>
 6    1  0.6981059E-006  0.1500043E+03  0.7561462E-02  0.1200468E+00
          4   -1    0    0  501    0  0.00000000000E+00  0.00000000000E+00  0.89002779538E+02  0.89002779538E+02  0.00000000000E+00 0. -1.
         -4   -1    0    0    0  501 -0.00000000000E+00 -0.00000000000E+00 -0.28503390319E+03  0.28503390319E+03  0.00000000000E+00 0.  1.
          5    1    1    2  502    0  0.12969394986E+03  0.35424534488E+02 -0.50094795231E+02  0.14353528899E+03  0.41800000000E+01 0. -1.
         -5    1    1    2    0  502 -0.17656095399E+02 -0.24893458681E+01 -0.53400751901E+02  0.56453939200E+02  0.41800000000E+01 0. -1.
        -11    1    1    2    0    0 -0.91685521799E+02 -0.62737807392E+02 -0.73913708008E+02  0.13343726472E+03  0.00000000000E+00 0. -1.
         11    1    1    2    0    0 -0.20352332666E+02  0.29802618772E+02 -0.18621868512E+02  0.40610189824E+02  0.00000000000E+00 0.  1.
</event>
<event>
 6    1  0.6981059E-006  0.9404864E+02  0.7561462E-02  0.1293333E+00
          4   -1    0    0  501    0  0.00000000000E+00  0.00000000000E+00  0.46178066555E+03  0.46178066555E+03  0.00000000000E+00 0. -1.
         -4   -1    0    0    0  501 -0.00000000000E+00 -0.00000000000E+00 -0.33127088912E+02  0.33127088912E+02  0.00000000000E+00 0.  1.
          5    1    1    2  502    0 -0.26873790807E+02 -0.62606688671E+02  0.39145695017E+02  0.78687076048E+02  0.41800000000E+01 0. -1.
         -5    1    1    2    0  502  0.35918075497E+02  0.11798264486E+02  0.14453658444E+03  0.14945769914E+03  0.41800000000E+01 0. -1.
        -11    1    1    2    0    0 -0.35979379646E+02  0.21139018305E+02  0.20831670061E+03  0.21245522259E+03  0.00000000000E+00 0.  1.
         11    1    1    2    0    0  0.26935094956E+02  0.29669405880E+02  0.36654596584E+02  0.54307756686E+02  0.00000000000E+00 0. -1.
</event>
<event>
 6    1  0.6981059E-006  0.1051583E+03  0.7561462E-02  0.1269808E+00
          2   -1    0    0  501    0  0.00000000000E+00  0.00000000000E+00  0.37374320686E+03  0.37374320686E+03  0.00000000000E+00 0. -1.
         -2   -1    0    0    0  501 -0.00000000000E+00 -0.00000000000E+00 -0.33633072050E+02  0.33633072050E+02  0.00000000000E+00 0.  1.
          5    1    1    2  502    0 -0.63195563218E+02 -0.25033153885E+02  0.65564639767E+02  0.94533234324E+02  0.41800000000E+01 0.  1.
         -5    1    1    2    0  502  0.48220618126E+02  0.20478690801E+02  0.10660408028E+03  0.11885498358E+03  0.41800000000E+01 0.  1.
        -11    1    1    2    0    0  0.37156019176E+02 -0.30571525089E+02  0.12635564572E+03  0.13520701577E+03  0.00000000000E+00 0. -1.
         11    1    1    2    0    0 -0.22181074083E+02  0.35125988173E+02  0.41585769039E+02  0.58781045237E+02  0.00000000000E+00 0.  1.
</event>
<event>
 6    1  0.6981059E-006  0.9877189E+02  0.7561462E-02  0.1282900E+00
         -2   -1    0    0    0  501 -0.00000000000E+00  0.00000000000E+00  0.10334131662E+03  0.10334131662E+03  0.00000000000E+00 0.  1.
          2   -1    0    0  501    0  0.00000000000E+00 -0.00000000000E+00 -0.13370692605E+03  0.13370692605E+03  0.00000000000E+00 0. -1.
          5    1    1    2  502    0  0.26613194421E+02  0.75130052153E+02  0.16159604916E+02  0.81433359779E+02  0.41800000000E+01 0. -1.
         -5    1    1    2    0  502 -0.27036986897E+02 -0.38454507429E+02 -0.13017205828E+02  0.48955774426E+02  0.41800000000E+01 0. -1.
        -11    1    1    2    0    0 -0.29548050639E+02 -0.23691169758E+02  0.20856997158E+02  0.43236248120E+02  0.00000000000E+00 0.  1.
         11    1    1    2    0    0  0.29971843115E+02 -0.12984374966E+02 -0.54365005677E+02  0.63422860352E+02  0.00000000000E+00 0. -1.
</event>
<event>
 6    1  0.6981059E-006  0.1066453E+03  0.7561462E-02  0.1266911E+00
         -1   -1    0    0    0  501 -0.00000000000E+00  0.00000000000E+00  0.64506050606E+02  0.64506050606E+02  0.00000000000E+00 0.  1.
          1   -1    0    0  501    0  0.00000000000E+00 -0.00000000000E+00 -0.36240966084E+03  0.36240966084E+03  0.00000000000E+00 0. -1.
          5    1    1    2  502    0 -0.19608303158E+02  0.52198429454E+02  0.21188476737E+02  0.59796200018E+02  0.41800000000E+01 0. -1.
         -5    1    1    2    0  502 -0.17309885630E+02  0.32855426406E+02 -0.11754678781E+03  0.12334435905E+03  0.41800000000E+01 0. -1.
        -11    1    1    2    0    0  0.50739327116E+02 -0.91597238584E+02 -0.11354904272E+03  0.15446008719E+03  0.00000000000E+00 0.  1.
         11    1    1    2    0    0 -0.13821138328E+02  0.65433827241E+01 -0.87996256435E+02  0.89315065184E+02  0.00000000000E+00 0. -1.
</event>
<event>
 6    1  0.6981059E-006  0.1411734E+03  0.7561462E-02  0.1211759E+00
         -2   -1    0    0    0  501 -0.00000000000E+00  0.00000000000E+00  0.52534427007E+02  0.52534427007E+02  0.00000000000E+00 0.  1.
          2   -1    0    0  501    0  0.00000000000E+00 -0.00000000000E+00 -0.58373362745E+03  0.58373362745E+03  0.00000000000E+00 0. -1.
          5    1    1    2  502    0 -0.86884299079E+02  0.32200845606E+02 -0.24489060163E+03  0.26186762887E+03  0.41800000000E+01 0.  1.
         -5    1    1    2    0  502 -0.44748415782E+02  0.57571668696E+01  0.58173067637E-01  0.45310500654E+02  0.41800000000E+01 0.  1.
        -11    1    1    2    0    0  0.11711742078E+03 -0.16351824500E+02 -0.15387449590E+03  0.19406502236E+03  0.00000000000E+00 0.  1.
         11    1    1    2    0    0  0.14515294085E+02 -0.21606187976E+02 -0.13249227597E+03  0.13502490257E+03  0.00000000000E+00 0. -1.
</event>
<event>
 6    1  0.6981060E-006  0.1216118E+03  0.7561462E-02  0.1240461E+00
         -1   -1    0    0    0  501 -0.00000000000E+00  0.00000000000E+00  0.25336460557E+02  0.25336460557E+02  0.00000000000E+00 0.  1.
          1   -1    0    0  501    0  0.00000000000E+00 -0.00000000000E+00 -0.91658325801E+03  0.91658325801E+03  0.00000000000E+00 0. -1.
          5    1    1    2  502    0  0.15621995653E+02  0.14788163625E+02  0.90509408640E+00  0.21932353428E+02  0.41800000000E+01 0. -1.
         -5    1    1    2    0  502  0.46932672083E+02  0.67801326546E+02 -0.40991285043E+03  0.41814556429E+03  0.41800000000E+01 0. -1.
        -11    1    1    2    0    0 -0.85897559253E+02 -0.52535429821E+02 -0.36004681891E+03  0.37386103552E+03  0.00000000000E+00 0.  1.
         11    1    1    2    0    0  0.23342891516E+02 -0.30054060350E+02 -0.12219222221E+03  0.12798076534E+03  0.00000000000E+00 0. -1.
</event>
<event>
 6    1  0.6981059E-006  0.1645211E+03  0.7561462E-02  0.1183685E+00
         -1   -1    0    0    0  501 -0.00000000000E+00  0.00000000000E+00  0.35955035054E+03  0.35955035054E+03  0.00000000000E+00 0.  1.
          1   -1    0    0  501    0  0.00000000000E+00 -0.00000000000E+00 -0.10496053094E+03  0.10496053094E+03  0.00000000000E+00 0. -1.
          5    1    1    2  502    0 -0.39534446287E+02 -0.37702742536E+02 -0.12191831063E+02  0.56130048838E+02  0.41800000000E+01 0. -1.
         -5    1    1    2    0  502 -0.14063282474E+02 -0.11277755748E+03  0.15384346358E+03  0.19131606590E+03  0.41800000000E+01 0. -1.
        -11    1    1    2    0    0  0.25562947992E+02  0.49319356189E+02  0.95743895261E+02  0.11069217084E+03  0.00000000000E+00 0.  1.
         11    1    1    2    0    0  0.28034780769E+02  0.10116094383E+03  0.17194291817E+02  0.10637259591E+03  0.00000000000E+00 0. -1.
</event>
<event>
 6    1  0.6981059E-006  0.1131555E+03  0.7561462E-02  0.1254835E+00
          2   -1    0    0  501    0  0.00000000000E+00  0.00000000000E+00  0.67989957366E+03  0.67989957366E+03  0.00000000000E+00 0. -1.
         -2   -1    0    0    0  501 -0.00000000000E+00 -0.00000000000E+00 -0.29095789678E+02  0.29095789678E+02  0.00000000000E+00 0.  1.
          5    1    1    2  502    0  0.76391872864E+01 -0.84424597043E+02  0.69843141127E+02  0.10991545174E+03  0.41800000000E+01 0. -1.
         -5    1    1    2    0  502 -0.52123441496E+01  0.36595177683E+02  0.97987521606E+02  0.10481127016E+03  0.41800000000E+01 0. -1.
        -11    1    1    2    0    0  0.29237806106E+02  0.62755494864E+02  0.29030225281E+03  0.29844346102E+03  0.00000000000E+00 0. -1.
         11    1    1    2    0    0 -0.31664649243E+02 -0.14926075504E+02  0.19267086845E+03  0.19582518043E+03  0.00000000000E+00 0.  1.
</event>
<event>
 6    1  0.6981059E-006  0.1590456E+03  0.7561462E-02  0.1189778E+00
          3   -1    0    0  501    0  0.00000000000E+00  0.00000000000E+00  0.37892390222E+02  0.37892390222E+02  0.00000000000E+00 0. -1.
         -3   -1    0    0    0  501 -0.00000000000E+00 -0.00000000000E+00 -0.91294705032E+03  0.91294705032E+03  0.00000000000E+00 0.  1.
          5    1    1    2  502    0 -0.51803274648E+02  0.11282452278E+02 -0.36449101446E+03  0.36835043779E+03  0.41800000000E+01 0.  1.
         -5    1    1    2    0  502 -0.96849943689E+02 -0.27232457603E+02 -0.13964064650E+03  0.17215835993E+03  0.41800000000E+01 0.  1.
        -11    1    1    2    0    0  0.27319987948E+02  0.31719254729E+02 -0.17005600699E+03  0.17513291631E+03  0.00000000000E+00 0.  1.
         11    1    1    2    0    0  0.12133323039E+03 -0.15769249403E+02 -0.20086699214E+03  0.23519772651E+03  0.00000000000E+00 0. -1.
</event>
<event>
 6    1  0.6981059E-006  0.6415362E+02  0.7561462E-02  0.1381184E+00
          2   -1    0    0  501    0  0.00000000000E+00  0.00000000000E+00  0.31902468804E+03  0.31902468804E+03  0.00000000000E+00 0. -1.
         -2   -1    0    0    0  501 -0.00000000000E+00 -0.00000000000E+00 -0.44347236473E+02  0.44347236473E+02  0.00000000000E+00 0.  1.
          5    1    1    2  502    0 -0.14962974212E+02 -0.41556992457E+01 -0.22088482614E+02  0.27322772511E+02  0.41800000000E+01 0.  1.
         -5    1    1    2    0  502  0.21802402641E+02  0.16915063860E+02  0.14854205081E+03  0.15114124985E+03  0.41800000000E+01 0.  1.
        -11    1    1    2    0    0 -0.29413823245E+02  0.26133433113E+02  0.11520819949E+02  0.40998275774E+02  0.00000000000E+00 0.  1.
         11    1    1    2    0    0  0.22574394815E+02 -0.38892797727E+02  0.13670306342E+03  0.14390962638E+03  0.00000000000E+00 0. -1.
</event>
<event>
 6    1  0.6981059E-006  0.8382840E+02  0.7561462E-02  0.1318525E+00
         -4   -1    0    0    0  501 -0.00000000000E+00  0.00000000000E+00  0.43586386481E+02  0.43586386481E+02  0.00000000000E+00 0.  1.
          4   -1    0    0  501    0  0.00000000000E+00 -0.00000000000E+00 -0.38407211591E+03  0.38407211591E+03  0.00000000000E+00 0. -1.
          5    1    1    2  502    0 -0.18491977177E+02 -0.46566349748E+02 -0.17659181726E+03  0.18360969602E+03  0.41800000000E+01 0. -1.
         -5    1    1    2    0  502 -0.16637246602E+02  0.58268659441E+01  0.23141190846E+02  0.29389410593E+02  0.41800000000E+01 0.  1.
        -11    1    1    2    0    0 -0.22361960395E+02  0.34934523446E+02 -0.44380721369E+02  0.60746412490E+02  0.00000000000E+00 0.  1.
         11    1    1    2    0    0  0.57491184175E+02  0.58049603576E+01 -0.14265438164E+03  0.15391298329E+03  0.00000000000E+00 0. -1.
</event>
<event>
 6    1  0.8185744E-006  0.2124497E+03  0.7561462E-02  0.1139641E+00
         -1   -1    0    0    0  501 -0.00000000000E+00  0.00000000000E+00  0.24480857973E+03  0.24480857973E+03  0.00000000000E+00 0.  1.
          1   -1    0    0  501    0  0.00000000000E+00 -0.00000000000E+00 -0.30469916556E+03  0.30469916556E+03  0.00000000000E+00 0. -1.
          5    1    1    2  502    0  0.30176304167E+02  0.12118956624E+03  0.12501076170E+03  0.17675599916E+03  0.41800000000E+01 0.  1.
         -5    1    1    2    0  502  0.23761713081E+02  0.83735160873E+02 -0.22207636100E+02  0.89926901849E+02  0.41800000000E+01 0.  1.
        -11    1    1    2    0    0 -0.34455808945E+02 -0.16251129720E+03 -0.16749314277E+03  0.23590480572E+03  0.00000000000E+00 0. -1.
         11    1    1    2    0    0 -0.19482208303E+02 -0.42413429917E+02  0.47994313467E+01  0.46920038565E+02  0.00000000000E+00 0.  1.
</event>
<event>
 6    1  0.6981059E-006  0.1158898E+03  0.7561462E-02  0.1250036E+00
         -1   -1    0    0    0  501 -0.00000000000E+00  0.00000000000E+00  0.40766627587E+03  0.40766627587E+03  0.00000000000E+00 0.  1.
          1   -1    0    0  501    0  0.00000000000E+00 -0.00000000000E+00 -0.63975820281E+02  0.63975820281E+02  0.00000000000E+00 0. -1.
          5    1    1    2  502    0  0.10833334507E+02  0.66823135469E+02  0.23678643412E+03  0.24630870945E+03  0.41800000000E+01 0.  1.
         -5    1    1    2    0  502  0.52351935535E+02  0.19975149509E+02  0.21630889160E+02  0.60208799341E+02  0.41800000000E+01 0.  1.
        -11    1    1    2    0    0 -0.18752920189E+02 -0.33350573335E+02  0.87589211770E+02  0.95581393461E+02  0.00000000000E+00 0.  1.
         11    1    1    2    0    0 -0.44432349853E+02 -0.53447711644E+02 -0.23160794573E+01  0.69543193897E+02  0.00000000000E+00 0. -1.
</event>
<event>
 6    1  0.6981059E-006  0.9968572E+02  0.7561462E-02  0.1280958E+00
         -2   -1    0    0    0  501 -0.00000000000E+00  0.00000000000E+00  0.16651315334E+03  0.16651315334E+03  0.00000000000E+00 0.  1.
          2   -1    0    0  501    0  0.00000000000E+00 -0.00000000000E+00 -0.91871743686E+02  0.91871743686E+02  0.00000000000E+00 0. -1.
          5    1    1    2  502    0  0.25745416018E+02  0.41431522596E+02  0.28847822022E+02  0.56824877879E+02  0.41800000000E+01 0. -1.
         -5    1    1    2    0  502 -0.58400722492E+02 -0.55635520003E+02  0.62013063165E+02  0.10182852192E+03  0.41800000000E+01 0. -1.
        -11    1    1    2    0    0  0.37999500576E+02 -0.14333001649E+02 -0.43768399170E+02  0.59708205016E+02  0.00000000000E+00 0. -1.
         11    1    1    2    0    0 -0.53441941024E+01  0.28536999056E+02  0.27548923635E+02  0.40023292208E+02  0.00000000000E+00 0.  1.
</event>
<event>
 6    1  0.6981059E-006  0.2041337E+03  0.7561462E-02  0.1146298E+00
          2   -1    0    0  501    0  0.00000000000E+00  0.00000000000E+00  0.10024808023E+03  0.10024808023E+03  0.00000000000E+00 0. -1.
         -2   -1    0    0    0  501 -0.00000000000E+00 -0.00000000000E+00 -0.68555232495E+03  0.68555232495E+03  0.00000000000E+00 0.  1.
          5    1    1    2  502    0  0.58947712749E+02  0.14229101229E+02 -0.10944091434E+03  0.12518820349E+03  0.41800000000E+01 0.  1.
         -5    1    1    2    0  502  0.76562590085E+02 -0.14130833329E+03 -0.41656583834E+03  0.44651365637E+03  0.41800000000E+01 0.  1.
        -11    1    1    2    0    0 -0.11984745646E+02  0.19595841654E+02  0.21540094518E+02  0.31489788983E+02  0.00000000000E+00 0. -1.
         11    1    1    2    0    0 -0.12352555719E+03  0.10748339040E+03 -0.80837586559E+02  0.18260875634E+03  0.00000000000E+00 0.  1.
</event>
<event>
 6    1  0.6981059E-006  0.1378778E+03  0.7561462E-02  0.1216213E+00
         -1   -1    0    0    0  501 -0.00000000000E+00  0.00000000000E+00  0.60912106103E+02  0.60912106103E+02  0.00000000000E+00 0.  1.
          1   -1    0    0  501    0  0.00000000000E+00 -0.00000000000E+00 -0.43235947323E+03  0.43235947323E+03  0.00000000000E+00 0. -1.
          5    1    1    2  502    0  0.17142482301E+02 -0.11591515402E+03 -0.14381894844E+03  0.18555740342E+03  0.41800000000E+01 0.  1.
         -5    1    1    2    0  502 -0.17822374752E+02  0.42448309635E+01  0.16482780904E+02  0.24996201673E+02  0.41800000000E+01 0.  1.
        -11    1    1    2    0    0  0.34936213756E+02  0.95776940109E+02 -0.20120637977E+03  0.22556100849E+03  0.00000000000E+00 0. -1.
         11    1    1    2    0    0 -0.34256321304E+02  0.15893382952E+02 -0.42904819813E+02  0.57156965753E+02  0.00000000000E+00 0.  1.
</event>
<event>
 6    1  0.6981059E-006  0.9507875E+02  0.7561462E-02  0.1290999E+00
          1   -1    0    0  501    0  0.00000000000E+00  0.00000000000E+00  0.40533299415E+03  0.40533299415E+03  0.00000000000E+00 0. -1.
         -1   -1    0    0    0  501 -0.00000000000E+00 -0.00000000000E+00 -0.32256376842E+02  0.32256376842E+02  0.00000000000E+00 0.  1.
          5    1    1    2  502    0  0.42854405866E+02 -0.17387245682E+02  0.10748730081E+03  0.11708889209E+03  0.41800000000E+01 0. -1.
         -5    1    1    2    0  502 -0.59744330058E+02  0.39591453383E+02  0.58434828364E+02  0.92568729715E+02  0.41800000000E+01 0. -1.
        -11    1    1    2    0    0  0.19818399932E+02  0.20854686334E+02  0.16539192000E+03  0.16787547206E+03  0.00000000000E+00 0. -1.
         11    1    1    2    0    0 -0.29284757403E+01 -0.43058894035E+02  0.41762568130E+02  0.60056277128E+02  0.00000000000E+00 0.  1.
</event>
<event>
 6    1  0.6981059E-006  0.1472903E+03  0.7561462E-02  0.1203843E+00
          2   -1    0    0  501    0  0.00000000000E+00  0.00000000000E+00  0.58513782312E+02  0.58513782312E+02  0.00000000000E+00 0. -1.
         -2   -1    0    0    0  501 -0.00000000000E+00 -0.00000000000E+00 -0.48857894523E+03  0.48857894523E+03  0.00000000000E+00 0.  1.
          5    1    1    2  502    0  0.79684537037E+02  0.34769440213E+02 -0.25851219437E+03  0.27277200452E+03  0.41800000000E+01 0.  1.
         -5    1    1    2    0  502  0.24702615393E+02 -0.63594067068E+02 -0.89951735142E+02  0.11297438483E+03  0.41800000000E+01 0.  1.
        -11    1    1    2    0    0 -0.20480498635E+02  0.48812109338E+02 -0.31337807246E+02  0.61515290826E+02  0.00000000000E+00 0. -1.
         11    1    1    2    0    0 -0.83906653794E+02 -0.19987482484E+02 -0.50263426162E+02  0.99831047358E+02  0.00000000000E+00 0.  1.
</event>
<event>
 6    1  0.6981059E-006  0.1127863E+03  0.7561462E-02  0.1255495E+00
         -2   -1    0    0    0  501 -0.00000000000E+00  0.00000000000E+00  0.13707622032E+03  0.13707622032E+03  0.00000000000E+00 0.  1.
          2   -1    0    0  501    0  0.00000000000E+00 -0.00000000000E+00 -0.97933031096E+02  0.97933031096E+02  0.00000000000E+00 0. -1.
          5    1    1    2  502    0  0.45213759709E+02 -0.19821127956E+02  0.91683179455E+01  0.50385430775E+02  0.41800000000E+01 0. -1.
         -5    1    1    2    0  502 -0.61698863518E+02  0.50959054868E+02  0.25803432365E+02  0.84183517117E+02  0.41800000000E+01 0. -1.
        -11    1    1    2    0    0  0.83160550521E+01  0.31576238808E+02  0.15573641679E+02  0.36176704438E+02  0.00000000000E+00 0.  1.
         11    1    1    2    0    0  0.81690487569E+01 -0.62714165719E+02 -0.11402202766E+02  0.64263599085E+02  0.00000000000E+00 0. -1.
</event>
<event>
 6    1  0.6981059E-006  0.8968219E+02  0.7561462E-02  0.1303623E+00
         -1   -1    0    0    0  501 -0.00000000000E+00  0.00000000000E+00  0.52184329663E+03  0.52184329663E+03  0.00000000000E+00 0.  1.
          1   -1    0    0  501    0  0.00000000000E+00 -0.00000000000E+00 -0.34172565369E+02  0.34172565369E+02  0.00000000000E+00 0. -1.
          5    1    1    2  502    0 -0.63891809707E+01 -0.25705084423E+02  0.15460602993E+02  0.30952797024E+02  0.41800000000E+01 0.  1.
         -5    1    1    2    0  502 -0.83725192125E+01  0.63062110337E+02  0.39241197576E+03  0.39755698957E+03  0.41800000000E+01 0.  1.
        -11    1    1    2    0    0 -0.14079059380E+02 -0.53790573228E+02  0.19958165962E+02  0.59076002487E+02  0.00000000000E+00 0. -1.
         11    1    1    2    0    0  0.28840759563E+02  0.16433547315E+02  0.59839986542E+02  0.68430072913E+02  0.00000000000E+00 0.  1.
</event>
<event>
 6    1  0.6981059E-006  0.1271141E+03  0.7561462E-02  0.1231802E+00
          1   -1    0    0  501    0  0.00000000000E+00  0.00000000000E+00  0.42770146771E+03  0.42770146771E+03  0.00000000000E+00 0. -1.
         -1   -1    0    0    0  501 -0.00000000000E+00 -0.00000000000E+00 -0.49749071019E+02  0.49749071019E+02  0.00000000000E+00 0.  1.
          5    1    1    2  502    0  0.98362051339E+02  0.20888368929E+02  0.54559046393E+02  0.11447960099E+03  0.41800000000E+01 0.  1.
         -5    1    1    2    0  502 -0.38533081639E+02  0.10930086826E+02  0.37075771073E+02  0.54738929285E+02  0.41800000000E+01 0.  1.
        -11    1    1    2    0    0 -0.35687141457E+01  0.29721015511E+02  0.60218440353E+02  0.67248308843E+02  0.00000000000E+00 0.  1.
         11    1    1    2    0    0 -0.56260255555E+02 -0.61539471266E+02  0.22609913887E+03  0.24098369960E+03  0.00000000000E+00 0. -1.
</event>
<event>
 6    1  0.6981059E-006  0.9984245E+02  0.7561462E-02  0.1280628E+00
          4   -1    0    0  501    0  0.00000000000E+00  0.00000000000E+00  0.11138095805E+03  0.11138095805E+03  0.00000000000E+00 0.  1.
         -4   -1    0    0    0  501 -0.00000000000E+00 -0.00000000000E+00 -0.11538645091E+03  0.11538645091E+03  0.00000000000E+00 0. -1.
          5    1    1    2  502    0  0.61725589429E+02  0.25585497231E+02 -0.31580237443E+02  0.74023306167E+02  0.41800000000E+01 0. -1.
         -5    1    1    2    0  502 -0.33317365636E+02 -0.36057942847E+02  0.24200048435E+02  0.54893868870E+02  0.41800000000E+01 0. -1.
        -11    1    1    2    0    0 -0.11385712670E+02  0.44222447855E+02  0.27215933814E+02  0.53159819418E+02  0.00000000000E+00 0.  1.
         11    1    1    2    0    0 -0.17022511122E+02 -0.33750002239E+02 -0.23841237664E+02  0.44690414514E+02  0.00000000000E+00 0. -1.
</event>
<event>
 6    1  0.6981059E-006  0.1081913E+03  0.7561462E-02  0.1263956E+00
          3   -1    0    0  501    0  0.00000000000E+00  0.00000000000E+00  0.41380718528E+03  0.41380718528E+03  0.00000000000E+00 0. -1.
         -3   -1    0    0    0  501 -0.00000000000E+00 -0.00000000000E+00 -0.38105457759E+02  0.38105457759E+02  0.00000000000E+00 0.  1.
          5    1    1    2  502    0 -0.13729880610E+02  0.24725261233E+02  0.98556114690E+02  0.10261884967E+03  0.41800000000E+01 0. -1.
         -5    1    1    2    0  502  0.61148454748E+02 -0.43751984880E+02  0.41068670974E+02  0.85775741527E+02  0.41800000000E+01 0.  1.
        -11    1    1    2    0    0 -0.51102364192E+02  0.55723316407E+02  0.19005167393E+03  0.20453894099E+03  0.00000000000E+00 0. -1.
         11    1    1    2    0    0  0.36837900549E+01 -0.36696592759E+02  0.46025267927E+02  0.58979110853E+02  0.00000000000E+00 0.  1.
</event>
<event>
 6    1  0.6981059E-006  0.9768467E+02  0.7561462E-02  0.1285241E+00
         -2   -1    0    0    0  501 -0.00000000000E+00  0.00000000000E+00  0.10290467814E+03  0.10290467814E+03  0.00000000000E+00 0.  1.
          2   -1    0    0  501    0  0.00000000000E+00 -0.00000000000E+00 -0.12794715167E+03  0.12794715167E+03  0.00000000000E+00 0. -1.
          5    1    1    2  502    0  0.39708557661E+02  0.30175978123E+02  0.45602353348E+02  0.67708243502E+02  0.41800000000E+01 0. -1.
         -5    1    1    2    0  502 -0.44300588243E+02 -0.28676777215E+02 -0.26039059117E+02  0.58994954613E+02  0.41800000000E+01 0. -1.
        -11    1    1    2    0    0  0.34229926499E+02  0.32554615656E+02 -0.32724556597E+02  0.57466402994E+02  0.00000000000E+00 0.  1.
         11    1    1    2    0    0 -0.29637895917E+02 -0.34053816564E+02 -0.11881211165E+02  0.46682228692E+02  0.00000000000E+00 0. -1.
</event>
<event>
 6    1  0.6981059E-006  0.1087983E+03  0.7561462E-02  0.1262812E+00
          2   -1    0    0  501    0  0.00000000000E+00  0.00000000000E+00  0.33607766702E+03  0.33607766702E+03  0.00000000000E+00 0. -1.
         -2   -1    0    0    0  501 -0.00000000000E+00 -0.00000000000E+00 -0.45218344004E+02  0.45218344004E+02  0.00000000000E+00 0.  1.
          5    1    1    2  502    0  0.53475741863E+02 -0.15752997516E+02  0.42828155684E+02  0.70423967638E+02  0.41800000000E+01 0.  1.
         -5    1    1    2    0  502 -0.72716800283E+02 -0.16917579493E+02  0.52905824191E+02  0.91599324084E+02  0.41800000000E+01 0.  1.
        -11    1    1    2    0    0 -0.22665439085E+02  0.38430260780E+02  0.15378325261E+03  0.16012462601E+03  0.00000000000E+00 0. -1.
         11    1    1    2    0    0  0.41906497505E+02 -0.57596837713E+01  0.41342090531E+02  0.59148093289E+02  0.00000000000E+00 0.  1.
</event>
<event>
 6    1  0.9906267E-006  0.2075424E+03  0.7561462E-02  0.1143527E+00
         -1   -1    0    0    0  501 -0.00000000000E+00  0.00000000000E+00  0.18992162243E+03  0.18992162243E+03  0.00000000000E+00 0.  1.
          1   -1    0    0  501    0  0.00000000000E+00 -0.00000000000E+00 -0.25814184890E+03  0.25814184890E+03  0.00000000000E+00 0. -1.
          5    1    1    2  502    0 -0.24951651211E+02 -0.59780880201E+02 -0.19930081043E+02  0.67904484875E+02  0.41800000000E+01 0.  1.
         -5    1    1    2    0  502 -0.15891689670E+03  0.92041383596E+01  0.17289304536E+02  0.16017393256E+03  0.41800000000E+01 0.  1.
        -11    1    1    2    0    0  0.13917015192E+03  0.34032140913E+02 -0.87122114579E+02  0.16768059115E+03  0.00000000000E+00 0. -1.
         11    1    1    2    0    0  0.44698396000E+02  0.16544600928E+02  0.21542664614E+02  0.52304462750E+02  0.00000000000E+00 0.  1.
</event>
<event>
 6    1  0.6981059E-006  0.1262562E+03  0.7561462E-02  0.1233119E+00
          2   -1    0    0  501    0  0.00000000000E+00  0.00000000000E+00  0.11563574028E+04  0.11563574028E+04  0.00000000000E+00 0. -1.
         -2   -1    0    0    0  501 -0.00000000000E+00 -0.00000000000E+00 -0.18718966009E+02  0.18718966009E+02  0.00000000000E+00 0.  1.
          5    1    1    2  502    0 -0.34028036845E+01 -0.13974426436E+02  0.71382403417E+01  0.16591881819E+02  0.41800000000E+01 0.  1.
         -5    1    1    2    0  502 -0.19879882192E+02  0.10616206795E+03  0.66055567316E+03  0.66934061892E+03  0.41800000000E+01 0.  1.
        -11    1    1    2    0    0  0.45008973814E+02 -0.12303410525E+02  0.24602901575E+03  0.25041457271E+03  0.00000000000E+00 0. -1.
         11    1    1    2    0    0 -0.21726287937E+02 -0.79884230985E+02  0.22391550751E+03  0.23872929533E+03  0.00000000000E+00 0.  1.
</event>
<event>
 6    1  0.6981059E-006  0.1139826E+03  0.7561462E-02  0.1253368E+00
          2   -1    0    0  501    0  0.00000000000E+00  0.00000000000E+00  0.74768665720E+02  0.74768665720E+02  0.00000000000E+00 0. -1.
         -2   -1    0    0    0  501 -0.00000000000E+00 -0.00000000000E+00 -0.24861023524E+03  0.24861023524E+03  0.00000000000E+00 0.  1.
          5    1    1    2  502    0  0.41450963430E+02  0.23108344987E+02 -0.40015279583E+02  0.62216340116E+02  0.41800000000E+01 0. -1.
         -5    1    1    2    0  502 -0.26710458252E+02 -0.91658840311E+02 -0.94721697774E+02  0.13455282983E+03  0.41800000000E+01 0. -1.
        -11    1    1    2    0    0  0.14943961644E+02  0.71596610302E+01  0.26972630454E+02  0.31656050437E+02  0.00000000000E+00 0. -1.
         11    1    1    2    0    0 -0.29684466821E+02  0.61390834294E+02 -0.66077222616E+02  0.94953680573E+02  0.00000000000E+00 0.  1.
</event>
<event>
 6    1  0.6981059E-006  0.1070052E+03  0.7561462E-02  0.1266219E+00
          1   -1    0    0  501    0  0.00000000000E+00  0.00000000000E+00  0.36894366413E+03  0.36894366413E+03  0.00000000000E+00 0. -1.
         -1   -1    0    0    0  501 -0.00000000000E+00 -0.00000000000E+00 -0.37454591587E+02  0.37454591587E+02  0.00000000000E+00 0.  1.
          5    1    1    2  502    0 -0.53003229457E+02  0.40994094710E+02  0.55423065669E+02  0.87057720750E+02  0.41800000000E+01 0. -1.
         -5    1    1    2    0  502  0.58780954818E+02 -0.12438953886E+02  0.71947486190E+02  0.93828787651E+02  0.41800000000E+01 0. -1.
        -11    1    1    2    0    0  0.35826056602E+02 -0.27266817582E+02  0.15355818065E+03  0.16002218758E+03  0.00000000000E+00 0. -1.
         11    1    1    2    0    0 -0.41603781963E+02 -0.12883232434E+01  0.50560340037E+02  0.65489559741E+02  0.00000000000E+00 0.  1.
</event>
<event>
 6    1  0.6981059E-006  0.1152858E+03  0.7561462E-02  0.1251083E+00
          2   -1    0    0  501    0  0.00000000000E+00  0.00000000000E+00  0.58144460692E+03  0.58144460692E+03  0.00000000000E+00 0. -1.
         -2   -1    0    0    0  501 -0.00000000000E+00 -0.00000000000E+00 -0.38728914608E+02  0.38728914608E+02  0.00000000000E+00 0.  1.
          5    1    1    2  502    0  0.29774613573E+02  0.36895955183E+02  0.41945579948E+02  0.63440863798E+02  0.41800000000E+01 0.  1.
         -5    1    1    2    0  502 -0.65214137885E+02 -0.50888335204E+02  0.57060370301E+02  0.10057765507E+03  0.41800000000E+01 0.  1.
        -11    1    1    2    0    0  0.39343940532E+02 -0.34000508140E+02  0.15585743286E+03  0.16430313323E+03  0.00000000000E+00 0. -1.
         11    1    1    2    0    0 -0.39044162202E+01  0.47992888160E+02  0.28785230920E+03  0.29185186944E+03  0.00000000000E+00 0.  1.
</event>
<event>
 6    1  0.6981059E-006  0.8932726E+02  0.7561462E-02  0.1304489E+00
          1   -1    0    0  501    0  0.00000000000E+00  0.00000000000E+00  0.44759174920E+03  0.44759174920E+03  0.00000000000E+00 0. -1.
         -1   -1    0    0    0  501 -0.00000000000E+00 -0.00000000000E+00 -0.35965910310E+02  0.35965910310E+02  0.00000000000E+00 0.  1.
          5    1    1    2  502    0  0.24940800272E+02 -0.54437729755E+02  0.24522207881E+03  0.25246158178E+03  0.41800000000E+01 0. -1.
         -5    1    1    2    0  502 -0.12492815407E+02 -0.91066872581E+01 -0.11988291341E+02  0.20004842386E+02  0.41800000000E+01 0. -1.
        -11    1    1    2    0    0  0.34049479357E+02  0.28139630796E+02  0.35366583061E+02  0.56586226798E+02  0.00000000000E+00 0. -1.
         11    1    1    2    0    0 -0.46497464222E+02  0.35404786217E+02  0.14302546835E+03  0.15450500854E+03  0.00000000000E+00 0.  1.
</event>
<event>
 6    1  0.6981059E-006  0.7545751E+02  0.7561462E-02  0.1342460E+00
         -2   -1    0    0    0  501 -0.00000000000E+00  0.00000000000E+00  0.15106298592E+03  0.15106298592E+03  0.00000000000E+00 0.  1.
          2   -1    0    0  501    0  0.00000000000E+00 -0.00000000000E+00 -0.76046434332E+02  0.76046434332E+02  0.00000000000E+00 0. -1.
          5    1    1    2  502    0 -0.43781443273E+02  0.12095760985E+02  0.99787601323E+02  0.10971854896E+03  0.41800000000E+01 0. -1.
         -5    1    1    2    0  502  0.43279141302E+02  0.98792585517E+01 -0.10155896949E+02  0.45730716857E+02  0.41800000000E+01 0. -1.
        -11    1    1    2    0    0  0.91017148517E+01 -0.39850311342E+02 -0.26330314524E+02  0.48622772342E+02  0.00000000000E+00 0.  1.
         11    1    1    2    0    0 -0.85994128806E+01  0.17875291805E+02  0.11715161739E+02  0.23037382090E+02  0.00000000000E+00 0. -1.
</event>
<event>
 6    1  0.6981059E-006  0.2726855E+03  0.7561462E-02  0.1099752E+00
          1   -1    0    0  501    0  0.00000000000E+00  0.00000000000E+00  0.20366566243E+03  0.20366566243E+03  0.00000000000E+00 0. -1.
         -1   -1    0    0    0  501 -0.00000000000E+00 -0.00000000000E+00 -0.38842422872E+03  0.38842422872E+03  0.00000000000E+00 0.  1.
          5    1    1    2  502    0 -0.17476317337E+02 -0.11327340724E+03 -0.85397356480E+02  0.14299114430E+03  0.41800000000E+01 0. -1.
         -5    1    1    2    0  502  0.74978487421E+02  0.24713956920E+03 -0.94198046114E+02  0.27493723744E+03  0.41800000000E+01 0.  1.
        -11    1    1    2    0    0 -0.56575690166E+01 -0.11804372882E+03  0.77710225147E+01  0.11843444935E+03  0.00000000000E+00 0. -1.
         11    1    1    2    0    0 -0.51844601068E+02 -0.15822433136E+02 -0.12934186213E+02  0.55727060062E+02  0.00000000000E+00 0.  1.
</event>
<event>
 6    1  0.6981059E-006  0.7814757E+02  0.7561462E-02  0.1334392E+00
          2   -1    0    0  501    0  0.00000000000E+00  0.00000000000E+00  0.37695383075E+03  0.37695383075E+03  0.00000000000E+00 0. -1.
         -2   -1    0    0    0  501 -0.00000000000E+00 -0.00000000000E+00 -0.38390664533E+02  0.38390664533E+02  0.00000000000E+00 0.  1.
          5    1    1    2  502    0 -0.10332167376E+02 -0.38720689572E+02  0.17675152164E+03  0.18128601239E+03  0.41800000000E+01 0. -1.
         -5    1    1    2    0  502  0.58932435900E+02  0.21314378165E+02  0.40725907760E+02  0.74855906117E+02  0.41800000000E+01 0. -1.
        -11    1    1    2    0    0 -0.28159830686E+02  0.32854811955E+01  0.12981128447E+03  0.13287114069E+03  0.00000000000E+00 0. -1.
         11    1    1    2    0    0 -0.20440437838E+02  0.14120830211E+02 -0.87255476584E+01  0.26331436095E+02  0.00000000000E+00 0.  1.
</event>
<event>
 6    1  0.6981059E-006  0.1290694E+03  0.7561462E-02  0.1228843E+00
          1   -1    0    0  501    0  0.00000000000E+00  0.00000000000E+00  0.30355603861E+03  0.30355603861E+03  0.00000000000E+00 0. -1.
         -1   -1    0    0    0  501 -0.00000000000E+00 -0.00000000000E+00 -0.65674546265E+02  0.65674546265E+02  0.00000000000E+00 0.  1.
          5    1    1    2  502    0  0.29085588318E+02  0.40218408780E+02  0.42405600073E+02  0.65415588128E+02  0.41800000000E+01 0. -1.
         -5    1    1    2    0  502  0.33490809734E+02 -0.88943917851E+02  0.32275626347E+02  0.10045816699E+03  0.41800000000E+01 0. -1.
        -11    1    1    2    0    0 -0.62381591820E+02 -0.20559310766E+01  0.12532058941E+03  0.14000335704E+03  0.00000000000E+00 0.  1.
         11    1    1    2    0    0 -0.19480623273E+00  0.50781440148E+02  0.37879676513E+02  0.63353472720E+02  0.00000000000E+00 0. -1.
</event>
<event>
 6    1  0.6981059E-006  0.1229077E+03  0.7561462E-02  0.1238376E+00
          2   -1    0    0  501    0  0.00000000000E+00  0.00000000000E+00  0.18605551678E+03  0.18605551678E+03  0.00000000000E+00 0. -1.
         -2   -1    0    0    0  501 -0.00000000000E+00 -0.00000000000E+00 -0.11009653483E+03  0.11009653483E+03  0.00000000000E+00 0.  1.
          5    1    1    2  502    0  0.46277214137E+02  0.38115416877E+01 -0.36756555759E+02  0.59368553878E+02  0.41800000000E+01 0. -1.
         -5    1    1    2    0  502  0.22123068217E+01  0.74445387087E+02  0.64064121755E+02  0.98329517726E+02  0.41800000000E+01 0. -1.
        -11    1    1    2    0    0 -0.38025287695E+02  0.70317753016E+01 -0.19758144467E+01  0.38720436605E+02  0.00000000000E+00 0.  1.
         11    1    1    2    0    0 -0.10464233263E+02 -0.85288704076E+02  0.50627230404E+02  0.99733543401E+02  0.00000000000E+00 0. -1.
</event>
<event>
 6    1  0.6981059E-006  0.8511041E+02  0.7561462E-02  0.1315144E+00
          1   -1    0    0  501    0  0.00000000000E+00  0.00000000000E+00  0.43948073984E+02  0.43948073984E+02  0.00000000000E+00 0. -1.
         -1   -1    0    0    0  501 -0.00000000000E+00 -0.00000000000E+00 -0.27483865633E+03  0.27483865633E+03  0.00000000000E+00 0.  1.
          5    1    1    2  502    0  0.11327886401E+02  0.35280681308E+02  0.15928839997E+01  0.37323680999E+02  0.41800000000E+01 0.  1.
         -5    1    1    2    0  502 -0.22051666499E+02 -0.35082895634E+02 -0.15715610390E+03  0.16258105349E+03  0.41800000000E+01 0.  1.
        -11    1    1    2    0    0  0.37473380946E+02 -0.32317009109E+02 -0.33554552296E+02  0.59787551690E+02  0.00000000000E+00 0. -1.
         11    1    1    2    0    0 -0.26749600848E+02  0.32119223435E+02 -0.41772810149E+02  0.59094444133E+02  0.00000000000E+00 0.  1.
</event>
<event>
 6    1  0.6981059E-006  0.6556058E+02  0.7561462E-02  0.1375875E+00
          1   -1    0    0  501    0  0.00000000000E+00  0.00000000000E+00  0.26093153143E+03  0.26093153143E+03  0.00000000000E+00 0. -1.
         -1   -1    0    0    0  501 -0.00000000000E+00 -0.00000000000E+00 -0.51645547681E+02  0.51645547681E+02  0.00000000000E+00 0.  1.
          5    1    1    2  502    0 -0.28127991177E+02  0.16193863495E+02  0.14144098573E+03  0.14517730520E+03  0.41800000000E+01 0.  1.
         -5    1    1    2    0  502 -0.11903149537E+02 -0.38290009334E+01 -0.26630234738E+02  0.29715114323E+02  0.41800000000E+01 0.  1.
        -11    1    1    2    0    0  0.56491493102E+02 -0.27519813144E+02  0.96567653843E+02  0.11521258906E+03  0.00000000000E+00 0. -1.
         11    1    1    2    0    0 -0.16460352389E+02  0.15154950583E+02 -0.20924210814E+01  0.22472070530E+02  0.00000000000E+00 0.  1.
</event>
<event>
 6    1  0.6981059E-006  0.3037484E+03  0.7561462E-02  0.1083382E+00
         -1   -1    0    0    0  501 -0.00000000000E+00  0.00000000000E+00  0.47969923080E+02  0.47969923080E+02  0.00000000000E+00 0.  1.
          1   -1    0    0  501    0  0.00000000000E+00 -0.00000000000E+00 -0.24114110323E+04  0.24114110323E+04  0.00000000000E+00 0. -1.
          5    1    1    2  502    0 -0.60361007080E+02  0.88240285627E+02 -0.16110637984E+03  0.19339735574E+03  0.41800000000E+01 0.  1.
         -5    1    1    2    0  502 -0.18748892394E+03  0.76648062829E+02 -0.60345593358E+03  0.63655601349E+03  0.41800000000E+01 0.  1.
        -11    1    1    2    0    0  0.15503557819E+02 -0.71063037073E+01 -0.22544095024E+02  0.28268287495E+02  0.00000000000E+00 0.  1.
         11    1    1    2    0    0  0.23234637321E+03 -0.15778204475E+03 -0.15763347007E+04  0.16011592986E+04  0.00000000000E+00 0. -1.
</event>
<event>
 6    1  0.6981059E-006  0.8675132E+02  0.7561462E-02  0.1310915E+00
          2   -1    0    0  501    0  0.00000000000E+00  0.00000000000E+00  0.34513571797E+03  0.34513571797E+03  0.00000000000E+00 0. -1.
         -2   -1    0    0    0  501 -0.00000000000E+00 -0.00000000000E+00 -0.51013839333E+02  0.51013839333E+02  0.00000000000E+00 0.  1.
          5    1    1    2  502    0 -0.15911395102E+02  0.20347593075E+02 -0.20808142544E+02  0.33431246374E+02  0.41800000000E+01 0.  1.
         -5    1    1    2    0  502 -0.54221350933E+02 -0.59584729890E+01  0.15169998174E+03  0.16126318600E+03  0.41800000000E+01 0.  1.
        -11    1    1    2    0    0  0.40406684785E+02  0.21706820967E+02  0.14358877822E+03  0.15073693470E+03  0.00000000000E+00 0.  1.
         11    1    1    2    0    0  0.29726061250E+02 -0.36095941053E+02  0.19641261215E+02  0.50718190229E+02  0.00000000000E+00 0. -1.
</event>
<event>
 6    1  0.6981059E-006  0.1779279E+03  0.7561462E-02  0.1169824E+00
          2   -1    0    0  501    0  0.00000000000E+00  0.00000000000E+00  0.82110841762E+02  0.82110841762E+02  0.00000000000E+00 0. -1.
         -2   -1    0    0    0  501 -0.00000000000E+00 -0.00000000000E+00 -0.46058243487E+03  0.46058243487E+03  0.00000000000E+00 0.  1.
          5    1    1    2  502    0 -0.56230047066E+02  0.16615226349E+03 -0.23480627669E+03  0.29312088433E+03  0.41800000000E+01 0.  1.
         -5    1    1    2    0  502  0.11580063315E+02 -0.16209722019E+02 -0.85630148193E+01  0.22082811802E+02  0.41800000000E+01 0.  1.
        -11    1    1    2    0    0  0.17074855488E+01 -0.63476066275E+02 -0.11116642693E+03  0.12802382971E+03  0.00000000000E+00 0.  1.
         11    1    1    2    0    0  0.42942498202E+02 -0.86466475194E+02 -0.23935874664E+02  0.99465750790E+02  0.00000000000E+00 0. -1.
</event>
<event>
 6    1  0.6981059E-006  0.1117539E+03  0.7561462E-02  0.1257356E+00
          2   -1    0    0  501    0  0.00000000000E+00  0.00000000000E+00  0.41868156063E+03  0.41868156063E+03  0.00000000000E+00 0. -1.
         -2   -1    0    0    0  501 -0.00000000000E+00 -0.00000000000E+00 -0.36475626962E+02  0.36475626962E+02  0.00000000000E+00 0.  1.
          5    1    1    2  502    0 -0.52482338653E+01  0.67293731392E+02  0.17051788300E+03  0.18343884830E+03  0.41800000000E+01 0. -1.
         -5    1    1    2    0  502  0.46870348868E+02 -0.39333911731E+02  0.77508776123E+02  0.98838600714E+02  0.41800000000E+01 0. -1.
        -11    1    1    2    0    0  0.18205873540E+02  0.12713377957E+02  0.21244055396E+01  0.22306880314E+02  0.00000000000E+00 0.  1.
         11    1    1    2    0    0 -0.59827988543E+02 -0.40673197618E+02  0.13205486901E+03  0.15057285826E+03  0.00000000000E+00 0. -1.
</event>
<event>
 6    1  0.6981059E-006  0.2149653E+03  0.7561462E-02  0.1137693E+00
          2   -1    0    0  501    0  0.00000000000E+00  0.00000000000E+00  0.71467232439E+03  0.71467232439E+03  0.00000000000E+00 0. -1.
         -2   -1    0    0    0  501 -0.00000000000E+00 -0.00000000000E+00 -0.10646909607E+03  0.10646909607E+03  0.00000000000E+00 0.  1.
          5    1    1    2  502    0  0.62524516618E+02  0.12807150036E+03  0.86285157927E+02  0.16665600878E+03  0.41800000000E+01 0. -1.
         -5    1    1    2    0  502  0.88135787580E+02 -0.38748283049E+01 -0.13853492896E+01  0.88330758739E+02  0.41800000000E+01 0.  1.
        -11    1    1    2    0    0 -0.11913626541E+03 -0.11639181274E+03  0.49761049456E+03  0.52474442170E+03  0.00000000000E+00 0. -1.
         11    1    1    2    0    0 -0.31524038791E+02 -0.78048593168E+01  0.25692925122E+02  0.41410231248E+02  0.00000000000E+00 0.  1.
</event>
<event>
 6    1  0.6981059E-006  0.1535852E+03  0.7561462E-02  0.1196136E+00
          1   -1    0    0  501    0  0.00000000000E+00  0.00000000000E+00  0.19979463645E+03  0.19979463645E+03  0.00000000000E+00 0. -1.
         -1   -1    0    0    0  501 -0.00000000000E+00 -0.00000000000E+00 -0.14987551625E+03  0.14987551625E+03  0.00000000000E+00 0.  1.
          5    1    1    2  502    0  0.19818658188E+01  0.85444340491E+02 -0.24867785720E+02  0.89109720461E+02  0.41800000000E+01 0.  1.
         -5    1    1    2    0  502  0.60491399422E+02  0.31563788931E+02  0.71840863731E+02  0.99166850698E+02  0.41800000000E+01 0.  1.
        -11    1    1    2    0    0  0.15865653304E+02 -0.41532403808E+02 -0.22272454904E+02  0.49726469493E+02  0.00000000000E+00 0.  1.
         11    1    1    2    0    0 -0.78338918545E+02 -0.75475725615E+02  0.25218497091E+02  0.11166711204E+03  0.00000000000E+00 0. -1.
</event>
<event>
 6    1  0.6981059E-006  0.1121776E+03  0.7561462E-02  0.1256590E+00
          2   -1    0    0  501    0  0.00000000000E+00  0.00000000000E+00  0.46620328575E+02  0.46620328575E+02  0.00000000000E+00 0. -1.
         -2   -1    0    0    0  501 -0.00000000000E+00 -0.00000000000E+00 -0.40521554539E+03  0.40521554539E+03  0.00000000000E+00 0.  1.
          5    1    1    2  502    0  0.15258464939E+02 -0.50625244574E+02 -0.14199045221E+03  0.15157340485E+03  0.41800000000E+01 0.  1.
         -5    1    1    2    0  502  0.25434088991E+02  0.76253973325E+02 -0.17854567831E+03  0.19585094580E+03  0.41800000000E+01 0.  1.
        -11    1    1    2    0    0  0.22058167249E+02 -0.16200160964E+02 -0.29735270364E+02  0.40412798235E+02  0.00000000000E+00 0.  1.
         11    1    1    2    0    0 -0.62750721178E+02 -0.94285677868E+01 -0.83238159341E+01  0.63998725070E+02  0.00000000000E+00 0. -1.
</event>
<event>
 6    1  0.6981059E-006  0.1766573E+03  0.7561462E-02  0.1171078E+00
          2   -1    0    0  501    0  0.00000000000E+00  0.00000000000E+00  0.49982109552E+03  0.49982109552E+03  0.00000000000E+00 0. -1.
         -2   -1    0    0    0  501 -0.00000000000E+00 -0.00000000000E+00 -0.76967480915E+02  0.76967480915E+02  0.00000000000E+00 0.  1.
          5    1    1    2  502    0  0.70673659443E+02  0.94354008140E+02  0.19827600422E+03  0.23071257279E+03  0.41800000000E+01 0.  1.
         -5    1    1    2    0  502  0.70421884865E+02 -0.12787387581E+02  0.33885798774E+02  0.79299930061E+02  0.41800000000E+01 0.  1.
        -11    1    1    2    0    0 -0.89681925080E+02 -0.60011217785E+02  0.57245082005E+02  0.12215233669E+03  0.00000000000E+00 0.  1.
         11    1    1    2    0    0 -0.51413619229E+02 -0.21555402774E+02  0.13344672960E+03  0.14462373689E+03  0.00000000000E+00 0. -1.
</event>
<event>
 6    1  0.6981059E-006  0.1267426E+03  0.7561462E-02  0.1232371E+00
          1   -1    0    0  501    0  0.00000000000E+00  0.00000000000E+00  0.10972432023E+04  0.10972432023E+04  0.00000000000E+00 0. -1.
         -1   -1    0    0    0  501 -0.00000000000E+00 -0.00000000000E+00 -0.15474401225E+02  0.15474401225E+02  0.00000000000E+00 0.  1.
          5    1    1    2  502    0 -0.62664533377E+02 -0.14073861668E+02  0.37768020619E+03  0.38312495073E+03  0.41800000000E+01 0. -1.
         -5    1    1    2    0  502  0.47501818318E+02 -0.54334645157E+02  0.22279993560E+03  0.23423483966E+03  0.41800000000E+01 0. -1.
        -11    1    1    2    0    0 -0.34292840571E+02  0.24344910823E+01  0.12390290177E+03  0.12858403761E+03  0.00000000000E+00 0. -1.
         11    1    1    2    0    0  0.49455555631E+02  0.65974015742E+02  0.35738575754E+03  0.36677377554E+03  0.00000000000E+00 0.  1.
</event>
<event>
 6    1  0.6981059E-006  0.1154108E+03  0.7561462E-02  0.1250866E+00
         -3   -1    0    0    0  501 -0.00000000000E+00  0.00000000000E+00  0.36328295587E+03  0.36328295587E+03  0.00000000000E+00 0.  1.
          3   -1    0    0  501    0  0.00000000000E+00 -0.00000000000E+00 -0.41957886462E+02  0.41957886462E+02  0.00000000000E+00 0. -1.
          5    1    1    2  502    0  0.50829503699E+02 -0.65932299287E+02  0.95350246424E+02  0.12664852320E+03  0.41800000000E+01 0.  1.
         -5    1    1    2    0  502 -0.23458074506E+01  0.42525565395E+02  0.12767090637E+03  0.13465236448E+03  0.41800000000E+01 0.  1.
        -11    1    1    2    0    0 -0.75234126813E+02  0.18483810238E+02  0.78529521972E+02  0.11031188014E+03  0.00000000000E+00 0. -1.
         11    1    1    2    0    0  0.26750430564E+02  0.49229236540E+01  0.19774394643E+02  0.33628074524E+02  0.00000000000E+00 0.  1.
</event>
<event>
 6    1  0.6981059E-006  0.1027667E+03  0.7561462E-02  0.1274583E+00
          1   -1    0    0  501    0  0.00000000000E+00  0.00000000000E+00  0.67998022989E+03  0.67998022989E+03  0.00000000000E+00 0. -1.
         -1   -1    0    0    0  501 -0.00000000000E+00 -0.00000000000E+00 -0.24200979108E+02  0.24200979108E+02  0.00000000000E+00 0.  1.
          5    1    1    2  502    0 -0.73597202347E+02  0.10272883155E+02  0.31817393609E+03  0.32676322670E+03  0.41800000000E+01 0.  1.
         -5    1    1    2    0  502  0.10958759963E+02 -0.23374341312E+02  0.64110769985E+01  0.26926354376E+02  0.41800000000E+01 0.  1.
        -11    1    1    2    0    0  0.59518645230E+02 -0.26555244233E+02  0.13022690333E+03  0.14562519177E+03  0.00000000000E+00 0. -1.
         11    1    1    2    0    0  0.31197971548E+01  0.39656702390E+02  0.20096733437E+03  0.20486643616E+03  0.00000000000E+00 0.  1.
</event>
<event>
 6    1  0.6981059E-006  0.5889027E+02  0.7561462E-02  0.1402549E+00
          1   -1    0    0  501    0  0.00000000000E+00  0.00000000000E+00  0.32308798183E+03  0.32308798183E+03  0.00000000000E+00 0. -1.
         -1   -1    0    0    0  501 -0.00000000000E+00 -0.00000000000E+00 -0.40742880872E+02  0.40742880872E+02  0.00000000000E+00 0.  1.
          5    1    1    2  502    0  0.50444094074E+01  0.14024092281E+02  0.15173045311E+03  0.15251794659E+03  0.41800000000E+01 0.  1.
         -5    1    1    2    0  502  0.28380816498E+02 -0.85961121595E+01 -0.16991890227E+02  0.34431970940E+02  0.41800000000E+01 0.  1.
        -11    1    1    2    0    0  0.12256668165E+02 -0.20810989418E+02  0.28617512191E+01  0.24321036473E+02  0.00000000000E+00 0.  1.
         11    1    1    2    0    0 -0.45681894070E+02  0.15383009297E+02  0.14474478685E+03  0.15255990869E+03  0.00000000000E+00 0. -1.
</event>
<event>
 6    1  0.6981059E-006  0.1613054E+03  0.7561462E-02  0.1187231E+00
          1   -1    0    0  501    0  0.00000000000E+00  0.00000000000E+00  0.20825358047E+03  0.20825358047E+03  0.00000000000E+00 0.  1.
         -1   -1    0    0    0  501 -0.00000000000E+00 -0.00000000000E+00 -0.14762469050E+03  0.14762469050E+03  0.00000000000E+00 0. -1.
          5    1    1    2  502    0  0.10047004099E+03  0.96795218231E+01 -0.21113502510E+02  0.10320452833E+03  0.41800000000E+01 0. -1.
         -5    1    1    2    0  502  0.68693139631E+01 -0.75544429300E+02 -0.37130627341E+01  0.76061866316E+02  0.41800000000E+01 0. -1.
        -11    1    1    2    0    0 -0.44493450469E+01  0.39034370148E+02  0.51938608947E+02  0.65123711684E+02  0.00000000000E+00 0.  1.
         11    1    1    2    0    0 -0.10289000991E+03  0.26830537329E+02  0.33516846259E+02  0.11148816464E+03  0.00000000000E+00 0. -1.
</event>
<event>
 6    1  0.6981059E-006  0.1015643E+03  0.7561462E-02  0.1277040E+00
          1   -1    0    0  501    0  0.00000000000E+00  0.00000000000E+00  0.22456611359E+03  0.22456611359E+03  0.00000000000E+00 0. -1.
         -1   -1    0    0    0  501 -0.00000000000E+00 -0.00000000000E+00 -0.10840460633E+03  0.10840460633E+03  0.00000000000E+00 0.  1.
          5    1    1    2  502    0  0.37869794099E+02 -0.31452419286E+01 -0.14321295453E+01  0.38256205339E+02  0.41800000000E+01 0. -1.
         -5    1    1    2    0  502 -0.98612920152E+02  0.16278775750E+02 -0.36400753578E+02  0.10645183804E+03  0.41800000000E+01 0. -1.
        -11    1    1    2    0    0  0.35140269888E+02 -0.16887787050E+02  0.77548665553E+01  0.39751400912E+02  0.00000000000E+00 0.  1.
         11    1    1    2    0    0  0.25602856166E+02  0.37542532279E+01  0.14623952383E+03  0.14851127563E+03  0.00000000000E+00 0. -1.
</event>
<event>
 6    1  0.6981059E-006  0.1184023E+03  0.7561462E-02  0.1245756E+00
          2   -1    0    0  501    0  0.00000000000E+00  0.00000000000E+00  0.18577956090E+03  0.18577956090E+03  0.00000000000E+00 0. -1.
         -2   -1    0    0    0  501 -0.00000000000E+00 -0.00000000000E+00 -0.89876343190E+02  0.89876343190E+02  0.00000000000E+00 0.  1.
          5    1    1    2  502    0 -0.58751337470E+02  0.54401971477E+02  0.64898666416E+02  0.10315330076E+03  0.41800000000E+01 0. -1.
         -5    1    1    2    0  502  0.68219767753E+02 -0.33256396484E+02 -0.11454447179E+02  0.76867427299E+02  0.41800000000E+01 0.  1.
        -11    1    1    2    0    0 -0.38406853804E+02  0.83399840855E+01  0.36971314524E+02  0.53958501196E+02  0.00000000000E+00 0. -1.
         11    1    1    2    0    0  0.28938423522E+02 -0.29485559078E+02  0.54876839484E+01  0.41676674834E+02  0.00000000000E+00 0.  1.
</event>
<event>
 6    1  0.6981059E-006  0.1330067E+03  0.7561462E-02  0.1223061E+00
         -2   -1    0    0    0  501 -0.00000000000E+00  0.00000000000E+00  0.33851580019E+02  0.33851580019E+02  0.00000000000E+00 0.  1.
          2   -1    0    0  501    0  0.00000000000E+00 -0.00000000000E+00 -0.83965110896E+03  0.83965110896E+03  0.00000000000E+00 0. -1.
          5    1    1    2  502    0 -0.20336024858E+02  0.80207277205E+02 -0.27380464886E+03  0.28606506141E+03  0.41800000000E+01 0. -1.
         -5    1    1    2    0  502 -0.32944483129E+02  0.23622491445E+02 -0.50405196279E+01  0.41063856478E+02  0.41800000000E+01 0. -1.
        -11    1    1    2    0    0 -0.13924596699E+02 -0.61336155870E+02 -0.27816526392E+03  0.28518753911E+03  0.00000000000E+00 0.  1.
         11    1    1    2    0    0  0.67205104686E+02 -0.42493612780E+02 -0.24878909653E+03  0.26118623198E+03  0.00000000000E+00 0. -1.
</event>
<event>
 6    1  0.6981059E-006  0.2031028E+03  0.7561462E-02  0.1147147E+00
          2   -1    0    0  501    0  0.00000000000E+00  0.00000000000E+00  0.83105151686E+03  0.83105151686E+03  0.00000000000E+00 0. -1.
         -2   -1    0    0    0  501 -0.00000000000E+00 -0.00000000000E+00 -0.62346540246E+02  0.62346540246E+02  0.00000000000E+00 0.  1.
          5    1    1    2  502    0  0.74204974588E+02  0.10517375722E+03  0.14704456257E+03  0.19546732014E+03  0.41800000000E+01 0.  1.
         -5    1    1    2    0  502  0.79495427569E+02 -0.23344375336E+02  0.58196934195E+02  0.10133527724E+03  0.41800000000E+01 0.  1.
        -11    1    1    2    0    0 -0.49011257481E+02  0.15618420638E+02  0.18465264130E+03  0.19168368831E+03  0.00000000000E+00 0.  1.
         11    1    1    2    0    0 -0.10468914468E+03 -0.97447802525E+02  0.37881083855E+03  0.40491177142E+03  0.00000000000E+00 0. -1.
</event>
<event>
 6    1  0.6981059E-006  0.9558716E+02  0.7561462E-02  0.1289859E+00
         -1   -1    0    0    0  501 -0.00000000000E+00  0.00000000000E+00  0.42524962208E+03  0.42524962208E+03  0.00000000000E+00 0.  1.
          1   -1    0    0  501    0  0.00000000000E+00 -0.00000000000E+00 -0.39432458046E+02  0.39432458046E+02  0.00000000000E+00 0. -1.
          5    1    1    2  502    0 -0.25404295785E+02  0.21119771917E+02  0.17462126096E+02  0.37600814592E+02  0.41800000000E+01 0.  1.
         -5    1    1    2    0  502  0.60889045545E+02  0.13637435736E+01  0.30079821173E+03  0.30693056583E+03  0.41800000000E+01 0.  1.
        -11    1    1    2    0    0  0.27604818916E+02 -0.19250608550E+02  0.36868136685E+02  0.49918648415E+02  0.00000000000E+00 0. -1.
         11    1    1    2    0    0 -0.63089568677E+02 -0.32329069399E+01  0.30688689525E+02  0.70232051286E+02  0.00000000000E+00 0.  1.
</event>
<event>
 6    1  0.6981059E-006  0.8768863E+02  0.7561462E-02  0.1308548E+00
         -1   -1    0    0    0  501 -0.00000000000E+00  0.00000000000E+00  0.13980904187E+03  0.13980904187E+03  0.00000000000E+00 0.  1.
          1   -1    0    0  501    0  0.00000000000E+00 -0.00000000000E+00 -0.92305867825E+02  0.92305867825E+02  0.00000000000E+00 0. -1.
          5    1    1    2  502    0  0.42939998618E+02  0.12311590094E+02 -0.24496879109E+02  0.51117396432E+02  0.41800000000E+01 0.  1.
         -5    1    1    2    0  502 -0.40219307988E+02 -0.39362452022E+02  0.58620697894E+02  0.81368630232E+02  0.41800000000E+01 0.  1.
        -11    1    1    2    0    0  0.24243241756E+02 -0.11662654326E+02  0.37885356265E+02  0.46465605517E+02  0.00000000000E+00 0.  1.
         11    1    1    2    0    0 -0.26963932386E+02  0.38713516255E+02 -0.24506001006E+02  0.53163277512E+02  0.00000000000E+00 0. -1.
</event>
<event>
 6    1  0.6981059E-006  0.1108435E+03  0.7561462E-02  0.1259016E+00
          2   -1    0    0  501    0  0.00000000000E+00  0.00000000000E+00  0.65453598374E+02  0.65453598374E+02  0.00000000000E+00 0. -1.
         -2   -1    0    0    0  501 -0.00000000000E+00 -0.00000000000E+00 -0.30051837452E+03  0.30051837452E+03  0.00000000000E+00 0.  1.
          5    1    1    2  502    0  0.17988954392E+02 -0.43855132466E+02 -0.90137439182E+02  0.10192696143E+03  0.41800000000E+01 0.  1.
         -5    1    1    2    0  502 -0.35936455388E+02  0.73589838551E+02 -0.13455074822E+03  0.15756988738E+03  0.41800000000E+01 0.  1.
        -11    1    1    2    0    0 -0.34519559467E+02 -0.14715174581E+02 -0.30450673129E+02  0.48325767896E+02  0.00000000000E+00 0.  1.
         11    1    1    2    0    0  0.52467060464E+02 -0.15019531504E+02  0.20074084388E+02  0.58149356181E+02  0.00000000000E+00 0. -1.
</event>
<event>
 6    1  0.6981059E-006  0.1424137E+03  0.7561462E-02  0.1210118E+00
          1   -1    0    0  501    0  0.00000000000E+00  0.00000000000E+00  0.22726197106E+03  0.22726197106E+03  0.00000000000E+00 0. -1.
         -1   -1    0    0    0  501 -0.00000000000E+00 -0.00000000000E+00 -0.13638994623E+03  0.13638994623E+03  0.00000000000E+00 0.  1.
          5    1    1    2  502    0 -0.30683189995E+02 -0.64495001670E+01  0.48643531396E+02  0.58023441361E+02  0.41800000000E+01 0.  1.
         -5    1    1    2    0  502 -0.21043011494E+02 -0.11675359822E+03 -0.39860784103E+02  0.12522206491E+03  0.41800000000E+01 0.  1.
        -11    1    1    2    0    0  0.10280514116E+02  0.42966506709E+02 -0.16081748132E+02  0.47015234682E+02  0.00000000000E+00 0.  1.
         11    1    1    2    0    0  0.41445687373E+02  0.80236591679E+02  0.98171025663E+02  0.13339117634E+03  0.00000000000E+00 0. -1.
</event>
<event>
 6    1  0.6981059E-006  0.1895575E+03  0.7561462E-02  0.1158861E+00
          2   -1    0    0  501    0  0.00000000000E+00  0.00000000000E+00  0.14495303766E+03  0.14495303766E+03  0.00000000000E+00 0.  1.
         -2   -1    0    0    0  501 -0.00000000000E+00 -0.00000000000E+00 -0.26098666984E+03  0.26098666984E+03  0.00000000000E+00 0. -1.
          5    1    1    2  502    0 -0.11348802361E+03  0.85095389927E+02 -0.46586581361E+02  0.14936043269E+03  0.41800000000E+01 0.  1.
         -5    1    1    2    0  502 -0.41753546550E+02 -0.44199657563E+02 -0.89158657475E+01  0.61594914077E+02  0.41800000000E+01 0.  1.
        -11    1    1    2    0    0  0.11067644044E+03 -0.62098793210E+02 -0.14917241871E+02  0.12778129241E+03  0.00000000000E+00 0.  1.
         11    1    1    2    0    0  0.44565129725E+02  0.21203060846E+02 -0.45613943198E+02  0.67203068313E+02  0.00000000000E+00 0. -1.
</event>
<event>
 6    1  0.6981059E-006  0.1122705E+03  0.7561462E-02  0.1256422E+00
          1   -1    0    0  501    0  0.00000000000E+00  0.00000000000E+00  0.29495372899E+02  0.29495372899E+02  0.00000000000E+00 0. -1.
         -1   -1    0    0    0  501 -0.00000000000E+00 -0.00000000000E+00 -0.57924974558E+03  0.57924974558E+03  0.00000000000E+00 0.  1.
          5    1    1    2  502    0 -0.44232382627E+01 -0.72607608398E+02 -0.31703911717E+03  0.32530401788E+03  0.41800000000E+01 0. -1.
         -5    1    1    2    0  502  0.28768851083E+02  0.44424565568E+02 -0.13074109992E+03  0.14110951926E+03  0.41800000000E+01 0. -1.
        -11    1    1    2    0    0 -0.59405131490E+02  0.17069721794E+02 -0.71955174844E+02  0.94857220264E+02  0.00000000000E+00 0.  1.
         11    1    1    2    0    0  0.35059518670E+02  0.11113321036E+02 -0.30018980748E+02  0.47474361070E+02  0.00000000000E+00 0. -1.
</event>
<event>
 6    1  0.6981059E-006  0.1779880E+03  0.7561462E-02  0.1169765E+00
          1   -1    0    0  501    0  0.00000000000E+00  0.00000000000E+00  0.35072042339E+03  0.35072042339E+03  0.00000000000E+00 0. -1.
         -1   -1    0    0    0  501 -0.00000000000E+00 -0.00000000000E+00 -0.10002255765E+03  0.10002255765E+03  0.00000000000E+00 0.  1.
          5    1    1    2  502    0  0.15551773731E+03  0.58053983185E+01  0.12079129678E+03  0.19704689555E+03  0.41800000000E+01 0. -1.
         -5    1    1    2    0  502 -0.63630067228E+01 -0.35765852835E+02  0.56458622570E+01  0.37000435730E+02  0.41800000000E+01 0. -1.
        -11    1    1    2    0    0 -0.34147023644E+02 -0.18603488704E+02  0.71034973277E+02  0.80981951348E+02  0.00000000000E+00 0. -1.
         11    1    1    2    0    0 -0.11500770694E+03  0.48563943220E+02  0.53225733423E+02  0.13571369841E+03  0.00000000000E+00 0.  1.
</event>
<event>
 6    1  0.6981059E-006  0.8275181E+02  0.7561462E-02  0.1321419E+00
         -2   -1    0    0    0  501 -0.00000000000E+00  0.00000000000E+00  0.39240083121E+02  0.39240083121E+02  0.00000000000E+00 0.  1.
          2   -1    0    0  501    0  0.00000000000E+00 -0.00000000000E+00 -0.29249781461E+03  0.29249781461E+03  0.00000000000E+00 0. -1.
          5    1    1    2  502    0  0.27957011643E+02 -0.29147381695E+02 -0.92926550264E+02  0.10140996255E+03  0.41800000000E+01 0. -1.
         -5    1    1    2    0  502 -0.13764281625E+02  0.49569005838E+02 -0.10609871754E+02  0.52693297174E+02  0.41800000000E+01 0.  1.
        -11    1    1    2    0    0 -0.42152988328E+02 -0.15403087345E+02 -0.28578623447E+02  0.53205894813E+02  0.00000000000E+00 0.  1.
         11    1    1    2    0    0  0.27960258310E+02 -0.50185367981E+01 -0.12114268603E+03  0.12442874320E+03  0.00000000000E+00 0. -1.
</event>
<event>
 6    1  0.6981059E-006  0.1138318E+03  0.7561462E-02  0.1253634E+00
          2   -1    0    0  501    0  0.00000000000E+00  0.00000000000E+00  0.20272948826E+02  0.20272948826E+02  0.00000000000E+00 0. -1.
         -2   -1    0    0    0  501 -0.00000000000E+00 -0.00000000000E+00 -0.76713361356E+03  0.76713361356E+03  0.00000000000E+00 0.  1.
          5    1    1    2  502    0 -0.23388220831E+02 -0.50459733771E+02 -0.11913322980E+03  0.13154235990E+03  0.41800000000E+01 0.  1.
         -5    1    1    2    0  502 -0.36658225531E+02  0.69090224570E+02 -0.31578458526E+03  0.32535313325E+03  0.41800000000E+01 0.  1.
        -11    1    1    2    0    0 -0.95434202980E+01 -0.21910227435E+02 -0.22575166882E+02  0.32875113642E+02  0.00000000000E+00 0. -1.
         11    1    1    2    0    0  0.69589866659E+02  0.32797366363E+01 -0.28936768279E+03  0.29763595559E+03  0.00000000000E+00 0.  1.
</event>
<event>
 6    1  0.6981059E-006  0.8043684E+02  0.7561462E-02  0.1327816E+00
         -2   -1    0    0    0  501 -0.00000000000E+00  0.00000000000E+00  0.51934288987E+02  0.51934288987E+02  0.00000000000E+00 0. -1.
          2   -1    0    0  501    0  0.00000000000E+00 -0.00000000000E+00 -0.59565952104E+03  0.59565952104E+03  0.00000000000E+00 0.  1.
          5    1    1    2  502    0  0.31755289341E+02  0.53406068893E+00 -0.94488399841E+02  0.99770805983E+02  0.41800000000E+01 0. -1.
         -5    1    1    2    0  502  0.21500356116E+02 -0.11497846963E+02  0.40063945817E+02  0.47085644865E+02  0.41800000000E+01 0. -1.
        -11    1    1    2    0    0  0.37087812299E+01  0.39995325395E+02 -0.14066222384E+03  0.14628479869E+03  0.00000000000E+00 0.  1.
         11    1    1    2    0    0 -0.56964426687E+02 -0.29031539120E+02 -0.34863855419E+03  0.35445256049E+03  0.00000000000E+00 0. -1.
</event>
<event>
 6    1  0.6981059E-006  0.1214222E+03  0.7561462E-02  0.1240769E+00
         -2   -1    0    0    0  501 -0.00000000000E+00  0.00000000000E+00  0.71657223959E+02  0.71657223959E+02  0.00000000000E+00 0. -1.
          2   -1    0    0  501    0  0.00000000000E+00 -0.00000000000E+00 -0.27784643010E+03  0.27784643010E+03  0.00000000000E+00 0.  1.
          5    1    1    2  502    0  0.21407846220E+02  0.82778274360E+02 -0.52136355376E+02  0.10023078638E+03  0.41800000000E+01 0. -1.
         -5    1    1    2    0  502 -0.45626096694E+02 -0.16389533463E+02  0.96156405423E+01  0.49601315000E+02  0.41800000000E+01 0. -1.
        -11    1    1    2    0    0  0.53927070666E+02 -0.30372445295E+02 -0.61067948123E+02  0.86947735288E+02  0.00000000000E+00 0.  1.
         11    1    1    2    0    0 -0.29708820192E+02 -0.36016295601E+02 -0.10260054319E+03  0.11272381740E+03  0.00000000000E+00 0. -1.
</event>
<event>
 6    1  0.6981059E-006  0.1270252E+03  0.7561462E-02  0.1231938E+00
          2   -1    0    0  501    0  0.00000000000E+00  0.00000000000E+00  0.46355290324E+02  0.46355290324E+02  0.00000000000E+00 0. -1.
         -2   -1    0    0    0  501 -0.00000000000E+00 -0.00000000000E+00 -0.53276039315E+03  0.53276039315E+03  0.00000000000E+00 0.  1.
          5    1    1    2  502    0 -0.65246710543E+02 -0.43604858521E+02 -0.62658499723E+02  0.10050908870E+03  0.41800000000E+01 0.  1.
         -5    1    1    2    0  502 -0.91120753899E+01 -0.35813424717E+02 -0.25606469089E+03  0.25875128913E+03  0.41800000000E+01 0.  1.
        -11    1    1    2    0    0  0.16449023655E+02  0.78656482212E+02 -0.71392974797E+02  0.10749125278E+03  0.00000000000E+00 0. -1.
         11    1    1    2    0    0  0.57909762278E+02  0.76180102635E+00 -0.96288937419E+02  0.11236405287E+03  0.00000000000E+00 0.  1.
</event>
<event>
 6    1  0.6981059E-006  0.1151821E+03  0.7561462E-02  0.1251264E+00
         -1   -1    0    0    0  501 -0.00000000000E+00  0.00000000000E+00  0.17464832444E+03  0.17464832444E+03  0.00000000000E+00 0.  1.
          1   -1    0    0  501    0  0.00000000000E+00 -0.00000000000E+00 -0.97885545802E+02  0.97885545802E+02  0.00000000000E+00 0. -1.
          5    1    1    2  502    0  0.51125596575E+02  0.65160053076E+02  0.88511166857E+02  0.12129038791E+03  0.41800000000E+01 0. -1.
         -5    1    1    2    0  502 -0.93919169051E+00 -0.43711511225E+02  0.51183156257E+01  0.44218184602E+02  0.41800000000E+01 0. -1.
        -11    1    1    2    0    0 -0.13385921966E+02 -0.53231822591E+02 -0.19699880119E+02  0.58317194033E+02  0.00000000000E+00 0. -1.
         11    1    1    2    0    0 -0.36800482918E+02  0.31783280741E+02  0.28331762759E+01  0.48708103694E+02  0.00000000000E+00 0.  1.
</event>
<event>
 6    1  0.6981059E-006  0.1339214E+03  0.7561462E-02  0.1221750E+00
          4   -1    0    0  501    0  0.00000000000E+00  0.00000000000E+00  0.42617393653E+03  0.42617393653E+03  0.00000000000E+00 0. -1.
         -4   -1    0    0    0  501 -0.00000000000E+00 -0.00000000000E+00 -0.81531204197E+02  0.81531204197E+02  0.00000000000E+00 0.  1.
          5    1    1    2  502    0 -0.59947419527E+02  0.42127146611E+02 -0.21804601529E+02  0.76559144701E+02  0.41800000000E+01 0.  1.
         -5    1    1    2    0  502  0.41468559458E+02  0.57307729618E+02  0.50078360720E+02  0.86770570529E+02  0.41800000000E+01 0.  1.
        -11    1    1    2    0    0 -0.82507837683E+01 -0.96331338917E+02  0.29365333106E+03  0.30916028388E+03  0.00000000000E+00 0. -1.
         11    1    1    2    0    0  0.26729643837E+02 -0.31035373122E+01  0.22715642086E+02  0.35215141614E+02  0.00000000000E+00 0.  1.
</event>
<event>
 6    1  0.6981059E-006  0.8195838E+02  0.7561462E-02  0.1323584E+00
         -2   -1    0    0    0  501 -0.00000000000E+00  0.00000000000E+00  0.21852572092E+03  0.21852572092E+03  0.00000000000E+00 0.  1.
          2   -1    0    0  501    0  0.00000000000E+00 -0.00000000000E+00 -0.54252786992E+02  0.54252786992E+02  0.00000000000E+00 0. -1.
          5    1    1    2  502    0 -0.38479867378E+02  0.22868008350E+02  0.10745158677E+03  0.11647730208E+03  0.41800000000E+01 0. -1.
         -5    1    1    2    0  502  0.32210088026E+02 -0.29418663190E+02 -0.67834617284E+01  0.44344506622E+02  0.41800000000E+01 0. -1.
        -11    1    1    2    0    0 -0.32879129265E+02  0.13195992847E+02  0.62958815412E+02  0.72242534607E+02  0.00000000000E+00 0.  1.
         11    1    1    2    0    0  0.39148908616E+02 -0.66453380077E+01  0.64599347716E+00  0.39714164610E+02  0.00000000000E+00 0. -1.
</event>
<event>
 6    1  0.6981059E-006  0.2521987E+03  0.7561462E-02  0.1111923E+00
         -1   -1    0    0    0  501 -0.00000000000E+00  0.00000000000E+00  0.97507733244E+03  0.97507733244E+03  0.00000000000E+00 0.  1.
          1   -1    0    0  501    0  0.00000000000E+00 -0.00000000000E+00 -0.72320055400E+02  0.72320055400E+02  0.00000000000E+00 0. -1.
          5    1    1    2  502    0  0.77155589282E+02 -0.12758691061E+02  0.29354604755E+03  0.30381330384E+03  0.41800000000E+01 0. -1.
         -5    1    1    2    0  502  0.13132870818E+03 -0.10690226039E+03  0.22926224898E+03  0.28505082718E+03  0.41800000000E+01 0. -1.
        -11    1    1    2    0    0 -0.13753098720E+03  0.27283094870E+02  0.20710913051E+03  0.25010664055E+03  0.00000000000E+00 0. -1.
         11    1    1    2    0    0 -0.70953310258E+02  0.92377856581E+02  0.17283984999E+03  0.20842661627E+03  0.00000000000E+00 0.  1.
</event>
<event>
 6    1  0.6981059E-006  0.8236791E+02  0.7561462E-02  0.1322463E+00
         -2   -1    0    0    0  501 -0.00000000000E+00  0.00000000000E+00  0.27248111086E+03  0.27248111086E+03  0.00000000000E+00 0. -1.
          2   -1    0    0  501    0  0.00000000000E+00 -0.00000000000E+00 -0.59597950989E+02  0.59597950989E+02  0.00000000000E+00 0.  1.
          5    1    1    2  502    0  0.21228784692E+02 -0.39161196558E+02  0.18828720903E+03  0.19352985842E+03  0.41800000000E+01 0. -1.
         -5    1    1    2    0  502 -0.24252414596E+01  0.42431271145E+02  0.13765630147E+02  0.44869360820E+02  0.41800000000E+01 0. -1.
        -11    1    1    2    0    0 -0.21962107560E+02  0.33678236023E+02  0.31634578570E+02  0.51159596475E+02  0.00000000000E+00 0. -1.
         11    1    1    2    0    0  0.31585643276E+01 -0.36948310610E+02 -0.20804257877E+02  0.42520246135E+02  0.00000000000E+00 0.  1.
</event>
<event>
 6    1  0.6981059E-006  0.1159018E+03  0.7561462E-02  0.1250015E+00
          2   -1    0    0  501    0  0.00000000000E+00  0.00000000000E+00  0.36014638352E+03  0.36014638352E+03  0.00000000000E+00 0. -1.
         -2   -1    0    0    0  501 -0.00000000000E+00 -0.00000000000E+00 -0.49943769797E+02  0.49943769797E+02  0.00000000000E+00 0.  1.
          5    1    1    2  502    0  0.60791266350E+02 -0.49924011631E+02  0.14977509047E+03  0.16922776110E+03  0.41800000000E+01 0. -1.
         -5    1    1    2    0  502 -0.36767091494E+02 -0.23644663079E+02  0.48362573855E+01  0.44178624860E+02  0.41800000000E+01 0. -1.
        -11    1    1    2    0    0  0.19803581620E+02 -0.38290579718E+01  0.71462385010E+02  0.74254400551E+02  0.00000000000E+00 0. -1.
         11    1    1    2    0    0 -0.43827756476E+02  0.77397732682E+02  0.84128880857E+02  0.12242936681E+03  0.00000000000E+00 0.  1.
</event>
<event>
 6    1  0.6981059E-006  0.8035784E+02  0.7561462E-02  0.1328039E+00
         -1   -1    0    0    0  501 -0.00000000000E+00  0.00000000000E+00  0.28122717392E+03  0.28122717392E+03  0.00000000000E+00 0.  1.
          1   -1    0    0  501    0  0.00000000000E+00 -0.00000000000E+00 -0.46584641979E+02  0.46584641979E+02  0.00000000000E+00 0. -1.
          5    1    1    2  502    0 -0.75757964618E+02  0.13949357521E+02  0.62081742609E+02  0.99022567851E+02  0.41800000000E+01 0. -1.
         -5    1    1    2    0  502  0.41572704600E+02 -0.21471758255E+02  0.85703495969E+02  0.97733759733E+02  0.41800000000E+01 0. -1.
        -11    1    1    2    0    0  0.22938831724E+02 -0.22095751247E+00  0.10548990684E+03  0.10795535776E+03  0.00000000000E+00 0.  1.
         11    1    1    2    0    0  0.11246428294E+02  0.77433582461E+01 -0.18632613484E+02  0.23100130553E+02  0.00000000000E+00 0. -1.
</event>
<event>
 6    1  0.6981059E-006  0.7410443E+02  0.7561462E-02  0.1346667E+00
         -2   -1    0    0    0  501 -0.00000000000E+00  0.00000000000E+00  0.64337616756E+02  0.64337616756E+02  0.00000000000E+00 0.  1.
          2   -1    0    0  501    0  0.00000000000E+00 -0.00000000000E+00 -0.18537235965E+03  0.18537235965E+03  0.00000000000E+00 0. -1.
          5    1    1    2  502    0  0.37991387119E+02 -0.18976065443E+02 -0.97707923038E+02  0.10661963787E+03  0.41800000000E+01 0.  1.
         -5    1    1    2    0  502 -0.20814474629E+02  0.19759652151E+02  0.25688070839E+02  0.38743200573E+02  0.41800000000E+01 0.  1.
        -11    1    1    2    0    0  0.27313371344E+02  0.12592527502E+02 -0.49460716184E+02  0.57887429106E+02  0.00000000000E+00 0. -1.
         11    1    1    2    0    0 -0.44490283835E+02 -0.13376114211E+02  0.44582548722E+00  0.46459708861E+02  0.00000000000E+00 0.  1.
</event>
<event>
 6    1  0.6981059E-006  0.1337516E+03  0.7561462E-02  0.1221993E+00
          2   -1    0    0  501    0  0.00000000000E+00  0.00000000000E+00  0.16336935465E+03  0.16336935465E+03  0.00000000000E+00 0. -1.
         -2   -1    0    0    0  501 -0.00000000000E+00 -0.00000000000E+00 -0.12089863077E+03  0.12089863077E+03  0.00000000000E+00 0.  1.
          5    1    1    2  502    0 -0.10567996693E+03  0.16888642384E+02  0.15110311456E+02  0.10816318950E+03  0.41800000000E+01 0. -1.
         -5    1    1    2    0  502  0.30378252611E+02  0.19269505211E+02 -0.22082255627E+02  0.42417572731E+02  0.41800000000E+01 0. -1.
        -11    1    1    2    0    0  0.24497287046E+02 -0.62375897864E+02  0.25373654190E+02  0.71656765444E+02  0.00000000000E+00 0.  1.
         11    1    1    2    0    0  0.50804427270E+02  0.26217750269E+02  0.24069013857E+02  0.62030457740E+02  0.00000000000E+00 0. -1.
</event>
<event>
 6    1  0.6981059E-006  0.1551221E+03  0.7561462E-02  0.1194317E+00
          3   -1    0    0  501    0  0.00000000000E+00  0.00000000000E+00  0.59458253395E+02  0.59458253395E+02  0.00000000000E+00 0. -1.
         -3   -1    0    0    0  501 -0.00000000000E+00 -0.00000000000E+00 -0.55061603008E+03  0.55061603008E+03  0.00000000000E+00 0.  1.
          5    1    1    2  502    0  0.72038437633E+02 -0.11506669601E+02 -0.18838096779E+03  0.20205643114E+03  0.41800000000E+01 0.  1.
         -5    1    1    2    0  502 -0.27920519882E+01 -0.10310511988E+03 -0.13930167614E+03  0.17338076789E+03  0.41800000000E+01 0.  1.
        -11    1    1    2    0    0 -0.90558128678E+01  0.17184968425E+02  0.13631215675E+02  0.23730590538E+02  0.00000000000E+00 0. -1.
         11    1    1    2    0    0 -0.60190572777E+02  0.97426821060E+02 -0.17710634843E+03  0.21090649390E+03  0.00000000000E+00 0.  1.
</event>
<event>
 6    1  0.6981059E-006  0.9371732E+02  0.7561462E-02  0.1294091E+00
          1   -1    0    0  501    0  0.00000000000E+00  0.00000000000E+00  0.11489358027E+03  0.11489358027E+03  0.00000000000E+00 0. -1.
         -1   -1    0    0    0  501 -0.00000000000E+00 -0.00000000000E+00 -0.15862222120E+03  0.15862222120E+03  0.00000000000E+00 0.  1.
          5    1    1    2  502    0 -0.55300371712E+02 -0.37942156161E+02  0.24560909770E+02  0.71543336618E+02  0.41800000000E+01 0.  1.
         -5    1    1    2    0  502  0.94897211611E+01 -0.20518233976E+02 -0.81487287107E+02  0.84668194107E+02  0.41800000000E+01 0.  1.
        -11    1    1    2    0    0  0.57737539685E+02  0.62086053561E+02 -0.15342071705E+02  0.86160784002E+02  0.00000000000E+00 0.  1.
         11    1    1    2    0    0 -0.11926889134E+02 -0.36256634245E+01  0.28539808114E+02  0.31143486748E+02  0.00000000000E+00 0. -1.
</event>
<event>
 6    1  0.6981059E-006  0.1053356E+03  0.7561462E-02  0.1269460E+00
         -2   -1    0    0    0  501 -0.00000000000E+00  0.00000000000E+00  0.76621877608E+02  0.76621877608E+02  0.00000000000E+00 0.  1.
          2   -1    0    0  501    0  0.00000000000E+00 -0.00000000000E+00 -0.18745288104E+03  0.18745288104E+03  0.00000000000E+00 0. -1.
          5    1    1    2  502    0  0.50202007255E+02 -0.18824261753E+02 -0.16243836313E+02  0.56177655533E+02  0.41800000000E+01 0.  1.
         -5    1    1    2    0  502 -0.71943457642E+02  0.29607512590E+01  0.48108229804E+01  0.72285846216E+02  0.41800000000E+01 0.  1.
        -11    1    1    2    0    0  0.70483751465E+01 -0.32999228983E+02 -0.67424761423E+02  0.75397129644E+02  0.00000000000E+00 0. -1.
         11    1    1    2    0    0  0.14693075240E+02  0.48862739477E+02 -0.31973228680E+02  0.60214127258E+02  0.00000000000E+00 0.  1.
</event>
<event>
 6    1  0.6981059E-006  0.3335288E+03  0.7561462E-02  0.1069586E+00
          2   -1    0    0  501    0  0.00000000000E+00  0.00000000000E+00  0.87931248048E+03  0.87931248048E+03  0.00000000000E+00 0. -1.
         -2   -1    0    0    0  501 -0.00000000000E+00 -0.00000000000E+00 -0.32826398991E+03  0.32826398991E+03  0.00000000000E+00 0.  1.
          5    1    1    2  502    0 -0.15704286740E+03  0.42954455618E+02 -0.35855365589E+02  0.16676518551E+03  0.41800000000E+01 0. -1.
         -5    1    1    2    0  502 -0.16661684486E+03 -0.35799283263E+02 -0.15241802053E+03  0.22867331951E+03  0.41800000000E+01 0.  1.
        -11    1    1    2    0    0  0.27133648189E+03 -0.36421585578E+02  0.56585294930E+03  0.62860128741E+03  0.00000000000E+00 0. -1.
         11    1    1    2    0    0  0.52323230374E+02  0.29266413224E+02  0.17346892740E+03  0.18353667795E+03  0.00000000000E+00 0.  1.
</event>
<event>
 6    1  0.6981059E-006  0.1150304E+03  0.7561462E-02  0.1251528E+00
         -2   -1    0    0    0  501 -0.00000000000E+00  0.00000000000E+00  0.19183730338E+02  0.19183730338E+02  0.00000000000E+00 0. -1.
          2   -1    0    0  501    0  0.00000000000E+00 -0.00000000000E+00 -0.70255882393E+03  0.70255882393E+03  0.00000000000E+00 0.  1.
          5    1    1    2  502    0 -0.32037329870E+02  0.39318615369E+02 -0.12973344872E+03  0.13935775592E+03  0.41800000000E+01 0.  1.
         -5    1    1    2    0  502  0.16971180872E+02 -0.78528071170E+02 -0.24991290037E+03  0.26254258534E+03  0.41800000000E+01 0.  1.
        -11    1    1    2    0    0  0.36601471300E+02 -0.15634096672E+02 -0.15055677462E+03  0.15572872267E+03  0.00000000000E+00 0.  1.
         11    1    1    2    0    0 -0.21535322302E+02  0.54843552474E+02 -0.15317196989E+03  0.16411349035E+03  0.00000000000E+00 0. -1.
</event>
<event>
 6    1  0.6981059E-006  0.1137524E+03  0.7561462E-02  0.1253775E+00
          4   -1    0    0  501    0  0.00000000000E+00  0.00000000000E+00  0.21914291911E+03  0.21914291911E+03  0.00000000000E+00 0. -1.
         -4   -1    0    0    0  501 -0.00000000000E+00 -0.00000000000E+00 -0.72578845295E+02  0.72578845295E+02  0.00000000000E+00 0.  1.
          5    1    1    2  502    0  0.12937537114E+01  0.74850065524E+02 -0.53333833180E+01  0.75167303299E+02  0.41800000000E+01 0.  1.
         -5    1    1    2    0  502 -0.34004477028E+02 -0.37343363211E+02  0.38063279207E+02  0.63380729389E+02  0.41800000000E+01 0.  1.
        -11    1    1    2    0    0  0.31624393554E+02 -0.66078395951E+02  0.89260169171E+02  0.11547222384E+03  0.00000000000E+00 0.  1.
         11    1    1    2    0    0  0.10863297618E+01  0.28571693638E+02  0.24574008757E+02  0.37701507875E+02  0.00000000000E+00 0. -1.
</event>
<event>
 6    1  0.6981059E-006  0.7635133E+02  0.7561462E-02  0.1339737E+00
         -1   -1    0    0    0  501 -0.00000000000E+00  0.00000000000E+00  0.18656635809E+03  0.18656635809E+03  0.00000000000E+00 0.  1.
          1   -1    0    0  501    0  0.00000000000E+00 -0.00000000000E+00 -0.83992515143E+02  0.83992515143E+02  0.00000000000E+00 0. -1.
          5    1    1    2  502    0 -0.15187920055E+02  0.10731678567E+01 -0.33210070792E+02  0.36772351120E+02  0.41800000000E+01 0. -1.
         -5    1    1    2    0  502  0.26585971187E+02 -0.62362976577E+02  0.93195292066E+02  0.11532037797E+03  0.41800000000E+01 0. -1.
        -11    1    1    2    0    0  0.85847417711E+01  0.34603994140E+02 -0.24698931107E+02  0.43372472832E+02  0.00000000000E+00 0. -1.
         11    1    1    2    0    0 -0.19982792903E+02  0.26685814580E+02  0.67287552777E+02  0.75093671309E+02  0.00000000000E+00 0.  1.
</event>
<event>
 6    1  0.6981059E-006  0.1263668E+03  0.7561462E-02  0.1232948E+00
         -1   -1    0    0    0  501 -0.00000000000E+00  0.00000000000E+00  0.28732259288E+02  0.28732259288E+02  0.00000000000E+00 0. -1.
          1   -1    0    0  501    0  0.00000000000E+00 -0.00000000000E+00 -0.74063371676E+03  0.74063371676E+03  0.00000000000E+00 0.  1.
          5    1    1    2  502    0 -0.62494687618E+00  0.38231501210E+02 -0.71165547336E+02  0.80895276568E+02  0.41800000000E+01 0.  1.
         -5    1    1    2    0  502 -0.87014976735E+02 -0.74720841766E+02 -0.36957703758E+03  0.38698768647E+03  0.41800000000E+01 0.  1.
        -11    1    1    2    0    0  0.32134430642E+02  0.29378010255E+02 -0.22432570027E+03  0.22851194481E+03  0.00000000000E+00 0.  1.
         11    1    1    2    0    0  0.55505492969E+02  0.71113303009E+01 -0.46833172284E+02  0.72971068202E+02  0.00000000000E+00 0. -1.
</event>
<event>
 6    1  0.6981059E-006  0.1068098E+03  0.7561462E-02  0.1266594E+00
          1   -1    0    0  501    0  0.00000000000E+00  0.00000000000E+00  0.25964485643E+03  0.25964485643E+03  0.00000000000E+00 0. -1.
         -1   -1    0    0    0  501 -0.00000000000E+00 -0.00000000000E+00 -0.78073266061E+02  0.78073266061E+02  0.00000000000E+00 0.  1.
          5    1    1    2  502    0 -0.40923934659E+01 -0.13699247515E+02  0.57418375903E+02  0.59319131468E+02  0.41800000000E+01 0. -1.
         -5    1    1    2    0  502  0.34168282489E+02  0.87392382276E+02 -0.14484730945E+02  0.95037781112E+02  0.41800000000E+01 0. -1.
        -11    1    1    2    0    0  0.16317654003E+01 -0.73064148546E+02  0.13211792205E+03  0.15098403157E+03  0.00000000000E+00 0. -1.
         11    1    1    2    0    0 -0.31707654424E+02 -0.62898621491E+00  0.65200233538E+01  0.32377178340E+02  0.00000000000E+00 0.  1.
</event>
<event>
 6    1  0.6981059E-006  0.1683181E+03  0.7561462E-02  0.1179613E+00
          1   -1    0    0  501    0  0.00000000000E+00  0.00000000000E+00  0.62655072639E+03  0.62655072639E+03  0.00000000000E+00 0. -1.
         -1   -1    0    0    0  501 -0.00000000000E+00 -0.00000000000E+00 -0.10677860406E+03  0.10677860406E+03  0.00000000000E+00 0.  1.
          5    1    1    2  502    0 -0.18441517597E+02  0.66772927984E+02  0.15258929445E+02  0.71056462132E+02  0.41800000000E+01 0. -1.
         -5    1    1    2    0  502  0.11213672157E+03  0.44909675224E+02 -0.83922213576E+01  0.12115867709E+03  0.41800000000E+01 0. -1.
        -11    1    1    2    0    0 -0.13667723794E+02 -0.24290073370E+02  0.20362473218E+02  0.34517309478E+02  0.00000000000E+00 0.  1.
         11    1    1    2    0    0 -0.80027480182E+02 -0.87392529838E+02  0.49254294102E+03  0.50659688175E+03  0.00000000000E+00 0. -1.
</event>
<event>
 6    1  0.6981059E-006  0.1425142E+03  0.7561462E-02  0.1209985E+00
          2   -1    0    0  501    0  0.00000000000E+00  0.00000000000E+00  0.10415904780E+04  0.10415904780E+04  0.00000000000E+00 0.  1.
         -2   -1    0    0    0  501 -0.00000000000E+00 -0.00000000000E+00 -0.20310689813E+02  0.20310689813E+02  0.00000000000E+00 0. -1.
          5    1    1    2  502    0  0.55533962848E+02  0.27240906469E+02  0.19524817621E+03  0.20485460876E+03  0.41800000000E+01 0. -1.
         -5    1    1    2    0  502  0.91930530734E+01 -0.92568686597E+02  0.26728474842E+03  0.28304077992E+03  0.41800000000E+01 0. -1.
        -11    1    1    2    0    0 -0.67174345334E+02  0.26896267457E+01  0.24490231870E+03  0.25396214771E+03  0.00000000000E+00 0.  1.
         11    1    1    2    0    0  0.24473294133E+01  0.62638153382E+02  0.31384454489E+03  0.32004363146E+03  0.00000000000E+00 0. -1.
</event>
<event>
 6    1  0.6981059E-006  0.7982412E+02  0.7561462E-02  0.1329551E+00
          1   -1    0    0  501    0  0.00000000000E+00  0.00000000000E+00  0.31491594789E+02  0.31491594789E+02  0.00000000000E+00 0. -1.
         -1   -1    0    0    0  501 -0.00000000000E+00 -0.00000000000E+00 -0.45872246282E+03  0.45872246282E+03  0.00000000000E+00 0.  1.
          5    1    1    2  502    0  0.44145939802E+02  0.26020090546E+02 -0.29643292746E+03  0.30085854151E+03  0.41800000000E+01 0.  1.
         -5    1    1    2    0  502 -0.64120193512E+01  0.18619714367E+01  0.11442630636E+02  0.13891980624E+02  0.41800000000E+01 0.  1.
        -11    1    1    2    0    0  0.28215192595E+02  0.12884332432E+01 -0.58436368258E+02  0.64904285595E+02  0.00000000000E+00 0.  1.
         11    1    1    2    0    0 -0.65949113046E+02 -0.29170495226E+02 -0.83804202938E+02  0.11055924988E+03  0.00000000000E+00 0. -1.
</event>
<event>
 6    1  0.6981059E-006  0.1709278E+03  0.7561462E-02  0.1176884E+00
         -1   -1    0    0    0  501 -0.00000000000E+00  0.00000000000E+00  0.47134651302E+02  0.47134651302E+02  0.00000000000E+00 0.  1.
          1   -1    0    0  501    0  0.00000000000E+00 -0.00000000000E+00 -0.66296026334E+03  0.66296026334E+03  0.00000000000E+00 0. -1.
          5    1    1    2  502    0  0.32981793258E+02  0.11900854208E+03 -0.27716039411E+03  0.30345706160E+03  0.41800000000E+01 0.  1.
         -5    1    1    2    0  502 -0.56946404857E+02  0.17691192643E+02 -0.83057973773E+02  0.10233264743E+03  0.41800000000E+01 0.  1.
        -11    1    1    2    0    0 -0.17621769617E+02 -0.10434624629E+03 -0.12692125705E+03  0.16525032941E+03  0.00000000000E+00 0.  1.
         11    1    1    2    0    0  0.41586381216E+02 -0.32353488425E+02 -0.12868598712E+03  0.13905487620E+03  0.00000000000E+00 0. -1.
</event>
<event>
 6    1  0.6981059E-006  0.1217930E+03  0.7561462E-02  0.1240168E+00
         -3   -1    0    0    0  501 -0.00000000000E+00  0.00000000000E+00  0.10320821940E+03  0.10320821940E+03  0.00000000000E+00 0.  1.
          3   -1    0    0  501    0  0.00000000000E+00 -0.00000000000E+00 -0.18013342534E+03  0.18013342534E+03  0.00000000000E+00 0. -1.
          5    1    1    2  502    0  0.92748708768E+02  0.17938235051E+02 -0.35096880195E+02  0.10086310849E+03  0.41800000000E+01 0. -1.
         -5    1    1    2    0  502 -0.22577225074E+02 -0.25798738578E+02  0.31276833855E+02  0.46594192130E+02  0.41800000000E+01 0.  1.
        -11    1    1    2    0    0 -0.26719179947E+02  0.48256892515E+02 -0.33139933512E+02  0.64349805326E+02  0.00000000000E+00 0. -1.
         11    1    1    2    0    0 -0.43452303746E+02 -0.40396388988E+02 -0.39965226094E+02  0.71534538797E+02  0.00000000000E+00 0.  1.
</event>
<event>
 6    1  0.6981059E-006  0.1321221E+03  0.7561462E-02  0.1224340E+00
         -4   -1    0    0    0  501 -0.00000000000E+00  0.00000000000E+00  0.54791234028E+02  0.54791234028E+02  0.00000000000E+00 0.  1.
          4   -1    0    0  501    0  0.00000000000E+00 -0.00000000000E+00 -0.46617014397E+03  0.46617014397E+03  0.00000000000E+00 0. -1.
          5    1    1    2  502    0  0.11206244213E+03  0.18086848673E+01 -0.60889489145E+02  0.12761764990E+03  0.41800000000E+01 0.  1.
         -5    1    1    2    0  502  0.15677106094E+01 -0.71646902346E+01 -0.11878821096E+03  0.11908779100E+03  0.41800000000E+01 0.  1.
        -11    1    1    2    0    0 -0.15275948036E+02  0.37242429262E+02 -0.41793053472E+02  0.58025963535E+02  0.00000000000E+00 0.  1.
         11    1    1    2    0    0 -0.98354204706E+02 -0.31886423894E+02 -0.18990815637E+03  0.21622997356E+03  0.00000000000E+00 0. -1.
</event>
<event>
 6    1  0.6981059E-006  0.1549894E+03  0.7561462E-02  0.1194473E+00
          2   -1    0    0  501    0  0.00000000000E+00  0.00000000000E+00  0.51523170667E+03  0.51523170667E+03  0.00000000000E+00 0. -1.
         -2   -1    0    0    0  501 -0.00000000000E+00 -0.00000000000E+00 -0.60425801037E+02  0.60425801037E+02  0.00000000000E+00 0.  1.
          5    1    1    2  502    0  0.27789082138E+02 -0.44196126214E+01  0.20038919022E+02  0.34796504672E+02  0.41800000000E+01 0. -1.
         -5    1    1    2    0  502 -0.13046635028E+03  0.48055839102E+02  0.84773341350E+02  0.16289513201E+03  0.41800000000E+01 0. -1.
        -11    1    1    2    0    0  0.75033785771E+02 -0.71169585724E+02  0.26408756088E+03  0.28361491278E+03  0.00000000000E+00 0.  1.
         11    1    1    2    0    0  0.27643482373E+02  0.27533359243E+02  0.85906084386E+02  0.94350958254E+02  0.00000000000E+00 0. -1.
</event>
<event>
 6    1  0.6981059E-006  0.1142626E+03  0.7561462E-02  0.1252874E+00
         -1   -1    0    0    0  501 -0.00000000000E+00  0.00000000000E+00  0.17816151895E+03  0.17816151895E+03  0.00000000000E+00 0.  1.
          1   -1    0    0  501    0  0.00000000000E+00 -0.00000000000E+00 -0.81279534952E+02  0.81279534952E+02  0.00000000000E+00 0. -1.
          5    1    1    2  502    0 -0.57865493799E+02 -0.42736442071E+02  0.30884463316E+02  0.78397329851E+02  0.41800000000E+01 0. -1.
         -5    1    1    2    0  502  0.62719162638E+02 -0.10301485334E+02  0.35065044219E+02  0.72710684829E+02  0.41800000000E+01 0. -1.
        -11    1    1    2    0    0  0.33767169541E+02  0.39217201836E+02  0.41083710006E+02  0.66076333785E+02  0.00000000000E+00 0.  1.
         11    1    1    2    0    0 -0.38620838380E+02  0.13820725570E+02 -0.10151233538E+02  0.42256705442E+02  0.00000000000E+00 0. -1.
</event>
<event>
 6    1  0.6981059E-006  0.1461088E+03  0.7561462E-02  0.1205338E+00
         -3   -1    0    0    0  501 -0.00000000000E+00  0.00000000000E+00  0.99541771135E+02  0.99541771135E+02  0.00000000000E+00 0.  1.
          3   -1    0    0  501    0  0.00000000000E+00 -0.00000000000E+00 -0.24850539080E+03  0.24850539080E+03  0.00000000000E+00 0. -1.
          5    1    1    2  502    0 -0.99819976244E+02 -0.15371959897E+02 -0.60737000561E+02  0.11792701321E+03  0.41800000000E+01 0.  1.
         -5    1    1    2    0  502 -0.31912077308E+01  0.53865397747E+02  0.12354460184E+02  0.55513691713E+02  0.41800000000E+01 0.  1.
        -11    1    1    2    0    0  0.84773961257E+02 -0.63601803600E+02 -0.54830077986E+02  0.11932372514E+03  0.00000000000E+00 0.  1.
         11    1    1    2    0    0  0.18237222718E+02  0.25108365751E+02 -0.45751001305E+02  0.55282731875E+02  0.00000000000E+00 0. -1.
</event>
<event>
 6    1  0.6981059E-006  0.1220156E+03  0.7561462E-02  0.1239808E+00
          1   -1    0    0  501    0  0.00000000000E+00  0.00000000000E+00  0.45888277254E+03  0.45888277254E+03  0.00000000000E+00 0. -1.
         -1   -1    0    0    0  501 -0.00000000000E+00 -0.00000000000E+00 -0.38692455580E+02  0.38692455580E+02  0.00000000000E+00 0.  1.
          5    1    1    2  502    0 -0.34162239878E+02  0.90230063731E+02  0.20004927293E+03  0.22213893633E+03  0.41800000000E+01 0. -1.
         -5    1    1    2    0  502  0.11121193122E+02 -0.27235311601E+02  0.13727494085E+02  0.32731630395E+02  0.41800000000E+01 0.  1.
        -11    1    1    2    0    0  0.87246390576E+01 -0.88268858790E+02  0.18915039470E+03  0.20891477347E+03  0.00000000000E+00 0.  1.
         11    1    1    2    0    0  0.14316407698E+02  0.25274106659E+02  0.17263155241E+02  0.33789887920E+02  0.00000000000E+00 0. -1.
</event>
<event>
 6    1  0.6981059E-006  0.9860618E+02  0.7561462E-02  0.1283255E+00
         -1   -1    0    0    0  501 -0.00000000000E+00  0.00000000000E+00  0.87913580262E+02  0.87913580262E+02  0.00000000000E+00 0.  1.
          1   -1    0    0  501    0  0.00000000000E+00 -0.00000000000E+00 -0.15991082367E+03  0.15991082367E+03  0.00000000000E+00 0. -1.
          5    1    1    2  502    0  0.67583087841E+01 -0.52537258450E+02  0.35098111133E+02  0.63680358575E+02  0.41800000000E+01 0.  1.
         -5    1    1    2    0  502 -0.23820727786E+02  0.50110321091E+02 -0.28943131580E+02  0.62718805934E+02  0.41800000000E+01 0.  1.
        -11    1    1    2    0    0 -0.18928474996E+02 -0.32930812199E+02 -0.15600636732E+02  0.41062214069E+02  0.00000000000E+00 0.  1.
         11    1    1    2    0    0  0.35990893998E+02  0.35357749558E+02 -0.62551586232E+02  0.80363025358E+02  0.00000000000E+00 0. -1.
</event>
<event>
 6    1  0.6981059E-006  0.1498900E+03  0.7561462E-02  0.1200608E+00
         -1   -1    0    0    0  501 -0.00000000000E+00  0.00000000000E+00  0.90046772560E+02  0.90046772560E+02  0.00000000000E+00 0.  1.
          1   -1    0    0  501    0  0.00000000000E+00 -0.00000000000E+00 -0.42497278770E+03  0.42497278770E+03  0.00000000000E+00 0. -1.
          5    1    1    2  502    0 -0.57017587364E+02  0.12635871215E+03 -0.43368213275E+02  0.14531277895E+03  0.41800000000E+01 0. -1.
         -5    1    1    2    0  502  0.35388662397E+02 -0.31014558303E+01  0.38844776582E+01  0.35979689009E+02  0.41800000000E+01 0. -1.
        -11    1    1    2    0    0  0.12519249102E+02 -0.88848003804E+02 -0.28157712161E+03  0.29552728265E+03  0.00000000000E+00 0. -1.
         11    1    1    2    0    0  0.91096758657E+01 -0.34409252515E+02 -0.13865157915E+02  0.38199809646E+02  0.00000000000E+00 0.  1.
</event>
<event>
 6    1  0.6981059E-006  0.1091315E+03  0.7561462E-02  0.1262187E+00
          2   -1    0    0  501    0  0.00000000000E+00  0.00000000000E+00  0.14448120213E+03  0.14448120213E+03  0.00000000000E+00 0. -1.
         -2   -1    0    0    0  501 -0.00000000000E+00 -0.00000000000E+00 -0.98187505040E+02  0.98187505040E+02  0.00000000000E+00 0.  1.
          5    1    1    2  502    0 -0.27607638546E+02 -0.62388462932E+02  0.24604354025E+02  0.72645362206E+02  0.41800000000E+01 0.  1.
         -5    1    1    2    0  502  0.57149344579E+02  0.24419584988E+02 -0.63652622972E+01  0.62612719802E+02  0.41800000000E+01 0.  1.
        -11    1    1    2    0    0  0.64259514169E+01  0.49451158855E+02  0.43925838094E+02  0.66454414571E+02  0.00000000000E+00 0. -1.
         11    1    1    2    0    0 -0.35967657451E+02 -0.11482280912E+02 -0.15871232733E+02  0.40956210590E+02  0.00000000000E+00 0.  1.
</event>
<event>
 6    1  0.6981059E-006  0.9160028E+02  0.7561462E-02  0.1299022E+00
          2   -1    0    0  501    0  0.00000000000E+00  0.00000000000E+00  0.13409110914E+03  0.13409110914E+03  0.00000000000E+00 0. -1.
         -2   -1    0    0    0  501 -0.00000000000E+00 -0.00000000000E+00 -0.13098989997E+03  0.13098989997E+03  0.00000000000E+00 0.  1.
          5    1    1    2  502    0  0.72958929309E+01 -0.62103504603E+02 -0.55277822158E+02  0.83565455543E+02  0.41800000000E+01 0.  1.
         -5    1    1    2    0  502  0.28472109087E+02 -0.56785856676E+01  0.55911728825E+02  0.63138745246E+02  0.41800000000E+01 0.  1.
        -11    1    1    2    0    0 -0.70636056923E+00  0.53233082616E+02  0.38764568939E+02  0.65855537619E+02  0.00000000000E+00 0. -1.
         11    1    1    2    0    0 -0.35061641448E+02  0.14549007654E+02 -0.36297266435E+02  0.52521270695E+02  0.00000000000E+00 0.  1.
</event>
<event>
 6    1  0.6981059E-006  0.1129751E+03  0.7561462E-02  0.1255158E+00
          2   -1    0    0  501    0  0.00000000000E+00  0.00000000000E+00  0.62284603291E+03  0.62284603291E+03  0.00000000000E+00 0.  1.
         -2   -1    0    0    0  501 -0.00000000000E+00 -0.00000000000E+00 -0.33309025934E+02  0.33309025934E+02  0.00000000000E+00 0. -1.
          5    1    1    2  502    0 -0.27518681052E+02  0.10780643246E+02 -0.46255129638E+01  0.30205427423E+02  0.41800000000E+01 0. -1.
         -5    1    1    2    0  502  0.26920638601E+02  0.69897531664E+02  0.21337490643E+03  0.22617848883E+03  0.41800000000E+01 0. -1.
        -11    1    1    2    0    0  0.14097007172E+02 -0.98063380365E+02  0.29436227962E+03  0.31058703103E+03  0.00000000000E+00 0.  1.
         11    1    1    2    0    0 -0.13498964721E+02  0.17385205455E+02  0.86425333901E+02  0.89184111573E+02  0.00000000000E+00 0. -1.
</event>
<event>
 6    1  0.6981059E-006  0.8082943E+02  0.7561462E-02  0.1326714E+00
         -2   -1    0    0    0  501 -0.00000000000E+00  0.00000000000E+00  0.17127201634E+02  0.17127201634E+02  0.00000000000E+00 0.  1.
          2   -1    0    0  501    0  0.00000000000E+00 -0.00000000000E+00 -0.68479511283E+03  0.68479511283E+03  0.00000000000E+00 0. -1.
          5    1    1    2  502    0  0.14957810238E+02 -0.32965362812E+02 -0.35539701380E+03  0.35726035472E+03  0.41800000000E+01 0.  1.
         -5    1    1    2    0  502 -0.31130252840E+02  0.19876364067E+02 -0.27923017275E+02  0.46490104153E+02  0.41800000000E+01 0.  1.
        -11    1    1    2    0    0 -0.23798355583E+01 -0.35736917460E+02 -0.14496056064E+03  0.14931964047E+03  0.00000000000E+00 0.  1.
         11    1    1    2    0    0  0.18552278160E+02  0.48825916205E+02 -0.13938731948E+03  0.14885221513E+03  0.00000000000E+00 0. -1.
</event>
<event>
 6    1  0.6981059E-006  0.1174110E+03  0.7561462E-02  0.1247430E+00
          2   -1    0    0  501    0  0.00000000000E+00  0.00000000000E+00  0.87465674705E+03  0.87465674705E+03  0.00000000000E+00 0. -1.
         -2   -1    0    0    0  501 -0.00000000000E+00 -0.00000000000E+00 -0.18214049707E+02  0.18214049707E+02  0.00000000000E+00 0.  1.
          5    1    1    2  502    0 -0.49533494831E+02  0.34340370698E+01  0.85446750971E+02  0.98913999880E+02  0.41800000000E+01 0.  1.
         -5    1    1    2    0  502  0.64432939369E+02  0.49891546953E+02  0.26539760177E+03  0.27765829640E+03  0.41800000000E+01 0.  1.
        -11    1    1    2    0    0  0.28795873500E+02  0.62967718758E+01  0.11167092520E+03  0.11549565880E+03  0.00000000000E+00 0.  1.
         11    1    1    2    0    0 -0.43695318037E+02 -0.59622355899E+02  0.39392741941E+03  0.40080284169E+03  0.00000000000E+00 0. -1.
</event>
<event>
 6    1  0.6981059E-006  0.1002668E+03  0.7561462E-02  0.1279736E+00
          1   -1    0    0  501    0  0.00000000000E+00  0.00000000000E+00  0.11262274510E+03  0.11262274510E+03  0.00000000000E+00 0. -1.
         -1   -1    0    0    0  501 -0.00000000000E+00 -0.00000000000E+00 -0.10885055555E+03  0.10885055555E+03  0.00000000000E+00 0.  1.
          5    1    1    2  502    0  0.26685823207E+02  0.45276182235E+02 -0.33335289752E+02  0.62376115468E+02  0.41800000000E+01 0. -1.
         -5    1    1    2    0  502 -0.22272061333E+02 -0.56389150771E+02  0.20027448563E+02  0.63987124772E+02  0.41800000000E+01 0. -1.
        -11    1    1    2    0    0 -0.38819794398E+02 -0.17221829254E+02 -0.90803365602E+01  0.43428335819E+02  0.00000000000E+00 0.  1.
         11    1    1    2    0    0  0.34406032524E+02  0.28334797789E+02  0.26160367297E+02  0.51681724593E+02  0.00000000000E+00 0. -1.
</event>
<event>
 6    1  0.6981059E-006  0.8324829E+02  0.7561462E-02  0.1320078E+00
          3   -1    0    0  501    0  0.00000000000E+00  0.00000000000E+00  0.22577337444E+03  0.22577337444E+03  0.00000000000E+00 0. -1.
         -3   -1    0    0    0  501 -0.00000000000E+00 -0.00000000000E+00 -0.55760763670E+02  0.55760763670E+02  0.00000000000E+00 0.  1.
          5    1    1    2  502    0  0.32619483608E+02 -0.28522552359E+02 -0.17268156359E+02  0.46831915698E+02  0.41800000000E+01 0.  1.
         -5    1    1    2    0  502  0.15069988505E+01  0.29129357785E+02  0.10667696588E+03  0.11067175783E+03  0.41800000000E+01 0.  1.
        -11    1    1    2    0    0 -0.59970940859E+02 -0.17680960148E+02  0.61135267307E+02  0.87445131414E+02  0.00000000000E+00 0. -1.
         11    1    1    2    0    0  0.25844458400E+02  0.17074154723E+02  0.19468533939E+02  0.36585333171E+02  0.00000000000E+00 0.  1.
</event>
<event>
 6    1  0.6981059E-006  0.9313182E+02  0.7561462E-02  0.1295440E+00
         -2   -1    0    0    0  501 -0.00000000000E+00  0.00000000000E+00  0.30322552460E+03  0.30322552460E+03  0.00000000000E+00 0.  1.
          2   -1    0    0  501    0  0.00000000000E+00 -0.00000000000E+00 -0.40119124153E+02  0.40119124153E+02  0.00000000000E+00 0. -1.
          5    1    1    2  502    0  0.16584396502E+02  0.50398268278E+02  0.97499755470E+02  0.11107971178E+03  0.41800000000E+01 0. -1.
         -5    1    1    2    0  502 -0.46410320670E+02 -0.53298583503E+02  0.64444886078E+02  0.95735430273E+02  0.41800000000E+01 0. -1.
        -11    1    1    2    0    0  0.14234523086E+02 -0.25867150061E+02  0.99476044655E+02  0.10376518954E+03  0.00000000000E+00 0.  1.
         11    1    1    2    0    0  0.15591401081E+02  0.28767465286E+02  0.16857142491E+01  0.32764317163E+02  0.00000000000E+00 0. -1.
</event>
<event>
 6    1  0.6981059E-006  0.2451043E+03  0.7561462E-02  0.1116438E+00
          2   -1    0    0  501    0  0.00000000000E+00  0.00000000000E+00  0.14867078369E+03  0.14867078369E+03  0.00000000000E+00 0. -1.
         -2   -1    0    0    0  501 -0.00000000000E+00 -0.00000000000E+00 -0.42252418916E+03  0.42252418916E+03  0.00000000000E+00 0.  1.
          5    1    1    2  502    0  0.22365474746E+03  0.49754879760E+02 -0.12496850044E+03  0.26102029159E+03  0.41800000000E+01 0. -1.
         -5    1    1    2    0  502 -0.99799259554E+01  0.22396666059E+02 -0.33312773177E+02  0.41574304917E+02  0.41800000000E+01 0. -1.
        -11    1    1    2    0    0 -0.95033860396E+02  0.41357138716E+01 -0.17282627861E+02  0.96681063175E+02  0.00000000000E+00 0. -1.
         11    1    1    2    0    0 -0.11864096111E+03 -0.76287259691E+02 -0.98289503998E+02  0.17191931317E+03  0.00000000000E+00 0.  1.
</event>
<event>
 6    1  0.6981059E-006  0.1082904E+03  0.7561462E-02  0.1263769E+00
         -1   -1    0    0    0  501 -0.00000000000E+00  0.00000000000E+00  0.13629487103E+03  0.13629487103E+03  0.00000000000E+00 0.  1.
          1   -1    0    0  501    0  0.00000000000E+00 -0.00000000000E+00 -0.13002703628E+03  0.13002703628E+03  0.00000000000E+00 0. -1.
          5    1    1    2  502    0 -0.80654384478E+02  0.19323568139E+02  0.65791674382E+02  0.10594596188E+03  0.41800000000E+01 0.  1.
         -5    1    1    2    0  502  0.41612507856E+02 -0.89671036845E+01  0.43534444934E+01  0.42993425515E+02  0.41800000000E+01 0.  1.
        -11    1    1    2    0    0  0.60113555495E+02  0.10607559005E+02 -0.19711323808E+02  0.64145897363E+02  0.00000000000E+00 0.  1.
         11    1    1    2    0    0 -0.21071678873E+02 -0.20964023459E+02 -0.44165960321E+02  0.53236622556E+02  0.00000000000E+00 0. -1.
</event>
<event>
 6    1  0.6981059E-006  0.2693265E+03  0.7561462E-02  0.1101666E+00
         -2   -1    0    0    0  501 -0.00000000000E+00  0.00000000000E+00  0.99295758524E+02  0.99295758524E+02  0.00000000000E+00 0. -1.
          2   -1    0    0  501    0  0.00000000000E+00 -0.00000000000E+00 -0.96189861358E+03  0.96189861358E+03  0.00000000000E+00 0.  1.
          5    1    1    2  502    0  0.49370371122E+02  0.16351724076E+03 -0.17542360881E+03  0.24488004512E+03  0.41800000000E+01 0.  1.
         -5    1    1    2    0  502  0.84838735049E+02  0.52594234779E+02 -0.27103905729E+02  0.10351743139E+03  0.41800000000E+01 0.  1.
        -11    1    1    2    0    0 -0.10937184133E+03 -0.96919032843E+02 -0.39256505258E+03  0.41888282265E+03  0.00000000000E+00 0.  1.
         11    1    1    2    0    0 -0.24837264841E+02 -0.11919244270E+03 -0.26751028793E+03  0.29391407293E+03  0.00000000000E+00 0. -1.
</event>
<event>
 6    1  0.6981059E-006  0.1549977E+03  0.7561462E-02  0.1194463E+00
         -1   -1    0    0    0  501 -0.00000000000E+00  0.00000000000E+00  0.36528305623E+02  0.36528305623E+02  0.00000000000E+00 0.  1.
          1   -1    0    0  501    0  0.00000000000E+00 -0.00000000000E+00 -0.72553575692E+03  0.72553575692E+03  0.00000000000E+00 0. -1.
          5    1    1    2  502    0 -0.46641845754E+02 -0.46613094897E+02 -0.23661587209E+03  0.24566803967E+03  0.41800000000E+01 0. -1.
         -5    1    1    2    0  502  0.56786277695E+02 -0.74419104902E+02 -0.12952184168E+03  0.15986326777E+03  0.41800000000E+01 0. -1.
        -11    1    1    2    0    0  0.14019171103E+02  0.12495449192E+03 -0.25350682792E+03  0.28297680825E+03  0.00000000000E+00 0.  1.
         11    1    1    2    0    0 -0.24163603044E+02 -0.39222921198E+01 -0.69362909612E+02  0.73555946852E+02  0.00000000000E+00 0. -1.
</event>
<event>
 6    1  0.6981059E-006  0.1299446E+03  0.7561462E-02  0.1227538E+00
          1   -1    0    0  501    0  0.00000000000E+00  0.00000000000E+00  0.95273347771E+02  0.95273347771E+02  0.00000000000E+00 0. -1.
         -1   -1    0    0    0  501 -0.00000000000E+00 -0.00000000000E+00 -0.22308544180E+03  0.22308544180E+03  0.00000000000E+00 0.  1.
          5    1    1    2  502    0  0.77646919347E+02  0.46388176811E+01 -0.24253100805E+02  0.81585832179E+02  0.41800000000E+01 0.  1.
         -5    1    1    2    0  502 -0.10471091781E+02 -0.59812606234E+02 -0.90784590719E+02  0.10930007292E+03  0.41800000000E+01 0.  1.
        -11    1    1    2    0    0  0.11578172118E+02  0.39060109116E+02 -0.22435006326E+02  0.46508877675E+02  0.00000000000E+00 0.  1.
         11    1    1    2    0    0 -0.78753999684E+02  0.16113679437E+02  0.96606038209E+01  0.80964006801E+02  0.00000000000E+00 0. -1.
</event>
<event>
 6    1  0.6981059E-006  0.1571246E+03  0.7561462E-02  0.1191982E+00
          2   -1    0    0  501    0  0.00000000000E+00  0.00000000000E+00  0.12629539078E+04  0.12629539078E+04  0.00000000000E+00 0. -1.
         -2   -1    0    0    0  501 -0.00000000000E+00 -0.00000000000E+00 -0.23860723532E+02  0.23860723532E+02  0.00000000000E+00 0.  1.
          5    1    1    2  502    0 -0.46649417886E+02 -0.94189597948E+02  0.57216003841E+03  0.58174945681E+03  0.41800000000E+01 0.  1.
         -5    1    1    2    0  502 -0.62467910053E+02  0.15615127305E+02  0.14792525409E+03  0.16138595101E+03  0.41800000000E+01 0.  1.
        -11    1    1    2    0    0  0.44940638297E+02  0.64856758173E+02  0.15636280197E+03  0.17514390053E+03  0.00000000000E+00 0.  1.
         11    1    1    2    0    0  0.64176689642E+02  0.13717712470E+02  0.36264508983E+03  0.36853532301E+03  0.00000000000E+00 0. -1.
</event>
<event>
 6    1  0.6981059E-006  0.1184561E+03  0.7561462E-02  0.1245666E+00
         -1   -1    0    0    0  501 -0.00000000000E+00  0.00000000000E+00  0.24737808380E+03  0.24737808380E+03  0.00000000000E+00 0.  1.
          1   -1    0    0  501    0  0.00000000000E+00 -0.00000000000E+00 -0.24806077720E+03  0.24806077720E+03  0.00000000000E+00 0. -1.
          5    1    1    2  502    0  0.64137998242E+02  0.15329898698E+02  0.10389836143E+03  0.12313013652E+03  0.41800000000E+01 0. -1.
         -5    1    1    2    0  502 -0.76081977906E+02  0.26918897143E+01  0.11101410124E+03  0.13467485551E+03  0.41800000000E+01 0.  1.
        -11    1    1    2    0    0  0.35573759409E+02  0.26383710703E+02 -0.63370830076E+02  0.77314000371E+02  0.00000000000E+00 0.  1.
         11    1    1    2    0    0 -0.23629779745E+02 -0.44405499115E+02 -0.15222432600E+03  0.16031986860E+03  0.00000000000E+00 0. -1.
</event>
<event>
 6    1  0.6981059E-006  0.9298165E+02  0.7561462E-02  0.1295788E+00
         -1   -1    0    0    0  501 -0.00000000000E+00  0.00000000000E+00  0.10943314380E+03  0.10943314380E+03  0.00000000000E+00 0.  1.
          1   -1    0    0  501    0  0.00000000000E+00 -0.00000000000E+00 -0.12410611927E+03  0.12410611927E+03  0.00000000000E+00 0. -1.
          5    1    1    2  502    0  0.43003341647E+02 -0.55190577468E+02 -0.14473946187E+02  0.71569929106E+02  0.41800000000E+01 0. -1.
         -5    1    1    2    0  502  0.62474985552E+01  0.64206814430E+02 -0.12569130953E+02  0.65855916290E+02  0.41800000000E+01 0. -1.
        -11    1    1    2    0    0 -0.29275506555E+02  0.85594390411E-01  0.46846567104E+02  0.55241863291E+02  0.00000000000E+00 0.  1.
         11    1    1    2    0    0 -0.19975333647E+02 -0.91018313524E+01 -0.34476465433E+02  0.40871554375E+02  0.00000000000E+00 0. -1.
</event>
<event>
 6    1  0.6981059E-006  0.1004980E+03  0.7561462E-02  0.1279252E+00
          2   -1    0    0  501    0  0.00000000000E+00  0.00000000000E+00  0.20181302254E+02  0.20181302254E+02  0.00000000000E+00 0.  1.
         -2   -1    0    0    0  501 -0.00000000000E+00 -0.00000000000E+00 -0.59529679559E+03  0.59529679559E+03  0.00000000000E+00 0. -1.
          5    1    1    2  502    0  0.16448111523E+02  0.76523550666E+02 -0.24008121760E+03  0.25255268287E+03  0.41800000000E+01 0. -1.
         -5    1    1    2    0  502 -0.22153040751E+02 -0.42117542233E+02 -0.84938952255E+02  0.97451231846E+02  0.41800000000E+01 0. -1.
        -11    1    1    2    0    0  0.36074057237E+02 -0.17737752835E+02 -0.20338425195E+03  0.20731888342E+03  0.00000000000E+00 0. -1.
         11    1    1    2    0    0 -0.30369128009E+02 -0.16668255599E+02 -0.46711071531E+02  0.58155299709E+02  0.00000000000E+00 0.  1.
</event>
<event>
 6    1  0.6981059E-006  0.1310322E+03  0.7561462E-02  0.1225932E+00
          2   -1    0    0  501    0  0.00000000000E+00  0.00000000000E+00  0.37814673338E+03  0.37814673338E+03  0.00000000000E+00 0. -1.
         -2   -1    0    0    0  501 -0.00000000000E+00 -0.00000000000E+00 -0.92895049416E+02  0.92895049416E+02  0.00000000000E+00 0.  1.
          5    1    1    2  502    0 -0.22236599990E+02  0.80386556682E+02  0.72159133941E+02  0.11036701448E+03  0.41800000000E+01 0. -1.
         -5    1    1    2    0  502  0.87525885436E+01  0.31819897280E+02 -0.49597963026E+02  0.59720549272E+02  0.41800000000E+01 0. -1.
        -11    1    1    2    0    0  0.44536012802E+02 -0.21577250672E+02  0.11118130446E+03  0.12169764437E+03  0.00000000000E+00 0.  1.
         11    1    1    2    0    0 -0.31052001356E+02 -0.90629203290E+02  0.15150920859E+03  0.17925657467E+03  0.00000000000E+00 0. -1.
</event>
<event>
 6    1  0.6981059E-006  0.1141935E+03  0.7561462E-02  0.1252996E+00
         -2   -1    0    0    0  501 -0.00000000000E+00  0.00000000000E+00  0.95164364571E+03  0.95164364571E+03  0.00000000000E+00 0.  1.
          2   -1    0    0  501    0  0.00000000000E+00 -0.00000000000E+00 -0.22537458285E+02  0.22537458285E+02  0.00000000000E+00 0. -1.
          5    1    1    2  502    0  0.39740786845E+02 -0.43788701235E+02  0.39296491811E+03  0.39741122249E+03  0.41800000000E+01 0.  1.
         -5    1    1    2    0  502  0.12890946881E+02  0.77232100588E+02  0.36400612264E+03  0.37235588299E+03  0.41800000000E+01 0.  1.
        -11    1    1    2    0    0 -0.64017809232E+02 -0.10218796342E+02  0.16545149811E+03  0.17769890806E+03  0.00000000000E+00 0.  1.
         11    1    1    2    0    0  0.11386075507E+02 -0.23224603011E+02  0.66836485637E+01  0.26715090466E+02  0.00000000000E+00 0. -1.
</event>
<event>
 6    1  0.6981059E-006  0.7489900E+02  0.7561462E-02  0.1344184E+00
         -2   -1    0    0    0  501 -0.00000000000E+00  0.00000000000E+00  0.11568270086E+04  0.11568270086E+04  0.00000000000E+00 0.  1.
          2   -1    0    0  501    0  0.00000000000E+00 -0.00000000000E+00 -0.19289741463E+02  0.19289741463E+02  0.00000000000E+00 0. -1.
          5    1    1    2  502    0  0.29822522284E+02 -0.16206707068E+01  0.96703381506E+03  0.96750394380E+03  0.41800000000E+01 0. -1.
         -5    1    1    2    0  502 -0.23015529607E+02 -0.10525213064E+02  0.41041411439E+02  0.48397981012E+02  0.41800000000E+01 0. -1.
        -11    1    1    2    0    0 -0.29849488922E+02  0.44915487760E+02  0.66964849299E+02  0.85980719183E+02  0.00000000000E+00 0.  1.
         11    1    1    2    0    0  0.23042496244E+02 -0.32769603989E+02  0.62497191389E+02  0.74234106112E+02  0.00000000000E+00 0. -1.
</event>
<event>
 6    1  0.6981059E-006  0.1344949E+03  0.7561462E-02  0.1220934E+00
          2   -1    0    0  501    0  0.00000000000E+00  0.00000000000E+00  0.15939661590E+03  0.15939661590E+03  0.00000000000E+00 0.  1.
         -2   -1    0    0    0  501 -0.00000000000E+00 -0.00000000000E+00 -0.29214143854E+03  0.29214143854E+03  0.00000000000E+00 0. -1.
          5    1    1    2  502    0  0.17355899297E+02  0.13662217940E+02 -0.10504888618E+03  0.10742729787E+03  0.41800000000E+01 0.  1.
         -5    1    1    2    0  502 -0.10426608871E+03 -0.56098566448E+02 -0.13040667945E+03  0.17618694860E+03  0.41800000000E+01 0.  1.
        -11    1    1    2    0    0 -0.65151499655E+01 -0.16387169989E+02  0.76309711945E+00  0.17651312601E+02  0.00000000000E+00 0.  1.
         11    1    1    2    0    0  0.93425339381E+02  0.58823518498E+02  0.10194764587E+03  0.15027249537E+03  0.00000000000E+00 0. -1.
</event>
<event>
 6    1  0.6981059E-006  0.1406748E+03  0.7561462E-02  0.1212424E+00
         -2   -1    0    0    0  501 -0.00000000000E+00  0.00000000000E+00  0.38332581164E+03  0.38332581164E+03  0.00000000000E+00 0.  1.
          2   -1    0    0  501    0  0.00000000000E+00 -0.00000000000E+00 -0.11116948558E+03  0.11116948558E+03  0.00000000000E+00 0. -1.
          5    1    1    2  502    0 -0.11251277636E+03 -0.45008589153E+02  0.30069175289E+02  0.12492608072E+03  0.41800000000E+01 0. -1.
         -5    1    1    2    0  502  0.56318760650E+02  0.39807789047E+02  0.25138539752E+03  0.26070779305E+03  0.41800000000E+01 0.  1.
        -11    1    1    2    0    0 -0.69222670153E+00 -0.26075878814E+02 -0.30905677681E+02  0.40442447338E+02  0.00000000000E+00 0.  1.
         11    1    1    2    0    0  0.56886242412E+02  0.31276678920E+02  0.21607430938E+02  0.68418976109E+02  0.00000000000E+00 0. -1.
</event>
<event>
 6    1  0.6981059E-006  0.1760801E+03  0.7561462E-02  0.1171652E+00
          2   -1    0    0  501    0  0.00000000000E+00  0.00000000000E+00  0.74753363029E+03  0.74753363029E+03  0.00000000000E+00 0. -1.
         -2   -1    0    0    0  501 -0.00000000000E+00 -0.00000000000E+00 -0.58488108674E+02  0.58488108674E+02  0.00000000000E+00 0.  1.
          5    1    1    2  502    0 -0.24710065503E+02 -0.91611116343E+02  0.19243878122E+03  0.21460042146E+03  0.41800000000E+01 0.  1.
         -5    1    1    2    0  502  0.31504426805E+02 -0.68734882475E+02  0.17413814590E+02  0.77702807644E+02  0.41800000000E+01 0.  1.
        -11    1    1    2    0    0  0.39074510831E+02  0.73174051712E+02  0.27074915501E+03  0.28317196927E+03  0.00000000000E+00 0.  1.
         11    1    1    2    0    0 -0.45868872134E+02  0.87171947106E+02  0.20844377080E+03  0.23054654059E+03  0.00000000000E+00 0. -1.
</event>
<event>
 6    1  0.6981059E-006  0.1287568E+03  0.7561462E-02  0.1229312E+00
         -1   -1    0    0    0  501 -0.00000000000E+00  0.00000000000E+00  0.26258864216E+02  0.26258864216E+02  0.00000000000E+00 0.  1.
          1   -1    0    0  501    0  0.00000000000E+00 -0.00000000000E+00 -0.83474228812E+03  0.83474228812E+03  0.00000000000E+00 0. -1.
          5    1    1    2  502    0  0.34286260545E+00 -0.16687928658E+02 -0.12536305768E+01  0.17252492785E+02  0.41800000000E+01 0. -1.
         -5    1    1    2    0  502  0.42142494983E+02  0.10555931188E+03 -0.35981343601E+03  0.37736181490E+03  0.41800000000E+01 0. -1.
        -11    1    1    2    0    0  0.23590438434E+02 -0.29187311817E+02 -0.80452862958E+02  0.88775397013E+02  0.00000000000E+00 0.  1.
         11    1    1    2    0    0 -0.66075796023E+02 -0.59684071403E+02 -0.36696349436E+03  0.37761144765E+03  0.00000000000E+00 0. -1.
</event>
<event>
 6    1  0.6981059E-006  0.1228311E+03  0.7561462E-02  0.1238498E+00
          2   -1    0    0  501    0  0.00000000000E+00  0.00000000000E+00  0.61082816077E+02  0.61082816077E+02  0.00000000000E+00 0. -1.
         -2   -1    0    0    0  501 -0.00000000000E+00 -0.00000000000E+00 -0.36171758089E+03  0.36171758089E+03  0.00000000000E+00 0.  1.
          5    1    1    2  502    0  0.34273616634E+02 -0.89710998062E+02 -0.16850495351E+03  0.19399519512E+03  0.41800000000E+01 0.  1.
         -5    1    1    2    0  502  0.25140235765E+02  0.43001927916E+02 -0.92406708381E+02  0.10506031321E+03  0.41800000000E+01 0.  1.
        -11    1    1    2    0    0 -0.36937705748E+02 -0.10235622437E+02 -0.48587840991E+02  0.61886511978E+02  0.00000000000E+00 0.  1.
         11    1    1    2    0    0 -0.22476146652E+02  0.56944692584E+02  0.88647380706E+01  0.61858376659E+02  0.00000000000E+00 0. -1.
</event>
<event>
 6    1  0.6981059E-006  0.9615359E+02  0.7561462E-02  0.1288599E+00
          1   -1    0    0  501    0  0.00000000000E+00  0.00000000000E+00  0.38954383905E+03  0.38954383905E+03  0.00000000000E+00 0. -1.
         -1   -1    0    0    0  501 -0.00000000000E+00 -0.00000000000E+00 -0.73865150957E+02  0.73865150957E+02  0.00000000000E+00 0.  1.
          5    1    1    2  502    0 -0.18722615078E+02 -0.19496288092E+02 -0.51077875189E+02  0.57940169990E+02  0.41800000000E+01 0.  1.
         -5    1    1    2    0  502 -0.50644469588E+02  0.91757803494E+01  0.69587196273E+02  0.86653952766E+02  0.41800000000E+01 0.  1.
        -11    1    1    2    0    0  0.70741778386E+02  0.41560536329E+02  0.18518839436E+03  0.20254979337E+03  0.00000000000E+00 0. -1.
         11    1    1    2    0    0 -0.13746937207E+01 -0.31240028587E+02  0.11198097265E+03  0.11626507388E+03  0.00000000000E+00 0.  1.
</event>
<event>
 6    1  0.6981059E-006  0.9347246E+02  0.7561462E-02  0.1294654E+00
          1   -1    0    0  501    0  0.00000000000E+00  0.00000000000E+00  0.50445629405E+03  0.50445629405E+03  0.00000000000E+00 0. -1.
         -1   -1    0    0    0  501 -0.00000000000E+00 -0.00000000000E+00 -0.40082828683E+02  0.40082828683E+02  0.00000000000E+00 0.  1.
          5    1    1    2  502    0  0.35913865248E+01 -0.59428920722E+02  0.34925807131E+02  0.69151855211E+02  0.41800000000E+01 0. -1.
         -5    1    1    2    0  502  0.26679528914E+02 -0.23971646269E+02  0.26762310691E+03  0.27004821206E+03  0.41800000000E+01 0. -1.
        -11    1    1    2    0    0 -0.26596255263E+02  0.42838664945E+02  0.15630722161E+03  0.16423903171E+03  0.00000000000E+00 0. -1.
         11    1    1    2    0    0 -0.36746601756E+01  0.40561902046E+02  0.55173297143E+01  0.41100023749E+02  0.00000000000E+00 0.  1.
</event>
<event>
 6    1  0.6981059E-006  0.1127720E+03  0.7561462E-02  0.1255521E+00
          4   -1    0    0  501    0  0.00000000000E+00  0.00000000000E+00  0.17658404390E+02  0.17658404390E+02  0.00000000000E+00 0. -1.
         -4   -1    0    0    0  501 -0.00000000000E+00 -0.00000000000E+00 -0.23003435553E+04  0.23003435553E+04  0.00000000000E+00 0.  1.
          5    1    1    2  502    0 -0.66167793519E+01 -0.78440449406E+02 -0.25615032495E+03  0.26800587166E+03  0.41800000000E+01 0. -1.
         -5    1    1    2    0  502 -0.40997362990E+02 -0.27443926421E+01 -0.16675868154E+04  0.16680981910E+04  0.41800000000E+01 0.  1.
        -11    1    1    2    0    0  0.11448888651E+01  0.48703428445E+02 -0.58413547073E+02  0.76062324408E+02  0.00000000000E+00 0. -1.
         11    1    1    2    0    0  0.46469253477E+02  0.32481413604E+02 -0.30053446348E+03  0.30583557263E+03  0.00000000000E+00 0.  1.
</event>
<event>
 6    1  0.6981059E-006  0.9587439E+02  0.7561462E-02  0.1289219E+00
          2   -1    0    0  501    0  0.00000000000E+00  0.00000000000E+00  0.26187668634E+03  0.26187668634E+03  0.00000000000E+00 0. -1.
         -2   -1    0    0    0  501 -0.00000000000E+00 -0.00000000000E+00 -0.43488534599E+02  0.43488534599E+02  0.00000000000E+00 0.  1.
          5    1    1    2  502    0 -0.69069100125E+02 -0.83819694515E+01  0.54986693216E+02  0.88779540632E+02  0.41800000000E+01 0. -1.
         -5    1    1    2    0  502  0.43176320019E+02  0.14381875413E+02  0.30985359494E+02  0.55214109191E+02  0.41800000000E+01 0.  1.
        -11    1    1    2    0    0  0.26721857689E+02  0.30093039602E+02  0.11389353773E+03  0.12079481218E+03  0.00000000000E+00 0. -1.
         11    1    1    2    0    0 -0.82907758420E+00 -0.36092945564E+02  0.18522561297E+02  0.40576758940E+02  0.00000000000E+00 0.  1.
</event>
<event>
 6    1  0.6981059E-006  0.2383826E+03  0.7561462E-02  0.1120875E+00
         -2   -1    0    0    0  501 -0.00000000000E+00  0.00000000000E+00  0.60791325727E+03  0.60791325727E+03  0.00000000000E+00 0.  1.
          2   -1    0    0  501    0  0.00000000000E+00 -0.00000000000E+00 -0.11274674313E+03  0.11274674313E+03  0.00000000000E+00 0. -1.
          5    1    1    2  502    0  0.18972201604E+03  0.11907102150E+03  0.34530000544E+03  0.41160893782E+03  0.41800000000E+01 0. -1.
         -5    1    1    2    0  502  0.12659962762E+02 -0.25581540703E+02  0.23855728046E+02  0.37433381393E+02  0.41800000000E+01 0. -1.
        -11    1    1    2    0    0 -0.18044211799E+03 -0.75851810524E+02  0.13954133041E+03  0.24038435473E+03  0.00000000000E+00 0.  1.
         11    1    1    2    0    0 -0.21939860812E+02 -0.17637670270E+02 -0.13530549766E+02  0.31233326463E+02  0.00000000000E+00 0. -1.
</event>
<event>
 6    1  0.6981059E-006  0.1194929E+03  0.7561462E-02  0.1243936E+00
          1   -1    0    0  501    0  0.00000000000E+00  0.00000000000E+00  0.23103137101E+03  0.23103137101E+03  0.00000000000E+00 0. -1.
         -1   -1    0    0    0  501 -0.00000000000E+00 -0.00000000000E+00 -0.90276062786E+02  0.90276062786E+02  0.00000000000E+00 0.  1.
          5    1    1    2  502    0 -0.11412517816E+02 -0.37144456853E+02 -0.34382685352E+02  0.52053796113E+02  0.41800000000E+01 0. -1.
         -5    1    1    2    0  502 -0.75002054595E+02  0.23422525321E+02  0.68588157791E+02  0.10438261673E+03  0.41800000000E+01 0. -1.
        -11    1    1    2    0    0  0.35238284835E+02  0.48056138638E+02  0.30366155725E+02  0.66882229272E+02  0.00000000000E+00 0.  1.
         11    1    1    2    0    0  0.51176287576E+02 -0.34334207106E+02  0.76183680055E+02  0.97988791678E+02  0.00000000000E+00 0. -1.
</event>
<event>
 6    1  0.6981059E-006  0.1298391E+03  0.7561462E-02  0.1227695E+00
          2   -1    0    0  501    0  0.00000000000E+00  0.00000000000E+00  0.56598875777E+03  0.56598875777E+03  0.00000000000E+00 0. -1.
         -2   -1    0    0    0  501 -0.00000000000E+00 -0.00000000000E+00 -0.43712389018E+02  0.43712389018E+02  0.00000000000E+00 0.  1.
          5    1    1    2  502    0  0.67926881091E+02  0.10724182819E+02  0.29373427299E+02  0.74895526590E+02  0.41800000000E+01 0. -1.
         -5    1    1    2    0  502 -0.68946700075E+01  0.70187202868E+02  0.15205256078E+03  0.16766404969E+03  0.41800000000E+01 0. -1.
        -11    1    1    2    0    0 -0.14629546289E+02 -0.71250073194E+02  0.28379049226E+03  0.29296354731E+03  0.00000000000E+00 0. -1.
         11    1    1    2    0    0 -0.46402664794E+02 -0.96613124929E+01  0.57059888417E+02  0.74178023196E+02  0.00000000000E+00 0.  1.
</event>
<event>
 6    1  0.6981059E-006  0.1234212E+03  0.7561462E-02  0.1237557E+00
         -2   -1    0    0    0  501 -0.00000000000E+00  0.00000000000E+00  0.19157980294E+03  0.19157980294E+03  0.00000000000E+00 0. -1.
          2   -1    0    0  501    0  0.00000000000E+00 -0.00000000000E+00 -0.87453928152E+02  0.87453928152E+02  0.00000000000E+00 0.  1.
          5    1    1    2  502    0  0.61661849211E+02 -0.43860167532E+02  0.54876854376E+02  0.93567299257E+02  0.41800000000E+01 0.  1.
         -5    1    1    2    0  502 -0.51977882229E+01  0.62334413641E+02  0.44112174451E+02  0.76654761504E+02  0.41800000000E+01 0.  1.
        -11    1    1    2    0    0 -0.78645836312E+02 -0.28990241304E+02  0.45041261452E+00  0.83820072367E+02  0.00000000000E+00 0.  1.
         11    1    1    2    0    0  0.22181775324E+02  0.10515995195E+02  0.46864333515E+01  0.24991597969E+02  0.00000000000E+00 0. -1.
</event>
<event>
 6    1  0.6981059E-006  0.1392827E+03  0.7561462E-02  0.1214297E+00
          1   -1    0    0  501    0  0.00000000000E+00  0.00000000000E+00  0.12235933891E+03  0.12235933891E+03  0.00000000000E+00 0. -1.
         -1   -1    0    0    0  501 -0.00000000000E+00 -0.00000000000E+00 -0.24513320210E+03  0.24513320210E+03  0.00000000000E+00 0.  1.
          5    1    1    2  502    0  0.31880744511E+02  0.91406967799E+02 -0.58659383541E+02  0.11326963984E+03  0.41800000000E+01 0.  1.
         -5    1    1    2    0  502 -0.47410018867E+02  0.64271946926E+01 -0.10415667358E+03  0.11469570076E+03  0.41800000000E+01 0.  1.
        -11    1    1    2    0    0 -0.37663581159E+02 -0.44796671942E+02  0.18599753540E+02  0.61410406240E+02  0.00000000000E+00 0.  1.
         11    1    1    2    0    0  0.53192855514E+02 -0.53037490550E+02  0.21442440385E+02  0.78116794169E+02  0.00000000000E+00 0. -1.
</event>
<event>
 6    1  0.6981059E-006  0.4025492E+03  0.7561462E-02  0.1042901E+00
          1   -1    0    0  501    0  0.00000000000E+00  0.00000000000E+00  0.10958320820E+04  0.10958320820E+04  0.00000000000E+00 0. -1.
         -1   -1    0    0    0  501 -0.00000000000E+00 -0.00000000000E+00 -0.19320210516E+03  0.19320210516E+03  0.00000000000E+00 0.  1.
          5    1    1    2  502    0 -0.55897827875E+02  0.21783625946E+03  0.44481268575E+02  0.22928859272E+03  0.41800000000E+01 0. -1.
         -5    1    1    2    0  502  0.28951914042E+02  0.17925997290E+03  0.12780147998E+03  0.22208791479E+03  0.41800000000E+01 0. -1.
        -11    1    1    2    0    0  0.19522765553E+02 -0.14257692619E+03  0.36489700212E+03  0.39224882461E+03  0.00000000000E+00 0. -1.
         11    1    1    2    0    0  0.74231482806E+01 -0.25451930617E+03  0.36545022614E+03  0.44540885501E+03  0.00000000000E+00 0.  1.
</event>
<event>
 6    1  0.6981059E-006  0.1457021E+03  0.7561462E-02  0.1205856E+00
          2   -1    0    0  501    0  0.00000000000E+00  0.00000000000E+00  0.65735545327E+03  0.65735545327E+03  0.00000000000E+00 0. -1.
         -2   -1    0    0    0  501 -0.00000000000E+00 -0.00000000000E+00 -0.32897716230E+02  0.32897716230E+02  0.00000000000E+00 0.  1.
          5    1    1    2  502    0 -0.34095887216E+02  0.25624691344E+02  0.76244009575E+02  0.87462996333E+02  0.41800000000E+01 0.  1.
         -5    1    1    2    0  502 -0.36810357872E+01 -0.11563066873E+03  0.21905429593E+03  0.24776250431E+03  0.41800000000E+01 0.  1.
        -11    1    1    2    0    0 -0.20764838871E+02  0.66555608756E+02  0.16186991345E+03  0.17624612470E+03  0.00000000000E+00 0.  1.
         11    1    1    2    0    0  0.58541761874E+02  0.23450368628E+02  0.16728951809E+03  0.17878154417E+03  0.00000000000E+00 0. -1.
</event>
<event>
 6    1  0.6981059E-006  0.1630844E+03  0.7561462E-02  0.1185258E+00
          1   -1    0    0  501    0  0.00000000000E+00  0.00000000000E+00  0.28521400054E+03  0.28521400054E+03  0.00000000000E+00 0. -1.
         -1   -1    0    0    0  501 -0.00000000000E+00 -0.00000000000E+00 -0.13901401327E+03  0.13901401327E+03  0.00000000000E+00 0.  1.
          5    1    1    2  502    0 -0.97173164985E+02 -0.86739746054E+02  0.34911365587E+01  0.13036896860E+03  0.41800000000E+01 0.  1.
         -5    1    1    2    0  502  0.29124039282E+02 -0.25175994150E+02 -0.37512236744E+02  0.53913640677E+02  0.41800000000E+01 0.  1.
        -11    1    1    2    0    0  0.44989354492E+02  0.22354178126E+01  0.66124473659E+02  0.80009281506E+02  0.00000000000E+00 0.  1.
         11    1    1    2    0    0  0.23059771211E+02  0.10968032239E+03  0.11409661380E+03  0.15993612303E+03  0.00000000000E+00 0. -1.
</event>
<event>
 6    1  0.6981059E-006  0.1010625E+03  0.7561462E-02  0.1278077E+00
          1   -1    0    0  501    0  0.00000000000E+00  0.00000000000E+00  0.16633360984E+02  0.16633360984E+02  0.00000000000E+00 0. -1.
         -1   -1    0    0    0  501 -0.00000000000E+00 -0.00000000000E+00 -0.10209690178E+04  0.10209690178E+04  0.00000000000E+00 0.  1.
          5    1    1    2  502    0 -0.41281420983E+02  0.70905836446E+01 -0.17753655529E+03  0.18245857874E+03  0.41800000000E+01 0. -1.
         -5    1    1    2    0  502  0.62261067749E+02 -0.23513815921E+02 -0.65913070482E+03  0.66249535737E+03  0.41800000000E+01 0.  1.
        -11    1    1    2    0    0  0.41893740556E+01  0.50671561738E+02 -0.10822576563E+03  0.11957413755E+03  0.00000000000E+00 0.  1.
         11    1    1    2    0    0 -0.25169020821E+02 -0.34248329462E+02 -0.59442631091E+02  0.73074305136E+02  0.00000000000E+00 0. -1.
</event>
<event>
 6    1  0.6981059E-006  0.1454948E+03  0.7561462E-02  0.1206121E+00
          1   -1    0    0  501    0  0.00000000000E+00  0.00000000000E+00  0.58217986547E+03  0.58217986547E+03  0.00000000000E+00 0.  1.
         -1   -1    0    0    0  501 -0.00000000000E+00 -0.00000000000E+00 -0.42278234959E+02  0.42278234959E+02  0.00000000000E+00 0. -1.
          5    1    1    2  502    0  0.22456987464E+01  0.33771480977E+02  0.25857795277E+02  0.42797827828E+02  0.41800000000E+01 0.  1.
         -5    1    1    2    0  502  0.10231460620E+03 -0.75604126039E+02  0.24509451688E+03  0.27617577214E+03  0.41800000000E+01 0.  1.
        -11    1    1    2    0    0 -0.98993290958E+02  0.56450999460E+02  0.26624762214E+03  0.28961039914E+03  0.00000000000E+00 0. -1.
         11    1    1    2    0    0 -0.55670139916E+01 -0.14618354398E+02  0.27016962145E+01  0.15874101314E+02  0.00000000000E+00 0.  1.
</event>
<event>
 6    1  0.6981059E-006  0.1206933E+03  0.7561462E-02  0.1241958E+00
         -1   -1    0    0    0  501 -0.00000000000E+00  0.00000000000E+00  0.46429222249E+02  0.46429222249E+02  0.00000000000E+00 0.  1.
          1   -1    0    0  501    0  0.00000000000E+00 -0.00000000000E+00 -0.34965920260E+03  0.34965920260E+03  0.00000000000E+00 0. -1.
          5    1    1    2  502    0  0.71677575391E+02  0.95301046694E+01 -0.11015717151E+03  0.13183539943E+03  0.41800000000E+01 0. -1.
         -5    1    1    2    0  502 -0.38087405175E+02  0.43786430707E+02 -0.26790204938E+02  0.64055362208E+02  0.41800000000E+01 0. -1.
        -11    1    1    2    0    0  0.26303037380E+02 -0.42396552993E+02 -0.63754368840E+02  0.80956389663E+02  0.00000000000E+00 0.  1.
         11    1    1    2    0    0 -0.59893207595E+02 -0.10919982383E+02 -0.10252823506E+03  0.11924127354E+03  0.00000000000E+00 0. -1.
</event>
<event>
 6    1  0.6981059E-006  0.1391736E+03  0.7561462E-02  0.1214445E+00
         -4   -1    0    0    0  501 -0.00000000000E+00  0.00000000000E+00  0.53175048515E+02  0.53175048515E+02  0.00000000000E+00 0. -1.
          4   -1    0    0  501    0  0.00000000000E+00 -0.00000000000E+00 -0.49038737605E+03  0.49038737605E+03  0.00000000000E+00 0.  1.
          5    1    1    2  502    0  0.12920186310E+02 -0.11163467696E+03 -0.18985898051E+03  0.22066521519E+03  0.41800000000E+01 0.  1.
         -5    1    1    2    0  502 -0.28664247937E+02 -0.32403055574E+01  0.63873776458E+01  0.29839733295E+02  0.41800000000E+01 0.  1.
        -11    1    1    2    0    0  0.43799828801E+02  0.52669569503E+02 -0.74200187512E+02  0.10098602072E+03  0.00000000000E+00 0. -1.
         11    1    1    2    0    0 -0.28055767173E+02  0.62205413014E+02 -0.17954053716E+03  0.19207145536E+03  0.00000000000E+00 0.  1.
</event>
<event>
 6    1  0.6981059E-006  0.9355103E+02  0.7561462E-02  0.1294473E+00
         -1   -1    0    0    0  501 -0.00000000000E+00  0.00000000000E+00  0.37729400453E+02  0.37729400453E+02  0.00000000000E+00 0.  1.
          1   -1    0    0  501    0  0.00000000000E+00 -0.00000000000E+00 -0.37858663819E+03  0.37858663819E+03  0.00000000000E+00 0. -1.
          5    1    1    2  502    0  0.37600072922E+02  0.22913559450E+02 -0.83763201394E+01  0.45015906406E+02  0.41800000000E+01 0. -1.
         -5    1    1    2    0  502 -0.58175495533E+02  0.18600047807E+02 -0.15025703700E+03  0.16224980624E+03  0.41800000000E+01 0. -1.
        -11    1    1    2    0    0 -0.24858840280E+02 -0.15595128622E+02 -0.13310310199E+02  0.32223195596E+02  0.00000000000E+00 0.  1.
         11    1    1    2    0    0  0.45434262891E+02 -0.25918478635E+02 -0.16891357040E+03  0.17682713040E+03  0.00000000000E+00 0. -1.
</event>
<event>
 6    1  0.6981059E-006  0.1251387E+03  0.7561462E-02  0.1234853E+00
         -1   -1    0    0    0  501 -0.00000000000E+00  0.00000000000E+00  0.45663057448E+02  0.45663057448E+02  0.00000000000E+00 0.  1.
          1   -1    0    0  501    0  0.00000000000E+00 -0.00000000000E+00 -0.49464273997E+03  0.49464273997E+03  0.00000000000E+00 0. -1.
          5    1    1    2  502    0  0.37620397027E+02  0.66722442177E+02 -0.70715835574E+02  0.10433302624E+03  0.41800000000E+01 0.  1.
         -5    1    1    2    0  502  0.31416037483E+02 -0.57301017842E+02 -0.40759642493E+02  0.77131024323E+02  0.41800000000E+01 0.  1.
        -11    1    1    2    0    0 -0.29901815317E+02  0.36867502105E+02 -0.70145164377E+02  0.84697552245E+02  0.00000000000E+00 0.  1.
         11    1    1    2    0    0 -0.39134619193E+02 -0.46288926440E+02 -0.26735904008E+03  0.27414419462E+03  0.00000000000E+00 0. -1.
</event>
<event>
 6    1  0.6981059E-006  0.1189975E+03  0.7561462E-02  0.1244760E+00
          1   -1    0    0  501    0  0.00000000000E+00  0.00000000000E+00  0.21533187799E+03  0.21533187799E+03  0.00000000000E+00 0. -1.
         -1   -1    0    0    0  501 -0.00000000000E+00 -0.00000000000E+00 -0.11611695577E+03  0.11611695577E+03  0.00000000000E+00 0.  1.
          5    1    1    2  502    0  0.62700842345E+02  0.72701528710E+01 -0.39307574532E+02  0.74476899567E+02  0.41800000000E+01 0.  1.
         -5    1    1    2    0  502 -0.26240337150E+02 -0.70419186166E+02  0.10979058569E+01  0.75273467246E+02  0.41800000000E+01 0.  1.
        -11    1    1    2    0    0  0.40438681508E+00 -0.13979033605E+02 -0.56075881677E+01  0.15067247734E+02  0.00000000000E+00 0.  1.
         11    1    1    2    0    0 -0.36864892010E+02  0.77128066899E+02  0.14303217907E+03  0.16663121921E+03  0.00000000000E+00 0. -1.
</event>
<event>
 6    1  0.6981059E-006  0.1087391E+03  0.7561462E-02  0.1262923E+00
          1   -1    0    0  501    0  0.00000000000E+00  0.00000000000E+00  0.13002919952E+03  0.13002919952E+03  0.00000000000E+00 0. -1.
         -1   -1    0    0    0  501 -0.00000000000E+00 -0.00000000000E+00 -0.13045372926E+03  0.13045372926E+03  0.00000000000E+00 0.  1.
          5    1    1    2  502    0 -0.24634201556E+02 -0.98776081554E+01  0.25532721090E+02  0.37064852292E+02  0.41800000000E+01 0.  1.
         -5    1    1    2    0  502  0.84042198401E+02  0.48748581931E-02 -0.67783377687E+02  0.10805160724E+03  0.41800000000E+01 0.  1.
        -11    1    1    2    0    0 -0.23016557356E+02 -0.39147554554E+02  0.99327574254E+01  0.46486047478E+02  0.00000000000E+00 0.  1.
         11    1    1    2    0    0 -0.36391439490E+02  0.49020287851E+02  0.31893369428E+02  0.68880421766E+02  0.00000000000E+00 0. -1.
</event>
<event>
 6    1  0.6981059E-006  0.1088103E+03  0.7561462E-02  0.1262789E+00
         -1   -1    0    0    0  501 -0.00000000000E+00  0.00000000000E+00  0.11434479443E+03  0.11434479443E+03  0.00000000000E+00 0.  1.
          1   -1    0    0  501    0  0.00000000000E+00 -0.00000000000E+00 -0.16539499598E+03  0.16539499598E+03  0.00000000000E+00 0. -1.
          5    1    1    2  502    0  0.60000096847E+02  0.30113351548E+02  0.33937861681E+02  0.75339739968E+02  0.41800000000E+01 0. -1.
         -5    1    1    2    0  502 -0.88320269481E+01 -0.66336801975E+02 -0.60766422324E+01  0.67327364252E+02  0.41800000000E+01 0. -1.
        -11    1    1    2    0    0 -0.17813539249E+02 -0.14246209729E+02 -0.72776025393E+02  0.76266811551E+02  0.00000000000E+00 0. -1.
         11    1    1    2    0    0 -0.33354530650E+02  0.50469660157E+02 -0.61353955996E+01  0.60805874637E+02  0.00000000000E+00 0.  1.
</event>
<event>
 6    1  0.6981059E-006  0.1210223E+03  0.7561462E-02  0.1241420E+00
         -1   -1    0    0    0  501 -0.00000000000E+00  0.00000000000E+00  0.10726387584E+04  0.10726387584E+04  0.00000000000E+00 0.  1.
          1   -1    0    0  501    0  0.00000000000E+00 -0.00000000000E+00 -0.20526315360E+02  0.20526315360E+02  0.00000000000E+00 0. -1.
          5    1    1    2  502    0  0.63431361403E+02 -0.82166307018E+02  0.73903902878E+03  0.74630489619E+03  0.41800000000E+01 0. -1.
         -5    1    1    2    0  502 -0.46105860078E+01  0.17733737867E+02  0.18279950954E+02  0.26217779635E+02  0.41800000000E+01 0. -1.
        -11    1    1    2    0    0 -0.46817974682E+02  0.84140665939E+02  0.18619109789E+03  0.20961559901E+03  0.00000000000E+00 0. -1.
         11    1    1    2    0    0 -0.12002800713E+02 -0.19708096788E+02  0.10860236541E+03  0.11102679892E+03  0.00000000000E+00 0.  1.
</event>
<event>
 6    1  0.6981059E-006  0.1072438E+03  0.7561462E-02  0.1265761E+00
         -1   -1    0    0    0  501 -0.00000000000E+00  0.00000000000E+00  0.38671568305E+02  0.38671568305E+02  0.00000000000E+00 0.  1.
          1   -1    0    0  501    0  0.00000000000E+00 -0.00000000000E+00 -0.59114583177E+03  0.59114583177E+03  0.00000000000E+00 0. -1.
          5    1    1    2  502    0  0.91997761792E+01  0.12043539762E+02 -0.11349688127E+03  0.11458052710E+03  0.41800000000E+01 0. -1.
         -5    1    1    2    0  502 -0.87818716272E+02  0.57195589009E+01 -0.32560842198E+02  0.93928276501E+02  0.41800000000E+01 0. -1.
        -11    1    1    2    0    0  0.33607147601E+02  0.29987488130E+02 -0.14895028666E+03  0.15561130329E+03  0.00000000000E+00 0.  1.
         11    1    1    2    0    0  0.45011792492E+02 -0.47750586793E+02 -0.25746625334E+03  0.26569729319E+03  0.00000000000E+00 0. -1.
</event>
<event>
 6    1  0.6981059E-006  0.1270755E+03  0.7561462E-02  0.1231861E+00
          4   -1    0    0  501    0  0.00000000000E+00  0.00000000000E+00  0.32243309447E+02  0.32243309447E+02  0.00000000000E+00 0.  1.
         -4   -1    0    0    0  501 -0.00000000000E+00 -0.00000000000E+00 -0.83763245688E+03  0.83763245688E+03  0.00000000000E+00 0. -1.
          5    1    1    2  502    0 -0.37499656197E+01 -0.62697552597E+02 -0.70194312434E+02  0.94285519789E+02  0.41800000000E+01 0. -1.
         -5    1    1    2    0  502  0.43182994203E+02 -0.51040314540E+02 -0.42983100259E+03  0.43501959483E+03  0.41800000000E+01 0. -1.
        -11    1    1    2    0    0 -0.20215040663E+02  0.19676160658E+02 -0.98934359663E+01  0.29894468426E+02  0.00000000000E+00 0.  1.
         11    1    1    2    0    0 -0.19217987921E+02  0.94061706480E+02 -0.29547039644E+03  0.31067618328E+03  0.00000000000E+00 0. -1.
</event>
<event>
 6    1  0.6981059E-006  0.1351760E+03  0.7561462E-02  0.1219972E+00
         -2   -1    0    0    0  501 -0.00000000000E+00  0.00000000000E+00  0.11511627620E+03  0.11511627620E+03  0.00000000000E+00 0. -1.
          2   -1    0    0  501    0  0.00000000000E+00 -0.00000000000E+00 -0.19897808506E+03  0.19897808506E+03  0.00000000000E+00 0.  1.
          5    1    1    2  502    0  0.11380034127E+03 -0.20678343171E+02 -0.59773334205E+02  0.13026294727E+03  0.41800000000E+01 0.  1.
         -5    1    1    2    0  502 -0.18231098891E+02 -0.20807370020E+02  0.23485603520E+02  0.36528969143E+02  0.41800000000E+01 0.  1.
        -11    1    1    2    0    0  0.12018792937E+02  0.51536654460E+01  0.13135999418E+02  0.18535537001E+02  0.00000000000E+00 0. -1.
         11    1    1    2    0    0 -0.10758803531E+03  0.36332047744E+02 -0.60710077593E+02  0.12876690785E+03  0.00000000000E+00 0.  1.
</event>
<event>
 6    1  0.6981059E-006  0.1079649E+03  0.7561462E-02  0.1264386E+00
         -2   -1    0    0    0  501 -0.00000000000E+00  0.00000000000E+00  0.47055198849E+02  0.47055198849E+02  0.00000000000E+00 0.  1.
          2   -1    0    0  501    0  0.00000000000E+00 -0.00000000000E+00 -0.34832793249E+03  0.34832793249E+03  0.00000000000E+00 0. -1.
          5    1    1    2  502    0 -0.55779020781E+02 -0.37867083431E+02 -0.67432723106E+02  0.95445585086E+02  0.41800000000E+01 0.  1.
         -5    1    1    2    0  502  0.67487462312E+02 -0.20617216865E+02 -0.57080967579E+02  0.90858882121E+02  0.41800000000E+01 0.  1.
        -11    1    1    2    0    0  0.10885004077E+02 -0.37266590702E+01  0.72018847706E+01  0.13573446351E+02  0.00000000000E+00 0.  1.
         11    1    1    2    0    0 -0.22593445609E+02  0.62210959366E+02 -0.18396092773E+03  0.19550521778E+03  0.00000000000E+00 0. -1.
</event>
<event>
 6    1  0.6981059E-006  0.9038425E+02  0.7561462E-02  0.1301924E+00
          2   -1    0    0  501    0  0.00000000000E+00  0.00000000000E+00  0.62661166312E+03  0.62661166312E+03  0.00000000000E+00 0. -1.
         -2   -1    0    0    0  501 -0.00000000000E+00 -0.00000000000E+00 -0.27065006569E+02  0.27065006569E+02  0.00000000000E+00 0.  1.
          5    1    1    2  502    0 -0.58724076424E+01  0.21216422930E+01 -0.14071710106E+02  0.15952177370E+02  0.41800000000E+01 0.  1.
         -5    1    1    2    0  502  0.60754002109E+02 -0.23211817501E+02  0.24188113566E+03  0.25050707262E+03  0.41800000000E+01 0.  1.
        -11    1    1    2    0    0 -0.56396932890E+02  0.52253353626E+02  0.25074547872E+03  0.26226765356E+03  0.00000000000E+00 0.  1.
         11    1    1    2    0    0  0.15153384227E+01 -0.31163178418E+02  0.12099175227E+03  0.12494976613E+03  0.00000000000E+00 0. -1.
</event>
<event>
 6    1  0.6981059E-006  0.1439920E+03  0.7561462E-02  0.1208056E+00
         -2   -1    0    0    0  501 -0.00000000000E+00  0.00000000000E+00  0.13098663255E+04  0.13098663255E+04  0.00000000000E+00 0.  1.
          2   -1    0    0  501    0  0.00000000000E+00 -0.00000000000E+00 -0.29699214202E+02  0.29699214202E+02  0.00000000000E+00 0. -1.
          5    1    1    2  502    0  0.25270702196E+02  0.13465887215E+02  0.42458146800E+02  0.51381953423E+02  0.41800000000E+01 0. -1.
         -5    1    1    2    0  502  0.30397825657E+02  0.10391353762E+03  0.97778784445E+03  0.98377263240E+03  0.41800000000E+01 0.  1.
        -11    1    1    2    0    0 -0.26189095139E+02  0.33662995398E+01  0.16618189236E+02  0.31198796295E+02  0.00000000000E+00 0.  1.
         11    1    1    2    0    0 -0.29479432713E+02 -0.12074572437E+03  0.24330293079E+03  0.27321215756E+03  0.00000000000E+00 0. -1.
</event>
<event>
 6    1  0.6981059E-006  0.9395345E+02  0.7561462E-02  0.1293551E+00
          4   -1    0    0  501    0  0.00000000000E+00  0.00000000000E+00  0.41232887204E+02  0.41232887204E+02  0.00000000000E+00 0. -1.
         -4   -1    0    0    0  501 -0.00000000000E+00 -0.00000000000E+00 -0.37008453224E+03  0.37008453224E+03  0.00000000000E+00 0.  1.
          5    1    1    2  502    0 -0.18123203379E+02  0.88683934517E+02 -0.82164282280E+02  0.12231816065E+03  0.41800000000E+01 0. -1.
         -5    1    1    2    0  502  0.98387179099E+01 -0.44293821290E+02 -0.22821835065E+03  0.23272264812E+03  0.41800000000E+01 0.  1.
        -11    1    1    2    0    0 -0.44066189572E+01 -0.36541359807E+02 -0.70226918895E+01  0.37470087651E+02  0.00000000000E+00 0. -1.
         11    1    1    2    0    0  0.12691104426E+02 -0.78487534189E+01 -0.11446320221E+02  0.18806523028E+02  0.00000000000E+00 0.  1.
</event>
<event>
 6    1  0.6981059E-006  0.9030782E+02  0.7561462E-02  0.1302108E+00
         -1   -1    0    0    0  501 -0.00000000000E+00  0.00000000000E+00  0.16198936578E+03  0.16198936578E+03  0.00000000000E+00 0.  1.
          1   -1    0    0  501    0  0.00000000000E+00 -0.00000000000E+00 -0.91744847904E+02  0.91744847904E+02  0.00000000000E+00 0. -1.
          5    1    1    2  502    0 -0.14668953436E+02  0.38399621650E+02 -0.86695453808E+01  0.42217799029E+02  0.41800000000E+01 0. -1.
         -5    1    1    2    0  502  0.48975589425E+02 -0.41997190139E+02  0.90380852196E+02  0.11112399913E+03  0.41800000000E+01 0. -1.
        -11    1    1    2    0    0 -0.53819153623E+02 -0.33752538424E+01  0.24229278706E+02  0.59118115512E+02  0.00000000000E+00 0.  1.
         11    1    1    2    0    0  0.19512517633E+02  0.69728223321E+01 -0.35696067648E+02  0.41274300008E+02  0.00000000000E+00 0. -1.
</event>
<event>
 6    1  0.6981059E-006  0.1535045E+03  0.7561462E-02  0.1196232E+00
          1   -1    0    0  501    0  0.00000000000E+00  0.00000000000E+00  0.22883769909E+03  0.22883769909E+03  0.00000000000E+00 0. -1.
         -1   -1    0    0    0  501 -0.00000000000E+00 -0.00000000000E+00 -0.13153593248E+03  0.13153593248E+03  0.00000000000E+00 0.  1.
          5    1    1    2  502    0  0.43316724077E+02 -0.78330747217E+02  0.70567840089E+02  0.11405848061E+03  0.41800000000E+01 0. -1.
         -5    1    1    2    0  502  0.72364565321E+02  0.55313763363E+02 -0.77017353318E+01  0.91504272352E+02  0.41800000000E+01 0.  1.
        -11    1    1    2    0    0 -0.54062719401E+02 -0.11957733583E+02  0.57958354075E+02  0.80155697418E+02  0.00000000000E+00 0. -1.
         11    1    1    2    0    0 -0.61618569997E+02  0.34974717436E+02 -0.23522692227E+02  0.74655181185E+02  0.00000000000E+00 0.  1.
</event>
<event>
 6    1  0.6981059E-006  0.1253667E+03  0.7561462E-02  0.1234497E+00
          2   -1    0    0  501    0  0.00000000000E+00  0.00000000000E+00  0.70631052182E+03  0.70631052182E+03  0.00000000000E+00 0. -1.
         -2   -1    0    0    0  501 -0.00000000000E+00 -0.00000000000E+00 -0.23731629116E+02  0.23731629116E+02  0.00000000000E+00 0.  1.
          5    1    1    2  502    0  0.66684664992E+02  0.15221978166E+02  0.13419251711E+03  0.15067732813E+03  0.41800000000E+01 0. -1.
         -5    1    1    2    0  502 -0.53601620298E+02  0.47996995601E+02  0.15716330935E+03  0.17290061738E+03  0.41800000000E+01 0. -1.
        -11    1    1    2    0    0 -0.49465770542E+02 -0.19286896752E+02  0.17885000779E+03  0.18656412337E+03  0.00000000000E+00 0.  1.
         11    1    1    2    0    0  0.36382725848E+02 -0.43932077015E+02  0.21237305846E+03  0.21990008206E+03  0.00000000000E+00 0. -1.
</event>
<event>
 6    1  0.6981059E-006  0.7571513E+02  0.7561462E-02  0.1341671E+00
         -1   -1    0    0    0  501 -0.00000000000E+00  0.00000000000E+00  0.87297657207E+02  0.87297657207E+02  0.00000000000E+00 0.  1.
          1   -1    0    0  501    0  0.00000000000E+00 -0.00000000000E+00 -0.15210759291E+03  0.15210759291E+03  0.00000000000E+00 0. -1.
          5    1    1    2  502    0  0.22647297156E+02  0.54037753473E+02  0.18745718330E+02  0.61659169834E+02  0.41800000000E+01 0.  1.
         -5    1    1    2    0  502 -0.45983744165E+02 -0.24132748229E+02 -0.51159763386E+02  0.73018409009E+02  0.41800000000E+01 0.  1.
        -11    1    1    2    0    0  0.16167897607E+02 -0.90302605538E+01 -0.63749366617E+02  0.66384699011E+02  0.00000000000E+00 0. -1.
         11    1    1    2    0    0  0.71685494024E+01 -0.20874744690E+02  0.31353475971E+02  0.38342972262E+02  0.00000000000E+00 0.  1.
</event>
<event>
 6    1  0.6981059E-006  0.7296916E+02  0.7561462E-02  0.1350278E+00
          1   -1    0    0  501    0  0.00000000000E+00  0.00000000000E+00  0.22777469059E+02  0.22777469059E+02  0.00000000000E+00 0.  1.
         -1   -1    0    0    0  501 -0.00000000000E+00 -0.00000000000E+00 -0.60904874477E+03  0.60904874477E+03  0.00000000000E+00 0. -1.
          5    1    1    2  502    0 -0.27333255262E+02  0.42006380610E+02 -0.34902016030E+03  0.35262471206E+03  0.41800000000E+01 0. -1.
         -5    1    1    2    0  502  0.96309479147E+01 -0.53469062906E+02 -0.98958239439E+02  0.11296858589E+03  0.41800000000E+01 0. -1.
        -11    1    1    2    0    0 -0.10896376743E+02  0.23989187678E+01  0.99714400934E+01  0.14963804827E+02  0.00000000000E+00 0.  1.
         11    1    1    2    0    0  0.28598684090E+02  0.90637635279E+01 -0.14826431607E+03  0.15126911105E+03  0.00000000000E+00 0. -1.
</event>
<event>
 6    1  0.6981059E-006  0.1236906E+03  0.7561462E-02  0.1237130E+00
         -1   -1    0    0    0  501 -0.00000000000E+00  0.00000000000E+00  0.42505040611E+03  0.42505040611E+03  0.00000000000E+00 0.  1.
          1   -1    0    0  501    0  0.00000000000E+00 -0.00000000000E+00 -0.46520699725E+02  0.46520699725E+02  0.00000000000E+00 0. -1.
          5    1    1    2  502    0  0.19892721714E+02  0.47182797527E+02  0.35285424525E+02  0.62325519200E+02  0.41800000000E+01 0.  1.
         -5    1    1    2    0  502  0.62976277864E+02 -0.41352168093E+02  0.23571833501E+03  0.24750074594E+03  0.41800000000E+01 0.  1.
        -11    1    1    2    0    0 -0.91795059195E+02 -0.28556877648E+02  0.90012486290E+02  0.13169690901E+03  0.00000000000E+00 0.  1.
         11    1    1    2    0    0  0.89260596165E+01  0.22726248215E+02  0.17513460561E+02  0.30047931693E+02  0.00000000000E+00 0. -1.
</event>
<event>
 6    1  0.6981059E-006  0.1375367E+03  0.7561462E-02  0.1216683E+00
          1   -1    0    0  501    0  0.00000000000E+00  0.00000000000E+00  0.93717339764E+03  0.93717339764E+03  0.00000000000E+00 0. -1.
         -1   -1    0    0    0  501 -0.00000000000E+00 -0.00000000000E+00 -0.26004676656E+02  0.26004676656E+02  0.00000000000E+00 0.  1.
          5    1    1    2  502    0  0.16605580407E+02  0.70662675731E+02  0.10237690592E+03  0.12556855620E+03  0.41800000000E+01 0. -1.
         -5    1    1    2    0  502 -0.47733371646E+02  0.34275043645E+02  0.38242684891E+03  0.38693800609E+03  0.41800000000E+01 0. -1.
        -11    1    1    2    0    0 -0.19636320470E+02 -0.87654501458E+02  0.30576231304E+03  0.31868399518E+03  0.00000000000E+00 0.  1.
         11    1    1    2    0    0  0.50764111709E+02 -0.17283217918E+02  0.12060265311E+03  0.13198751682E+03  0.00000000000E+00 0. -1.
</event>
<event>
 6    1  0.6981059E-006  0.1163243E+03  0.7561462E-02  0.1249287E+00
          1   -1    0    0  501    0  0.00000000000E+00  0.00000000000E+00  0.13138685799E+03  0.13138685799E+03  0.00000000000E+00 0. -1.
         -1   -1    0    0    0  501 -0.00000000000E+00 -0.00000000000E+00 -0.12978738664E+03  0.12978738664E+03  0.00000000000E+00 0.  1.
          5    1    1    2  502    0 -0.46182327140E+02 -0.57717147910E+02 -0.19659936401E+02  0.76603276707E+02  0.41800000000E+01 0. -1.
         -5    1    1    2    0  502  0.10175418449E+02  0.68208993061E+02 -0.28605540075E+02  0.74778039544E+02  0.41800000000E+01 0.  1.
        -11    1    1    2    0    0  0.62436294439E+02 -0.61710128341E+01  0.53895673241E+02  0.82711038301E+02  0.00000000000E+00 0.  1.
         11    1    1    2    0    0 -0.26429385749E+02 -0.43208323166E+01 -0.40307254063E+01  0.27081890079E+02  0.00000000000E+00 0. -1.
</event>
<event>
 6    1  0.6981059E-006  0.1259700E+03  0.7561462E-02  0.1233561E+00
          1   -1    0    0  501    0  0.00000000000E+00  0.00000000000E+00  0.18671243216E+03  0.18671243216E+03  0.00000000000E+00 0. -1.
         -1   -1    0    0    0  501 -0.00000000000E+00 -0.00000000000E+00 -0.97727335410E+02  0.97727335410E+02  0.00000000000E+00 0.  1.
          5    1    1    2  502    0 -0.18161531461E+02  0.10015611014E+03  0.61660479334E+01  0.10206164888E+03  0.41800000000E+01 0. -1.
         -5    1    1    2    0  502  0.26442859569E+02 -0.30718569128E+02 -0.63981278430E+01  0.41246378645E+02  0.41800000000E+01 0. -1.
        -11    1    1    2    0    0  0.33963130002E+02 -0.82279985674E+01  0.30245762674E+02  0.46216883492E+02  0.00000000000E+00 0.  1.
         11    1    1    2    0    0 -0.42244458110E+02 -0.61209542448E+02  0.58971413982E+02  0.94914856554E+02  0.00000000000E+00 0. -1.
</event>
<event>
 6    1  0.6981059E-006  0.1027917E+03  0.7561462E-02  0.1274533E+00
         -1   -1    0    0    0  501 -0.00000000000E+00  0.00000000000E+00  0.95946071890E+02  0.95946071890E+02  0.00000000000E+00 0.  1.
          1   -1    0    0  501    0  0.00000000000E+00 -0.00000000000E+00 -0.19093438597E+03  0.19093438597E+03  0.00000000000E+00 0. -1.
          5    1    1    2  502    0  0.10330087116E+02  0.63544627148E+01 -0.86887410592E+02  0.87829291330E+02  0.41800000000E+01 0. -1.
         -5    1    1    2    0  502  0.67896429741E+02 -0.23575263770E+02  0.20527603072E+02  0.74863696952E+02  0.41800000000E+01 0. -1.
        -11    1    1    2    0    0 -0.54349336237E+02  0.54191418644E+02 -0.20389557086E+02  0.79412179432E+02  0.00000000000E+00 0.  1.
         11    1    1    2    0    0 -0.23877180620E+02 -0.36970617589E+02 -0.82389494756E+01  0.44775290146E+02  0.00000000000E+00 0. -1.
</event>
<event>
 6    1  0.6981059E-006  0.8748311E+02  0.7561462E-02  0.1309064E+00
         -3   -1    0    0    0  501 -0.00000000000E+00  0.00000000000E+00  0.24540421392E+03  0.24540421392E+03  0.00000000000E+00 0.  1.
          3   -1    0    0  501    0  0.00000000000E+00 -0.00000000000E+00 -0.65148523761E+02  0.65148523761E+02  0.00000000000E+00 0. -1.
          5    1    1    2  502    0 -0.25754889114E+02  0.29873845442E+01 -0.18706834463E+02  0.32243710011E+02  0.41800000000E+01 0.  1.
         -5    1    1    2    0  502 -0.22933450425E+02  0.40370827853E+02  0.16297314236E+03  0.16950948180E+03  0.41800000000E+01 0.  1.
        -11    1    1    2    0    0  0.66385513055E+02 -0.14060460077E+02  0.18358799750E+02  0.70297783816E+02  0.00000000000E+00 0.  1.
         11    1    1    2    0    0 -0.17697173516E+02 -0.29297752320E+02  0.17630582512E+02  0.38501762053E+02  0.00000000000E+00 0. -1.
</event>
<event>
 6    1  0.6981059E-006  0.1113043E+03  0.7561462E-02  0.1258173E+00
          2   -1    0    0  501    0  0.00000000000E+00  0.00000000000E+00  0.37606175450E+03  0.37606175450E+03  0.00000000000E+00 0. -1.
         -2   -1    0    0    0  501 -0.00000000000E+00 -0.00000000000E+00 -0.38550577639E+02  0.38550577639E+02  0.00000000000E+00 0.  1.
          5    1    1    2  502    0  0.35005847045E+02 -0.20961472492E+02  0.71939772861E+02  0.82810603039E+02  0.41800000000E+01 0. -1.
         -5    1    1    2    0  502 -0.80673475923E+02  0.40146125385E+02  0.85333305041E+02  0.12417393628E+03  0.41800000000E+01 0. -1.
        -11    1    1    2    0    0  0.20251799091E+02 -0.48516932062E+02  0.53206638357E+02  0.74799561685E+02  0.00000000000E+00 0.  1.
         11    1    1    2    0    0  0.25415829787E+02  0.29332279169E+02  0.12703146060E+03  0.13282823114E+03  0.00000000000E+00 0. -1.
</event>
<event>
 6    1  0.6981059E-006  0.1990010E+03  0.7561462E-02  0.1150585E+00
         -1   -1    0    0    0  501 -0.00000000000E+00  0.00000000000E+00  0.67530116094E+02  0.67530116094E+02  0.00000000000E+00 0.  1.
          1   -1    0    0  501    0  0.00000000000E+00 -0.00000000000E+00 -0.71076719429E+03  0.71076719429E+03  0.00000000000E+00 0. -1.
          5    1    1    2  502    0  0.70899201221E+02 -0.22548285897E+02 -0.29650034562E+02  0.80197997981E+02  0.41800000000E+01 0. -1.
         -5    1    1    2    0  502  0.10065269029E+03  0.73207469410E+02 -0.16293214693E+03  0.20507231540E+03  0.41800000000E+01 0.  1.
        -11    1    1    2    0    0 -0.16884498187E+03 -0.67545356839E+02 -0.42405288323E+03  0.46140204909E+03  0.00000000000E+00 0. -1.
         11    1    1    2    0    0 -0.27069096345E+01  0.16886173326E+02 -0.26602013476E+02  0.31624947910E+02  0.00000000000E+00 0.  1.
</event>
<event>
 6    1  0.6981059E-006  0.1658389E+03  0.7561462E-02  0.1182258E+00
          2   -1    0    0  501    0  0.00000000000E+00  0.00000000000E+00  0.52123127299E+03  0.52123127299E+03  0.00000000000E+00 0. -1.
         -2   -1    0    0    0  501 -0.00000000000E+00 -0.00000000000E+00 -0.39468907393E+03  0.39468907393E+03  0.00000000000E+00 0.  1.
          5    1    1    2  502    0  0.32929326553E+02 -0.34609365029E+02 -0.18573878231E+03  0.19182939386E+03  0.41800000000E+01 0. -1.
         -5    1    1    2    0  502 -0.12836285735E+03 -0.35964955008E+02 -0.17162964898E+03  0.21735848257E+03  0.41800000000E+01 0.  1.
        -11    1    1    2    0    0  0.66940034095E+02  0.92653523415E+02  0.37021023206E+03  0.38745484832E+03  0.00000000000E+00 0. -1.
         11    1    1    2    0    0  0.28493496704E+02 -0.22079203378E+02  0.11370039830E+03  0.11927762217E+03  0.00000000000E+00 0.  1.
</event>
<event>
 6    1  0.6981059E-006  0.1167213E+03  0.7561462E-02  0.1248606E+00
          2   -1    0    0  501    0  0.00000000000E+00  0.00000000000E+00  0.46892324089E+03  0.46892324089E+03  0.00000000000E+00 0. -1.
         -2   -1    0    0    0  501 -0.00000000000E+00 -0.00000000000E+00 -0.35490750200E+02  0.35490750200E+02  0.00000000000E+00 0.  1.
          5    1    1    2  502    0 -0.20056056456E+02 -0.66567429963E+02  0.11407726792E+03  0.13365838390E+03  0.41800000000E+01 0. -1.
         -5    1    1    2    0  502 -0.46939337119E+02  0.54548803051E+02  0.14747552100E+03  0.16415046445E+03  0.41800000000E+01 0. -1.
        -11    1    1    2    0    0 -0.52707995346E+00  0.23251690657E+02  0.11580898783E+03  0.11812129611E+03  0.00000000000E+00 0. -1.
         11    1    1    2    0    0  0.67522473528E+02 -0.11233063745E+02  0.56070713934E+02  0.88483846625E+02  0.00000000000E+00 0.  1.
</event>
<event>
 6    1  0.6981059E-006  0.7678622E+02  0.7561462E-02  0.1338427E+00
          2   -1    0    0  501    0  0.00000000000E+00  0.00000000000E+00  0.62863942517E+02  0.62863942517E+02  0.00000000000E+00 0. -1.
         -2   -1    0    0    0  501 -0.00000000000E+00 -0.00000000000E+00 -0.24300151582E+03  0.24300151582E+03  0.00000000000E+00 0.  1.
          5    1    1    2  502    0 -0.64397721530E+02  0.76642421312E+01 -0.40674500013E+02  0.76666123529E+02  0.41800000000E+01 0.  1.
         -5    1    1    2    0  502  0.45961155491E+02  0.23020445733E+02 -0.11633043887E+03  0.12725019507E+03  0.41800000000E+01 0.  1.
        -11    1    1    2    0    0  0.13779624937E+02 -0.13818929155E+02 -0.58944764490E+02  0.62091272552E+02  0.00000000000E+00 0.  1.
         11    1    1    2    0    0  0.46569411018E+01 -0.16865758710E+02  0.35812130068E+02  0.39857867195E+02  0.00000000000E+00 0. -1.
</event>
<event>
 6    1  0.6981059E-006  0.1369399E+03  0.7561462E-02  0.1217507E+00
          1   -1    0    0  501    0  0.00000000000E+00  0.00000000000E+00  0.31230910706E+03  0.31230910706E+03  0.00000000000E+00 0. -1.
         -1   -1    0    0    0  501 -0.00000000000E+00 -0.00000000000E+00 -0.13191667546E+03  0.13191667546E+03  0.00000000000E+00 0.  1.
          5    1    1    2  502    0 -0.58706718725E+02 -0.24282549101E+02 -0.39051938219E+02  0.74690342702E+02  0.41800000000E+01 0. -1.
         -5    1    1    2    0  502  0.57718204790E+02 -0.70599818541E+02 -0.23006856877E+02  0.94140923118E+02  0.41800000000E+01 0. -1.
        -11    1    1    2    0    0 -0.10833295304E+02  0.10364543901E+03  0.15538960818E+03  0.18709801615E+03  0.00000000000E+00 0.  1.
         11    1    1    2    0    0  0.11821809239E+02 -0.87630713661E+01  0.87061618511E+02  0.88296500560E+02  0.00000000000E+00 0. -1.
</event>
<event>
 6    1  0.6981059E-006  0.2326401E+03  0.7561462E-02  0.1124795E+00
          2   -1    0    0  501    0  0.00000000000E+00  0.00000000000E+00  0.88651947232E+03  0.88651947232E+03  0.00000000000E+00 0.  1.
         -2   -1    0    0    0  501 -0.00000000000E+00 -0.00000000000E+00 -0.10986195715E+03  0.10986195715E+03  0.00000000000E+00 0. -1.
          5    1    1    2  502    0 -0.50463909386E+01  0.16507827599E+02  0.13095545295E+02  0.22066720194E+02  0.41800000000E+01 0.  1.
         -5    1    1    2    0  502  0.15259089876E+03 -0.16243986325E+03  0.53871364411E+02  0.22932572438E+03  0.41800000000E+01 0.  1.
        -11    1    1    2    0    0 -0.44363797399E+02 -0.18157124191E+01  0.18346955435E+03  0.18876578267E+03  0.00000000000E+00 0.  1.
         11    1    1    2    0    0 -0.10318071042E+03  0.14774774807E+03  0.52622105112E+03  0.55622320223E+03  0.00000000000E+00 0. -1.
</event>
<event>
 6    1  0.6981059E-006  0.1092292E+03  0.7561462E-02  0.1262004E+00
          1   -1    0    0  501    0  0.00000000000E+00  0.00000000000E+00  0.23060948304E+03  0.23060948304E+03  0.00000000000E+00 0. -1.
         -1   -1    0    0    0  501 -0.00000000000E+00 -0.00000000000E+00 -0.70195091134E+02  0.70195091134E+02  0.00000000000E+00 0.  1.
          5    1    1    2  502    0  0.10612579932E+02  0.43478081206E+02 -0.15879201872E+01  0.44977375298E+02  0.41800000000E+01 0.  1.
         -5    1    1    2    0  502 -0.61621577414E+01 -0.84324874104E+02  0.29244982918E+02  0.89562257712E+02  0.41800000000E+01 0.  1.
        -11    1    1    2    0    0 -0.41641440343E+02  0.19594583573E+02  0.29997020548E+02  0.54934310781E+02  0.00000000000E+00 0.  1.
         11    1    1    2    0    0  0.37191018152E+02  0.21252209325E+02  0.10276030863E+03  0.11133063038E+03  0.00000000000E+00 0. -1.
</event>
<event>
 6    1  0.6981059E-006  0.9211428E+02  0.7561462E-02  0.1297811E+00
          2   -1    0    0  501    0  0.00000000000E+00  0.00000000000E+00  0.16105426437E+04  0.16105426437E+04  0.00000000000E+00 0. -1.
         -2   -1    0    0    0  501 -0.00000000000E+00 -0.00000000000E+00 -0.82880263195E+01  0.82880263195E+01  0.00000000000E+00 0.  1.
          5    1    1    2  502    0  0.31805836421E+02  0.38039989029E+02  0.16397994730E+03  0.17136378705E+03  0.41800000000E+01 0.  1.
         -5    1    1    2    0  502  0.48445129744E+01 -0.36145068313E+02  0.87399982563E+03  0.87477031435E+03  0.41800000000E+01 0.  1.
        -11    1    1    2    0    0 -0.64484235833E+02  0.13602657449E+02  0.39187348823E+03  0.39737649621E+03  0.00000000000E+00 0. -1.
         11    1    1    2    0    0  0.27833886438E+02 -0.15497578165E+02  0.17240135621E+03  0.17532007240E+03  0.00000000000E+00 0.  1.
</event>
<event>
 6    1  0.6981059E-006  0.1687474E+03  0.7561462E-02  0.1179160E+00
          2   -1    0    0  501    0  0.00000000000E+00  0.00000000000E+00  0.29563476722E+03  0.29563476722E+03  0.00000000000E+00 0.  1.
         -2   -1    0    0    0  501 -0.00000000000E+00 -0.00000000000E+00 -0.10594253554E+03  0.10594253554E+03  0.00000000000E+00 0. -1.
          5    1    1    2  502    0 -0.13499151846E+03  0.39597322749E+02  0.24445339644E+02  0.14284853886E+03  0.41800000000E+01 0. -1.
         -5    1    1    2    0  502  0.18449168488E+02  0.27864000940E+02  0.39136465837E+02  0.51632448369E+02  0.41800000000E+01 0. -1.
        -11    1    1    2    0    0  0.96339246656E+02 -0.39418121568E+01  0.62129366157E+02  0.11470329755E+03  0.00000000000E+00 0. -1.
         11    1    1    2    0    0  0.20203103316E+02 -0.63519511533E+02  0.63981060041E+02  0.92393017988E+02  0.00000000000E+00 0.  1.
</event>
<event>
 6    1  0.6981059E-006  0.1079373E+03  0.7561462E-02  0.1264438E+00
         -2   -1    0    0    0  501 -0.00000000000E+00  0.00000000000E+00  0.40682470441E+02  0.40682470441E+02  0.00000000000E+00 0.  1.
          2   -1    0    0  501    0  0.00000000000E+00 -0.00000000000E+00 -0.38805315967E+03  0.38805315967E+03  0.00000000000E+00 0. -1.
          5    1    1    2  502    0 -0.27414408595E+02  0.49411980655E+02 -0.46145963765E+02  0.73075413120E+02  0.41800000000E+01 0.  1.
         -5    1    1    2    0  502  0.76971336446E+02 -0.12834687409E+02 -0.12860190956E+03  0.15048335249E+03  0.41800000000E+01 0.  1.
        -11    1    1    2    0    0 -0.14683959581E+02 -0.43149826275E+02 -0.16176832135E+03  0.16806699845E+03  0.00000000000E+00 0. -1.
         11    1    1    2    0    0 -0.34872968270E+02  0.65725330283E+01 -0.10854494565E+02  0.37109866055E+02  0.00000000000E+00 0.  1.
</event>
<event>
 6    1  0.6981059E-006  0.9387724E+02  0.7561462E-02  0.1293725E+00
          1   -1    0    0  501    0  0.00000000000E+00  0.00000000000E+00  0.56980592946E+02  0.56980592946E+02  0.00000000000E+00 0. -1.
         -1   -1    0    0    0  501 -0.00000000000E+00 -0.00000000000E+00 -0.32691558877E+03  0.32691558877E+03  0.00000000000E+00 0.  1.
          5    1    1    2  502    0  0.13175675171E+00  0.52533885714E+02 -0.38219841545E+02  0.65100347125E+02  0.41800000000E+01 0. -1.
         -5    1    1    2    0  502  0.37184821702E+02 -0.42224674734E+02 -0.23279922297E+03  0.23953827405E+03  0.41800000000E+01 0.  1.
        -11    1    1    2    0    0 -0.41766482318E+02  0.21182408184E+02 -0.41931679217E+01  0.47018253040E+02  0.00000000000E+00 0. -1.
         11    1    1    2    0    0  0.44499038651E+01 -0.31491619164E+02  0.52772366081E+01  0.32239307502E+02  0.00000000000E+00 0.  1.
</event>
<event>
 6    1  0.6981059E-006  0.1074203E+03  0.7561462E-02  0.1265423E+00
          2   -1    0    0  501    0  0.00000000000E+00  0.00000000000E+00  0.72891817236E+03  0.72891817236E+03  0.00000000000E+00 0. -1.
         -2   -1    0    0    0  501 -0.00000000000E+00 -0.00000000000E+00 -0.30318607478E+02  0.30318607478E+02  0.00000000000E+00 0.  1.
          5    1    1    2  502    0 -0.37245456550E+02 -0.60830031276E+02  0.65058938379E+02  0.96631540409E+02  0.41800000000E+01 0.  1.
         -5    1    1    2    0  502 -0.42045044990E+02 -0.18099727313E+01  0.29098246500E+03  0.29403967274E+03  0.41800000000E+01 0.  1.
        -11    1    1    2    0    0  0.89862665623E+01  0.58268772524E+01 -0.32076085029E+01  0.11180082180E+02  0.00000000000E+00 0.  1.
         11    1    1    2    0    0  0.70304234978E+02  0.56813126755E+02  0.34576577001E+03  0.35738548451E+03  0.00000000000E+00 0. -1.
</event>
<event>
 6    1  0.6981059E-006  0.1029929E+03  0.7561462E-02  0.1274125E+00
         -2   -1    0    0    0  501 -0.00000000000E+00  0.00000000000E+00  0.14093078647E+03  0.14093078647E+03  0.00000000000E+00 0.  1.
          2   -1    0    0  501    0  0.00000000000E+00 -0.00000000000E+00 -0.13565009123E+03  0.13565009123E+03  0.00000000000E+00 0. -1.
          5    1    1    2  502    0 -0.38369012688E+02  0.60151125700E+02  0.89445645479E+02  0.11449163704E+03  0.41800000000E+01 0. -1.
         -5    1    1    2    0  502  0.22500853442E+02 -0.27861795662E+02 -0.10732045624E+02  0.37619373551E+02  0.41800000000E+01 0. -1.
        -11    1    1    2    0    0  0.33009678778E+02 -0.58483571412E+02 -0.37894341295E+02  0.77109974194E+02  0.00000000000E+00 0.  1.
         11    1    1    2    0    0 -0.17141519532E+02  0.26194241373E+02 -0.35538563324E+02  0.47359892907E+02  0.00000000000E+00 0. -1.
</event>
<event>
 6    1  0.6981059E-006  0.1263982E+03  0.7561462E-02  0.1232900E+00
          2   -1    0    0  501    0  0.00000000000E+00  0.00000000000E+00  0.11820775639E+03  0.11820775639E+03  0.00000000000E+00 0. -1.
         -2   -1    0    0    0  501 -0.00000000000E+00 -0.00000000000E+00 -0.15874744850E+03  0.15874744850E+03  0.00000000000E+00 0.  1.
          5    1    1    2  502    0  0.90249801474E+02 -0.62657116216E+02 -0.91078291710E+01  0.11032391323E+03  0.41800000000E+01 0. -1.
         -5    1    1    2    0  502 -0.13342424539E+02  0.32582452834E+02 -0.25050493301E+02  0.43412396154E+02  0.41800000000E+01 0. -1.
        -11    1    1    2    0    0  0.13082855786E+02  0.30641666851E+01 -0.24112837940E+02  0.27603970485E+02  0.00000000000E+00 0.  1.
         11    1    1    2    0    0 -0.89990232721E+02  0.27010496697E+02  0.17731468302E+02  0.95614925013E+02  0.00000000000E+00 0. -1.
</event>
<event>
 6    1  0.6981059E-006  0.1156954E+03  0.7561462E-02  0.1250372E+00
         -2   -1    0    0    0  501 -0.00000000000E+00  0.00000000000E+00  0.75617261064E+02  0.75617261064E+02  0.00000000000E+00 0.  1.
          2   -1    0    0  501    0  0.00000000000E+00 -0.00000000000E+00 -0.29587156242E+03  0.29587156242E+03  0.00000000000E+00 0. -1.
          5    1    1    2  502    0  0.57141664020E+01  0.56641323522E+02 -0.33077084814E+02  0.65973154903E+02  0.41800000000E+01 0. -1.
         -5    1    1    2    0  502  0.63097790629E+02 -0.47432612945E+02  0.73099157544E+01  0.79385711696E+02  0.41800000000E+01 0. -1.
        -11    1    1    2    0    0 -0.37179074988E+02 -0.37510920931E+02 -0.40939670016E+02  0.66823718747E+02  0.00000000000E+00 0. -1.
         11    1    1    2    0    0 -0.31632882044E+02  0.28302210354E+02 -0.15354746228E+03  0.15930623813E+03  0.00000000000E+00 0.  1.
</event>
<event>
 6    1  0.6981059E-006  0.9325681E+02  0.7561462E-02  0.1295151E+00
          1   -1    0    0  501    0  0.00000000000E+00  0.00000000000E+00  0.60521752396E+02  0.60521752396E+02  0.00000000000E+00 0. -1.
         -1   -1    0    0    0  501 -0.00000000000E+00 -0.00000000000E+00 -0.22207206644E+03  0.22207206644E+03  0.00000000000E+00 0.  1.
          5    1    1    2  502    0 -0.51843135365E+02  0.61738775832E+02 -0.88629079552E+02  0.11988316507E+03  0.41800000000E+01 0.  1.
         -5    1    1    2    0  502  0.37747689384E+02 -0.24883865230E+02 -0.16840221917E+02  0.48426854913E+02  0.41800000000E+01 0.  1.
        -11    1    1    2    0    0 -0.35381693643E+01  0.98462765119E+01 -0.63021630368E+02  0.63884221040E+02  0.00000000000E+00 0.  1.
         11    1    1    2    0    0  0.17633615345E+02 -0.46701187114E+02  0.69406177936E+01  0.50399577809E+02  0.00000000000E+00 0. -1.
</event>
<event>
 6    1  0.6981059E-006  0.1049861E+03  0.7561462E-02  0.1270147E+00
         -1   -1    0    0    0  501 -0.00000000000E+00  0.00000000000E+00  0.40932571581E+02  0.40932571581E+02  0.00000000000E+00 0.  1.
          1   -1    0    0  501    0  0.00000000000E+00 -0.00000000000E+00 -0.37147915299E+03  0.37147915299E+03  0.00000000000E+00 0. -1.
          5    1    1    2  502    0  0.15575133416E+02 -0.58709356478E+02 -0.57398546344E+02  0.83674600934E+02  0.41800000000E+01 0. -1.
         -5    1    1    2    0  502 -0.39501290449E+02  0.56295845716E+02 -0.46749543694E+02  0.83262034731E+02  0.41800000000E+01 0.  1.
        -11    1    1    2    0    0 -0.25123580081E+02  0.15376658123E+02 -0.27814137668E+02  0.40512493694E+02  0.00000000000E+00 0.  1.
         11    1    1    2    0    0  0.49049737115E+02 -0.12963147360E+02 -0.19858435370E+03  0.20496259521E+03  0.00000000000E+00 0. -1.
</event>
<event>
 6    1  0.6981059E-006  0.1932179E+03  0.7561462E-02  0.1155591E+00
          2   -1    0    0  501    0  0.00000000000E+00  0.00000000000E+00  0.11414608769E+04  0.11414608769E+04  0.00000000000E+00 0. -1.
         -2   -1    0    0    0  501 -0.00000000000E+00 -0.00000000000E+00 -0.51885567409E+02  0.51885567409E+02  0.00000000000E+00 0.  1.
          5    1    1    2  502    0  0.12608776015E+03  0.72260615600E+02  0.26678713212E+03  0.30382983082E+03  0.41800000000E+01 0. -1.
         -5    1    1    2    0  502  0.39314716314E+02 -0.18033779166E+00 -0.26638022759E+01  0.39626350868E+02  0.41800000000E+01 0. -1.
        -11    1    1    2    0    0 -0.12021680578E+03 -0.92736761445E+02  0.65340796745E+03  0.67081603979E+03  0.00000000000E+00 0.  1.
         11    1    1    2    0    0 -0.45185670684E+02  0.20656483636E+02  0.17204401222E+03  0.17907422286E+03  0.00000000000E+00 0. -1.
</event>
<event>
 6    1  0.6981059E-006  0.1256800E+03  0.7561462E-02  0.1234010E+00
         -1   -1    0    0    0  501 -0.00000000000E+00  0.00000000000E+00  0.51881935896E+02  0.51881935896E+02  0.00000000000E+00 0.  1.
          1   -1    0    0  501    0  0.00000000000E+00 -0.00000000000E+00 -0.42525426580E+03  0.42525426580E+03  0.00000000000E+00 0. -1.
          5    1    1    2  502    0  0.47115238026E+02 -0.92994478262E+02 -0.11147368728E+03  0.15268160989E+03  0.41800000000E+01 0.  1.
         -5    1    1    2    0  502 -0.32154999834E+02  0.10923084790E+02  0.39971328707E+00  0.34218269482E+02  0.41800000000E+01 0.  1.
        -11    1    1    2    0    0  0.12997828492E+02  0.83798082035E+02 -0.13149460337E+03  0.15646690645E+03  0.00000000000E+00 0.  1.
         11    1    1    2    0    0 -0.27958066685E+02 -0.17266885627E+01 -0.13080375254E+03  0.13376941588E+03  0.00000000000E+00 0. -1.
</event>
<event>
 6    1  0.6981059E-006  0.1347297E+03  0.7561462E-02  0.1220602E+00
          1   -1    0    0  501    0  0.00000000000E+00  0.00000000000E+00  0.40928501059E+02  0.40928501059E+02  0.00000000000E+00 0. -1.
         -1   -1    0    0    0  501 -0.00000000000E+00 -0.00000000000E+00 -0.60343864401E+03  0.60343864401E+03  0.00000000000E+00 0.  1.
          5    1    1    2  502    0 -0.57282082922E+02 -0.61724248729E+02 -0.24839964718E+03  0.26231846489E+03  0.41800000000E+01 0. -1.
         -5    1    1    2    0  502  0.60868283084E+02 -0.17711462528E+02 -0.21791509577E+03  0.22698701539E+03  0.41800000000E+01 0. -1.
        -11    1    1    2    0    0  0.11379418160E+02 -0.18947228961E+02 -0.17491634356E+02  0.28185916969E+02  0.00000000000E+00 0.  1.
         11    1    1    2    0    0 -0.14965618322E+02  0.98382940217E+02 -0.78703765648E+02  0.12687574782E+03  0.00000000000E+00 0. -1.
</event>
<event>
 6    1  0.6981059E-006  0.1271103E+03  0.7561462E-02  0.1231808E+00
          1   -1    0    0  501    0  0.00000000000E+00  0.00000000000E+00  0.13516816618E+03  0.13516816618E+03  0.00000000000E+00 0. -1.
         -1   -1    0    0    0  501 -0.00000000000E+00 -0.00000000000E+00 -0.14392905741E+03  0.14392905741E+03  0.00000000000E+00 0.  1.
          5    1    1    2  502    0  0.64562241011E+02 -0.70850608605E+02 -0.57415719794E+02  0.11181291957E+03  0.41800000000E+01 0.  1.
         -5    1    1    2    0  502  0.10513604940E+02  0.36134960270E+02  0.19894290126E+02  0.42772963682E+02  0.41800000000E+01 0.  1.
        -11    1    1    2    0    0  0.14371967898E+02  0.27054406593E+02  0.13374522804E+02  0.33427118296E+02  0.00000000000E+00 0.  1.
         11    1    1    2    0    0 -0.89447813849E+02  0.76612417427E+01  0.15386015637E+02  0.91084222040E+02  0.00000000000E+00 0. -1.
</event>
<event>
 6    1  0.6981059E-006  0.1157436E+03  0.7561462E-02  0.1250289E+00
         -3   -1    0    0    0  501 -0.00000000000E+00  0.00000000000E+00  0.23782394317E+03  0.23782394317E+03  0.00000000000E+00 0.  1.
          3   -1    0    0  501    0  0.00000000000E+00 -0.00000000000E+00 -0.67920487660E+02  0.67920487660E+02  0.00000000000E+00 0. -1.
          5    1    1    2  502    0  0.36053076047E+02  0.21451472404E+02  0.40927418952E+02  0.58758114187E+02  0.41800000000E+01 0.  1.
         -5    1    1    2    0  502 -0.69856646660E+02 -0.62035868651E+02  0.10069147777E+03  0.13742141819E+03  0.41800000000E+01 0.  1.
        -11    1    1    2    0    0 -0.24824376916E+02  0.24805471290E+02 -0.11554691016E+02  0.36946880514E+02  0.00000000000E+00 0. -1.
         11    1    1    2    0    0  0.58627947529E+02  0.15778924957E+02  0.39839249804E+02  0.72618017938E+02  0.00000000000E+00 0.  1.
</event>
<event>
 6    1  0.6981059E-006  0.1041553E+03  0.7561462E-02  0.1271793E+00
         -1   -1    0    0    0  501 -0.00000000000E+00  0.00000000000E+00  0.32730369078E+03  0.32730369078E+03  0.00000000000E+00 0.  1.
          1   -1    0    0  501    0  0.00000000000E+00 -0.00000000000E+00 -0.43506662567E+02  0.43506662567E+02  0.00000000000E+00 0. -1.
          5    1    1    2  502    0 -0.41591622732E+02 -0.51138455249E+02  0.17841335222E+03  0.19024668548E+03  0.41800000000E+01 0. -1.
         -5    1    1    2    0  502  0.33064014544E+00  0.41554137130E+02  0.15881900800E+02  0.44682914056E+02  0.41800000000E+01 0. -1.
        -11    1    1    2    0    0 -0.75979074043E+01  0.41465569169E+02  0.50124076584E+02  0.65494615632E+02  0.00000000000E+00 0.  1.
         11    1    1    2    0    0  0.48858889990E+02 -0.31881251050E+02  0.39377698609E+02  0.70386138176E+02  0.00000000000E+00 0. -1.
</event>
<event>
 6    1  0.6981059E-006  0.1519925E+03  0.7561462E-02  0.1198046E+00
         -4   -1    0    0    0  501 -0.00000000000E+00  0.00000000000E+00  0.36135481092E+03  0.36135481092E+03  0.00000000000E+00 0.  1.
          4   -1    0    0  501    0  0.00000000000E+00 -0.00000000000E+00 -0.71729232657E+02  0.71729232657E+02  0.00000000000E+00 0. -1.
          5    1    1    2  502    0  0.43286131621E+02 -0.12867321737E+03  0.12118734789E+03  0.18202838171E+03  0.41800000000E+01 0. -1.
         -5    1    1    2    0  502 -0.23737951451E+02  0.14410324171E+02  0.63088563485E+02  0.69056404659E+02  0.41800000000E+01 0. -1.
        -11    1    1    2    0    0 -0.18070870108E+02 -0.65769994193E+01  0.40537587746E+02  0.44867686458E+02  0.00000000000E+00 0. -1.
         11    1    1    2    0    0 -0.14773100613E+01  0.12083989262E+03  0.64812079147E+02  0.13713157075E+03  0.00000000000E+00 0.  1.
</event>
<event>
 6    1  0.6981059E-006  0.1681008E+03  0.7561462E-02  0.1179843E+00
          4   -1    0    0  501    0  0.00000000000E+00  0.00000000000E+00  0.22698632409E+03  0.22698632409E+03  0.00000000000E+00 0. -1.
         -4   -1    0    0    0  501 -0.00000000000E+00 -0.00000000000E+00 -0.15098024293E+03  0.15098024293E+03  0.00000000000E+00 0.  1.
          5    1    1    2  502    0  0.12870431393E+02  0.12416646082E+03 -0.43336649052E+02  0.13220626138E+03  0.41800000000E+01 0.  1.
         -5    1    1    2    0  502  0.44992949145E+02  0.56957167890E+01  0.34855681074E+02  0.57351526271E+02  0.41800000000E+01 0.  1.
        -11    1    1    2    0    0 -0.79751041152E+02 -0.89774906962E+02  0.75542887001E+02  0.14186786198E+03  0.00000000000E+00 0.  1.
         11    1    1    2    0    0  0.21887660614E+02 -0.40087270651E+02  0.89441621330E+01  0.46540917391E+02  0.00000000000E+00 0. -1.
</event>
<event>
 6    1  0.6981059E-006  0.1024064E+03  0.7561462E-02  0.1275316E+00
         -4   -1    0    0    0  501 -0.00000000000E+00  0.00000000000E+00  0.64531794466E+02  0.64531794466E+02  0.00000000000E+00 0.  1.
          4   -1    0    0  501    0  0.00000000000E+00 -0.00000000000E+00 -0.19816690263E+03  0.19816690263E+03  0.00000000000E+00 0. -1.
          5    1    1    2  502    0 -0.36817180235E+02 -0.42810411890E+02 -0.50988950605E+02  0.76194367315E+02  0.41800000000E+01 0. -1.
         -5    1    1    2    0  502  0.39900963299E+02  0.37912954361E+02  0.88440300875E+01  0.55903204280E+02  0.41800000000E+01 0. -1.
        -11    1    1    2    0    0  0.33956762936E+01  0.48648215709E+02 -0.52294050996E+02  0.71504176653E+02  0.00000000000E+00 0. -1.
         11    1    1    2    0    0 -0.64794593574E+01 -0.43750758180E+02 -0.39196136650E+02  0.59096948848E+02  0.00000000000E+00 0.  1.
</event>
<event>
 6    1  0.6981059E-006  0.1408539E+03  0.7561462E-02  0.1212185E+00
         -2   -1    0    0    0  501 -0.00000000000E+00  0.00000000000E+00  0.91917761582E+02  0.91917761582E+02  0.00000000000E+00 0. -1.
          2   -1    0    0  501    0  0.00000000000E+00 -0.00000000000E+00 -0.31312424641E+03  0.31312424641E+03  0.00000000000E+00 0.  1.
          5    1    1    2  502    0  0.25041648733E+01 -0.13413434018E+03 -0.49363468667E+02  0.14301229491E+03  0.41800000000E+01 0.  1.
         -5    1    1    2    0  502 -0.89655911175E+01  0.23522869197E+02  0.12027928115E+02  0.28210825122E+02  0.41800000000E+01 0.  1.
        -11    1    1    2    0    0  0.25470900927E+02  0.31023828907E+02 -0.95681088679E+01  0.41264918047E+02  0.00000000000E+00 0. -1.
         11    1    1    2    0    0 -0.19009474683E+02  0.79587642072E+02 -0.17430283541E+03  0.19255396991E+03  0.00000000000E+00 0.  1.
</event>
<event>
 6    1  0.6981059E-006  0.1447972E+03  0.7561462E-02  0.1207016E+00
         -1   -1    0    0    0  501 -0.00000000000E+00  0.00000000000E+00  0.25776021571E+03  0.25776021571E+03  0.00000000000E+00 0.  1.
          1   -1    0    0  501    0  0.00000000000E+00 -0.00000000000E+00 -0.11974922990E+03  0.11974922990E+03  0.00000000000E+00 0. -1.
          5    1    1    2  502    0  0.91525872040E+02  0.49673750533E+02  0.22575106070E+02  0.10663758511E+03  0.41800000000E+01 0.  1.
         -5    1    1    2    0  502  0.27067129441E+00  0.37700048711E+02  0.10716380097E+03  0.11367901994E+03  0.41800000000E+01 0.  1.
        -11    1    1    2    0    0  0.62225583500E+01 -0.36462075650E+02 -0.21518930360E+02  0.42793312059E+02  0.00000000000E+00 0. -1.
         11    1    1    2    0    0 -0.98019101684E+02 -0.50911723594E+02  0.29791009131E+02  0.11439952849E+03  0.00000000000E+00 0.  1.
</event>
<event>
 6    1  0.6981059E-006  0.1122632E+03  0.7561462E-02  0.1256435E+00
         -1   -1    0    0    0  501 -0.00000000000E+00  0.00000000000E+00  0.37282694854E+02  0.37282694854E+02  0.00000000000E+00 0.  1.
          1   -1    0    0  501    0  0.00000000000E+00 -0.00000000000E+00 -0.62497414019E+03  0.62497414019E+03  0.00000000000E+00 0. -1.
          5    1    1    2  502    0 -0.30428217228E+01  0.66840515830E+02 -0.21913372141E+03  0.22915927557E+03  0.41800000000E+01 0. -1.
         -5    1    1    2    0  502  0.18695370774E+00  0.26908688969E+02  0.12495298941E+02  0.29961932336E+02  0.41800000000E+01 0. -1.
        -11    1    1    2    0    0 -0.41913525505E+00  0.18226147658E+02 -0.35990448759E+02  0.40344522983E+02  0.00000000000E+00 0.  1.
         11    1    1    2    0    0  0.32750032701E+01 -0.11197535246E+03 -0.34506257411E+03  0.36279110415E+03  0.00000000000E+00 0. -1.
</event>
<event>
 6    1  0.6981059E-006  0.1064358E+03  0.7561462E-02  0.1267316E+00
         -1   -1    0    0    0  501 -0.00000000000E+00  0.00000000000E+00  0.29148820823E+03  0.29148820823E+03  0.00000000000E+00 0.  1.
          1   -1    0    0  501    0  0.00000000000E+00 -0.00000000000E+00 -0.57260349503E+02  0.57260349503E+02  0.00000000000E+00 0. -1.
          5    1    1    2  502    0  0.40939945632E+02 -0.74196371471E+01  0.50765151657E+02  0.65770078200E+02  0.41800000000E+01 0. -1.
         -5    1    1    2    0  502 -0.87495016327E+02  0.34271198247E+02  0.13565091879E+03  0.16507130907E+03  0.41800000000E+01 0. -1.
        -11    1    1    2    0    0 -0.54615427842E+01  0.11257311113E+02  0.51811177718E+02  0.53300596991E+02  0.00000000000E+00 0.  1.
         11    1    1    2    0    0  0.52016613480E+02 -0.38108872212E+02 -0.39993894372E+01  0.64606573466E+02  0.00000000000E+00 0. -1.
</event>
<event>
 6    1  0.6981059E-006  0.2603120E+03  0.7561462E-02  0.1106956E+00
          2   -1    0    0  501    0  0.00000000000E+00  0.00000000000E+00  0.22045842524E+04  0.22045842524E+04  0.00000000000E+00 0. -1.
         -2   -1    0    0    0  501 -0.00000000000E+00 -0.00000000000E+00 -0.31887679775E+02  0.31887679775E+02  0.00000000000E+00 0.  1.
          5    1    1    2  502    0  0.14719607456E+03 -0.67019549153E+02  0.49737986774E+03  0.52303203494E+03  0.41800000000E+01 0.  1.
         -5    1    1    2    0  502  0.18979395091E+02 -0.99705370123E+02  0.43524273445E+03  0.44693969231E+03  0.41800000000E+01 0.  1.
        -11    1    1    2    0    0 -0.16668547153E+03  0.10819639539E+03  0.94160633946E+03  0.96234765283E+03  0.00000000000E+00 0.  1.
         11    1    1    2    0    0  0.51000187827E+00  0.58528523882E+02  0.29846763094E+03  0.30415255207E+03  0.00000000000E+00 0. -1.
</event>
<event>
 6    1  0.6981059E-006  0.8887402E+02  0.7561462E-02  0.1305602E+00
         -1   -1    0    0    0  501 -0.00000000000E+00  0.00000000000E+00  0.24780208832E+02  0.24780208832E+02  0.00000000000E+00 0.  1.
          1   -1    0    0  501    0  0.00000000000E+00 -0.00000000000E+00 -0.70850615263E+03  0.70850615263E+03  0.00000000000E+00 0. -1.
          5    1    1    2  502    0  0.12096562022E+02  0.28040945345E+02 -0.18133892791E+03  0.18393993749E+03  0.41800000000E+01 0. -1.
         -5    1    1    2    0  502 -0.45108639819E+02 -0.17760620635E+02 -0.14084692567E+02  0.50656490170E+02  0.41800000000E+01 0. -1.
        -11    1    1    2    0    0  0.88233351479E+01  0.40802212036E+02 -0.15008195167E+03  0.15577953642E+03  0.00000000000E+00 0. -1.
         11    1    1    2    0    0  0.24188742649E+02 -0.51082536747E+02 -0.33822037166E+03  0.34291039738E+03  0.00000000000E+00 0.  1.
</event>
<event>
 6    1  0.6981059E-006  0.9016949E+02  0.7561462E-02  0.1302442E+00
          2   -1    0    0  501    0  0.00000000000E+00  0.00000000000E+00  0.20090425878E+03  0.20090425878E+03  0.00000000000E+00 0. -1.
         -2   -1    0    0    0  501 -0.00000000000E+00 -0.00000000000E+00 -0.10411443595E+03  0.10411443595E+03  0.00000000000E+00 0.  1.
          5    1    1    2  502    0  0.50132705394E+02  0.24876202012E+02 -0.68994126475E+02  0.88936918458E+02  0.41800000000E+01 0.  1.
         -5    1    1    2    0  502 -0.29268244862E+02 -0.32424105854E+02  0.18678047803E+02  0.47689565604E+02  0.41800000000E+01 0.  1.
        -11    1    1    2    0    0 -0.28617042055E+02 -0.30315682647E+02  0.92832795437E+02  0.10176396031E+03  0.00000000000E+00 0. -1.
         11    1    1    2    0    0  0.77525815236E+01  0.37863586489E+02  0.54273106070E+02  0.66628250349E+02  0.00000000000E+00 0.  1.
</event>
<event>
 6    1  0.6981059E-006  0.1698598E+03  0.7561462E-02  0.1177994E+00
          2   -1    0    0  501    0  0.00000000000E+00  0.00000000000E+00  0.25735845987E+02  0.25735845987E+02  0.00000000000E+00 0. -1.
         -2   -1    0    0    0  501 -0.00000000000E+00 -0.00000000000E+00 -0.13211274467E+04  0.13211274467E+04  0.00000000000E+00 0.  1.
          5    1    1    2  502    0  0.20378737673E+02 -0.98555801206E+01 -0.15361327744E+03  0.15532848037E+03  0.41800000000E+01 0.  1.
         -5    1    1    2    0  502 -0.15466116800E+03  0.53146317305E+02 -0.70013455554E+03  0.71899268160E+03  0.41800000000E+01 0.  1.
        -11    1    1    2    0    0  0.29870804601E+02  0.15109249722E+02 -0.34029620794E+02  0.47734363786E+02  0.00000000000E+00 0. -1.
         11    1    1    2    0    0  0.10441162573E+03 -0.58399986906E+02 -0.40761414690E+03  0.42480776689E+03  0.00000000000E+00 0.  1.
</event>
<event>
 6    1  0.6981059E-006  0.1048278E+03  0.7561462E-02  0.1270459E+00
         -2   -1    0    0    0  501 -0.00000000000E+00  0.00000000000E+00  0.61108212835E+02  0.61108212835E+02  0.00000000000E+00 0.  1.
          2   -1    0    0  501    0  0.00000000000E+00 -0.00000000000E+00 -0.26455408386E+03  0.26455408386E+03  0.00000000000E+00 0. -1.
          5    1    1    2  502    0 -0.48275408224E+00 -0.52714213042E+02 -0.10018121125E+03  0.11328181141E+03  0.41800000000E+01 0.  1.
         -5    1    1    2    0  502 -0.60228684500E+02  0.25636298076E+02 -0.10360348833E+02  0.66404242662E+02  0.41800000000E+01 0.  1.
        -11    1    1    2    0    0 -0.10214362222E+02  0.16594625881E+02  0.89297491477E+01  0.21434906661E+02  0.00000000000E+00 0.  1.
         11    1    1    2    0    0  0.70925800804E+02  0.10483289084E+02 -0.10183406009E+03  0.12454133597E+03  0.00000000000E+00 0. -1.
</event>
<event>
 6    1  0.6981059E-006  0.1246749E+03  0.7561462E-02  0.1235578E+00
         -2   -1    0    0    0  501 -0.00000000000E+00  0.00000000000E+00  0.12218342743E+03  0.12218342743E+03  0.00000000000E+00 0.  1.
          2   -1    0    0  501    0  0.00000000000E+00 -0.00000000000E+00 -0.17423925567E+03  0.17423925567E+03  0.00000000000E+00 0. -1.
          5    1    1    2  502    0  0.92130054683E+02  0.32376505223E+02 -0.34474511789E+02  0.10364434104E+03  0.41800000000E+01 0.  1.
         -5    1    1    2    0  502 -0.17534577359E+02  0.19580588648E+02  0.43826124788E+02  0.51274384140E+02  0.41800000000E+01 0.  1.
        -11    1    1    2    0    0 -0.23969470780E+02 -0.67826680555E+02 -0.48931966088E+02  0.87001904749E+02  0.00000000000E+00 0. -1.
         11    1    1    2    0    0 -0.50626006544E+02  0.15869586684E+02 -0.12475475153E+02  0.54502053176E+02  0.00000000000E+00 0.  1.
</event>
<event>
 6    1  0.6981059E-006  0.3098044E+03  0.7561462E-02  0.1080440E+00
          1   -1    0    0  501    0  0.00000000000E+00  0.00000000000E+00  0.10411635627E+04  0.10411635627E+04  0.00000000000E+00 0. -1.
         -1   -1    0    0    0  501 -0.00000000000E+00 -0.00000000000E+00 -0.11020663356E+03  0.11020663356E+03  0.00000000000E+00 0.  1.
          5    1    1    2  502    0  0.66794969548E+02  0.25994537169E+02  0.23335307517E+02  0.75493661300E+02  0.41800000000E+01 0.  1.
         -5    1    1    2    0  502  0.22367306352E+03 -0.92116366444E+02  0.24745024819E+03  0.34606959133E+03  0.41800000000E+01 0.  1.
        -11    1    1    2    0    0 -0.19407898273E+03  0.77166999049E+02  0.38453200967E+03  0.43759143472E+03  0.00000000000E+00 0.  1.
         11    1    1    2    0    0 -0.96389050339E+02 -0.11045169775E+02  0.27563936377E+03  0.29221550894E+03  0.00000000000E+00 0. -1.
</event>
<event>
 6    1  0.6981059E-006  0.1335124E+03  0.7561462E-02  0.1222335E+00
         -1   -1    0    0    0  501 -0.00000000000E+00  0.00000000000E+00  0.74351383356E+02  0.74351383356E+02  0.00000000000E+00 0.  1.
          1   -1    0    0  501    0  0.00000000000E+00 -0.00000000000E+00 -0.24649994298E+03  0.24649994298E+03  0.00000000000E+00 0. -1.
          5    1    1    2  502    0 -0.47460070337E+02 -0.90349389613E+02 -0.55030688217E+02  0.11602292672E+03  0.41800000000E+01 0. -1.
         -5    1    1    2    0  502  0.32253122066E+02  0.22712667227E+02 -0.35554737412E+02  0.53270450421E+02  0.41800000000E+01 0. -1.
        -11    1    1    2    0    0 -0.18408888115E+02  0.85283849808E+02 -0.70035004092E+02  0.11187995351E+03  0.00000000000E+00 0. -1.
         11    1    1    2    0    0  0.33615836386E+02 -0.17647127422E+02 -0.11528129906E+02  0.39677995682E+02  0.00000000000E+00 0.  1.
</event>
<event>
 6    1  0.6981059E-006  0.6764004E+02  0.7561462E-02  0.1368307E+00
          2   -1    0    0  501    0  0.00000000000E+00  0.00000000000E+00  0.19749835433E+03  0.19749835433E+03  0.00000000000E+00 0. -1.
         -2   -1    0    0    0  501 -0.00000000000E+00 -0.00000000000E+00 -0.65036503720E+02  0.65036503720E+02  0.00000000000E+00 0.  1.
          5    1    1    2  502    0 -0.26504489948E+02  0.79006051513E+01  0.11241985022E+03  0.11584732484E+03  0.41800000000E+01 0.  1.
         -5    1    1    2    0  502  0.14702246043E+01 -0.29360924877E+02 -0.26213222427E+02  0.39608470054E+02  0.41800000000E+01 0.  1.
        -11    1    1    2    0    0  0.47895348922E+02  0.25777736997E+01 -0.46274977939E+01  0.48187374918E+02  0.00000000000E+00 0.  1.
         11    1    1    2    0    0 -0.22861083579E+02  0.18882546026E+02  0.50882720615E+02  0.58891688242E+02  0.00000000000E+00 0. -1.
</event>
<event>
 6    1  0.6981059E-006  0.1299769E+03  0.7561462E-02  0.1227490E+00
          1   -1    0    0  501    0  0.00000000000E+00  0.00000000000E+00  0.22681179626E+03  0.22681179626E+03  0.00000000000E+00 0. -1.
         -1   -1    0    0    0  501 -0.00000000000E+00 -0.00000000000E+00 -0.12409076058E+03  0.12409076058E+03  0.00000000000E+00 0.  1.
          5    1    1    2  502    0  0.54470655091E+02 -0.29961234567E+01  0.40550452725E+02  0.68101693356E+02  0.41800000000E+01 0. -1.
         -5    1    1    2    0  502  0.25462746317E+02  0.75610631472E+02 -0.56646837564E+02  0.97936998359E+02  0.41800000000E+01 0. -1.
        -11    1    1    2    0    0 -0.52845221128E+02 -0.56909742533E+01  0.94966295868E+02  0.10882831403E+03  0.00000000000E+00 0. -1.
         11    1    1    2    0    0 -0.27088180280E+02 -0.66923533762E+02  0.23851124651E+02  0.76035551087E+02  0.00000000000E+00 0.  1.
</event>
<event>
 6    1  0.6981059E-006  0.1128127E+03  0.7561462E-02  0.1255448E+00
         -1   -1    0    0    0  501 -0.00000000000E+00  0.00000000000E+00  0.18579744183E+02  0.18579744183E+02  0.00000000000E+00 0.  1.
          1   -1    0    0  501    0  0.00000000000E+00 -0.00000000000E+00 -0.74831086208E+03  0.74831086208E+03  0.00000000000E+00 0. -1.
          5    1    1    2  502    0 -0.53907364152E+02 -0.27634589998E+02 -0.19583413059E+03  0.20503207939E+03  0.41800000000E+01 0. -1.
         -5    1    1    2    0  502  0.31833206331E+02  0.59463468652E+02 -0.14090105503E+03  0.15626847679E+03  0.41800000000E+01 0. -1.
        -11    1    1    2    0    0 -0.90917506510E+01 -0.56717523627E+02 -0.18172309661E+03  0.19058546969E+03  0.00000000000E+00 0.  1.
         11    1    1    2    0    0  0.31165908472E+02  0.24888644973E+02 -0.21127283566E+03  0.21500458039E+03  0.00000000000E+00 0. -1.
</event>
<event>
 6    1  0.6981059E-006  0.9432969E+02  0.7561462E-02  0.1292693E+00
          2   -1    0    0  501    0  0.00000000000E+00  0.00000000000E+00  0.72652537492E+02  0.72652537492E+02  0.00000000000E+00 0. -1.
         -2   -1    0    0    0  501 -0.00000000000E+00 -0.00000000000E+00 -0.20521268999E+03  0.20521268999E+03  0.00000000000E+00 0.  1.
          5    1    1    2  502    0 -0.42875819012E+02 -0.75198063202E+02 -0.60595852959E+01  0.86875057060E+02  0.41800000000E+01 0.  1.
         -5    1    1    2    0  502  0.92738553243E+01  0.34592149780E+02 -0.46141762178E+02  0.58558994492E+02  0.41800000000E+01 0.  1.
        -11    1    1    2    0    0  0.16598921310E+02  0.45345300284E+02  0.18750348384E+01  0.48324281704E+02  0.00000000000E+00 0. -1.
         11    1    1    2    0    0  0.17003042378E+02 -0.47393868632E+01 -0.82233839864E+02  0.84106894228E+02  0.00000000000E+00 0.  1.
</event>
<event>
 6    1  0.6981059E-006  0.1398978E+03  0.7561462E-02  0.1213467E+00
         -2   -1    0    0    0  501 -0.00000000000E+00  0.00000000000E+00  0.20949804102E+03  0.20949804102E+03  0.00000000000E+00 0. -1.
          2   -1    0    0  501    0  0.00000000000E+00 -0.00000000000E+00 -0.14689808472E+03  0.14689808472E+03  0.00000000000E+00 0.  1.
          5    1    1    2  502    0  0.31092747526E+02  0.71570425088E+02  0.44359584413E+02  0.89857274749E+02  0.41800000000E+01 0.  1.
         -5    1    1    2    0  502  0.76484619027E+02 -0.44108466621E+02  0.70066488398E+02  0.11279290302E+03  0.41800000000E+01 0.  1.
        -11    1    1    2    0    0 -0.42074764806E+02 -0.22133811960E+02  0.24122342246E+02  0.53311151374E+02  0.00000000000E+00 0. -1.
         11    1    1    2    0    0 -0.65502601747E+02 -0.53281465071E+01 -0.75948458757E+02  0.10043479660E+03  0.00000000000E+00 0.  1.
</event>
<event>
 6    1  0.6981059E-006  0.7323615E+02  0.7561462E-02  0.1349422E+00
         -1   -1    0    0    0  501 -0.00000000000E+00  0.00000000000E+00  0.25603273884E+03  0.25603273884E+03  0.00000000000E+00 0.  1.
          1   -1    0    0  501    0  0.00000000000E+00 -0.00000000000E+00 -0.55247458872E+02  0.55247458872E+02  0.00000000000E+00 0. -1.
          5    1    1    2  502    0  0.54862641557E+02 -0.19506704507E+02  0.17949171632E+03  0.18874631012E+03  0.41800000000E+01 0.  1.
         -5    1    1    2    0  502 -0.17279209302E+02  0.22518070721E+02 -0.51179067165E+01  0.29142751281E+02  0.41800000000E+01 0.  1.
        -11    1    1    2    0    0 -0.34059828967E+02  0.17708254345E+02  0.49190995636E+02  0.62397181610E+02  0.00000000000E+00 0.  1.
         11    1    1    2    0    0 -0.35236032883E+01 -0.20719620559E+02 -0.22779525269E+02  0.30993954696E+02  0.00000000000E+00 0. -1.
</event>
<event>
 6    1  0.6981059E-006  0.1128462E+03  0.7561462E-02  0.1255388E+00
          1   -1    0    0  501    0  0.00000000000E+00  0.00000000000E+00  0.50702846320E+02  0.50702846320E+02  0.00000000000E+00 0. -1.
         -1   -1    0    0    0  501 -0.00000000000E+00 -0.00000000000E+00 -0.78132089755E+03  0.78132089755E+03  0.00000000000E+00 0.  1.
          5    1    1    2  502    0 -0.43751061398E+02  0.49753172890E+02 -0.55000917607E+03  0.55400099255E+03  0.41800000000E+01 0.  1.
         -5    1    1    2    0  502 -0.31879302630E+02 -0.48239510479E+02 -0.14388776732E+03  0.15512737441E+03  0.41800000000E+01 0.  1.
        -11    1    1    2    0    0  0.52438519108E+02  0.31362349848E+02 -0.51624749665E+02  0.79990687284E+02  0.00000000000E+00 0.  1.
         11    1    1    2    0    0  0.23191844920E+02 -0.32876012259E+02  0.14903641817E+02  0.42904689631E+02  0.00000000000E+00 0. -1.
</event>
<event>
 6    1  0.6981059E-006  0.2350433E+03  0.7561462E-02  0.1123140E+00
         -1   -1    0    0    0  501 -0.00000000000E+00  0.00000000000E+00  0.42332150315E+02  0.42332150315E+02  0.00000000000E+00 0.  1.
          1   -1    0    0  501    0  0.00000000000E+00 -0.00000000000E+00 -0.14289990121E+04  0.14289990121E+04  0.00000000000E+00 0. -1.
          5    1    1    2  502    0  0.17689276092E+03 -0.12523507058E+03 -0.56268451572E+03  0.60299768523E+03  0.41800000000E+01 0.  1.
         -5    1    1    2    0  502 -0.19968418608E+02 -0.26795375159E+02 -0.62894156936E+02  0.71343375645E+02  0.41800000000E+01 0.  1.
        -11    1    1    2    0    0 -0.82420583700E+02  0.95238407968E+02 -0.28229399315E+03  0.30911713886E+03  0.00000000000E+00 0.  1.
         11    1    1    2    0    0 -0.74503758618E+02  0.56792037769E+02 -0.47879419595E+03  0.48787296264E+03  0.00000000000E+00 0. -1.
</event>
<event>
 6    1  0.6981059E-006  0.1582065E+03  0.7561462E-02  0.1190737E+00
          4   -1    0    0  501    0  0.00000000000E+00  0.00000000000E+00  0.10895482430E+04  0.10895482430E+04  0.00000000000E+00 0. -1.
         -4   -1    0    0    0  501 -0.00000000000E+00 -0.00000000000E+00 -0.27186161342E+02  0.27186161342E+02  0.00000000000E+00 0.  1.
          5    1    1    2  502    0 -0.11993420289E+03 -0.29120875135E+02  0.24842444540E+03  0.27742461294E+03  0.41800000000E+01 0.  1.
         -5    1    1    2    0  502 -0.11199696632E+02  0.37846329627E+02  0.24721436679E+03  0.25038009789E+03  0.41800000000E+01 0.  1.
        -11    1    1    2    0    0  0.81103123464E+02 -0.43760407269E+02  0.25170572890E+03  0.26804563761E+03  0.00000000000E+00 0.  1.
         11    1    1    2    0    0  0.50030776063E+02  0.35034952777E+02  0.31501754062E+03  0.32088405595E+03  0.00000000000E+00 0. -1.
</event>
<event>
 6    1  0.7563530E-006  0.1123874E+03  0.7561462E-02  0.1256212E+00
         -1   -1    0    0    0  501 -0.00000000000E+00  0.00000000000E+00  0.12819593849E+02  0.12819593849E+02  0.00000000000E+00 0.  1.
          1   -1    0    0  501    0  0.00000000000E+00 -0.00000000000E+00 -0.14174738521E+04  0.14174738521E+04  0.00000000000E+00 0. -1.
          5    1    1    2  502    0 -0.20228404308E+02  0.13314353795E+02 -0.56078805300E+03  0.56132626265E+03  0.41800000000E+01 0.  1.
         -5    1    1    2    0  502  0.81099501708E+02  0.33710388656E+02 -0.33139069587E+03  0.34285679983E+03  0.41800000000E+01 0.  1.
        -11    1    1    2    0    0 -0.22288760252E+02 -0.65722766865E+02 -0.39511743489E+03  0.40116587376E+03  0.00000000000E+00 0. -1.
         11    1    1    2    0    0 -0.38582337148E+02  0.18698024414E+02 -0.11735807453E+03  0.12494450974E+03  0.00000000000E+00 0.  1.
</event>
<event>
 6    1  0.6981059E-006  0.1103793E+03  0.7561462E-02  0.1259869E+00
          2   -1    0    0  501    0  0.00000000000E+00  0.00000000000E+00  0.48905366041E+03  0.48905366041E+03  0.00000000000E+00 0. -1.
         -2   -1    0    0    0  501 -0.00000000000E+00 -0.00000000000E+00 -0.28743698501E+02  0.28743698501E+02  0.00000000000E+00 0.  1.
          5    1    1    2  502    0  0.47804955385E+02 -0.59106360287E+00  0.15272043647E+03  0.16008331341E+03  0.41800000000E+01 0.  1.
         -5    1    1    2    0  502 -0.58149118114E+02  0.39967361720E+02  0.76147574897E+02  0.10389723530E+03  0.41800000000E+01 0.  1.
        -11    1    1    2    0    0  0.34014427788E+02 -0.61116920833E+02  0.18056449017E+03  0.19363830825E+03  0.00000000000E+00 0. -1.
         11    1    1    2    0    0 -0.23670265059E+02  0.21740622716E+02  0.50877460363E+02  0.60178501951E+02  0.00000000000E+00 0.  1.
</event>
<event>
 6    1  0.6981059E-006  0.1078883E+03  0.7561462E-02  0.1264531E+00
         -1   -1    0    0    0  501 -0.00000000000E+00  0.00000000000E+00  0.37900636662E+02  0.37900636662E+02  0.00000000000E+00 0.  1.
          1   -1    0    0  501    0  0.00000000000E+00 -0.00000000000E+00 -0.37859498602E+03  0.37859498602E+03  0.00000000000E+00 0. -1.
          5    1    1    2  502    0 -0.14413052603E+02  0.44414904139E+02 -0.16471645926E+02  0.49691119071E+02  0.41800000000E+01 0. -1.
         -5    1    1    2    0  502  0.62542142061E+02 -0.24733996362E+02 -0.15364246963E+03  0.16776999429E+03  0.41800000000E+01 0. -1.
        -11    1    1    2    0    0 -0.73851580457E+02 -0.13980458554E+02 -0.11302477244E+03  0.13573543511E+03  0.00000000000E+00 0.  1.
         11    1    1    2    0    0  0.25722490998E+02 -0.57004492224E+01 -0.57555461356E+02  0.63299074214E+02  0.00000000000E+00 0. -1.
</event>
<event>
 6    1  0.6981059E-006  0.2069310E+03  0.7561462E-02  0.1144020E+00
         -1   -1    0    0    0  501 -0.00000000000E+00  0.00000000000E+00  0.77415941542E+02  0.77415941542E+02  0.00000000000E+00 0.  1.
          1   -1    0    0  501    0  0.00000000000E+00 -0.00000000000E+00 -0.68292797931E+03  0.68292797931E+03  0.00000000000E+00 0. -1.
          5    1    1    2  502    0  0.23416906300E+02  0.50230314500E+02 -0.20432840047E+03  0.21175222226E+03  0.41800000000E+01 0. -1.
         -5    1    1    2    0  502  0.10042259159E+03  0.10892866987E+03 -0.12333658566E+03  0.19281996209E+03  0.41800000000E+01 0. -1.
        -11    1    1    2    0    0 -0.57073584950E+02 -0.11945692694E+03 -0.11506702381E+03  0.17540744414E+03  0.00000000000E+00 0.  1.
         11    1    1    2    0    0 -0.66765912936E+02 -0.39702057431E+02 -0.16278002783E+03  0.18036429235E+03  0.00000000000E+00 0. -1.
</event>
<event>
 6    1  0.6981059E-006  0.1194142E+03  0.7561462E-02  0.1244067E+00
          1   -1    0    0  501    0  0.00000000000E+00  0.00000000000E+00  0.20197400285E+02  0.20197400285E+02  0.00000000000E+00 0. -1.
         -1   -1    0    0    0  501 -0.00000000000E+00 -0.00000000000E+00 -0.72444610615E+03  0.72444610615E+03  0.00000000000E+00 0.  1.
          5    1    1    2  502    0 -0.52760398970E+02 -0.99757788658E+01 -0.16402804517E+03  0.17264370207E+03  0.41800000000E+01 0. -1.
         -5    1    1    2    0  502  0.71879232341E+02 -0.36260381742E+02 -0.27983300462E+03  0.29121370538E+03  0.41800000000E+01 0. -1.
        -11    1    1    2    0    0  0.26858855547E+02 -0.12614190696E+02 -0.89546600074E+02  0.94335091631E+02  0.00000000000E+00 0.  1.
         11    1    1    2    0    0 -0.45977688918E+02  0.58850351303E+02 -0.17084105601E+03  0.18645100736E+03  0.00000000000E+00 0. -1.
</event>
<event>
 6    1  0.6981059E-006  0.3923232E+03  0.7561462E-02  0.1046471E+00
         -2   -1    0    0    0  501 -0.00000000000E+00  0.00000000000E+00  0.91012904221E+02  0.91012904221E+02  0.00000000000E+00 0. -1.
          2   -1    0    0  501    0  0.00000000000E+00 -0.00000000000E+00 -0.18708329752E+04  0.18708329752E+04  0.00000000000E+00 0.  1.
          5    1    1    2  502    0  0.11366085247E+03 -0.30564201050E+03 -0.49036093765E+03  0.58890334482E+03  0.41800000000E+01 0.  1.
         -5    1    1    2    0  502 -0.30619626961E+02 -0.67845568096E+02 -0.14918194294E+03  0.16677322076E+03  0.41800000000E+01 0.  1.
        -11    1    1    2    0    0 -0.23636408485E+02  0.53040938709E+02 -0.95783426084E+02  0.11201109631E+03  0.00000000000E+00 0. -1.
         11    1    1    2    0    0 -0.59404817021E+02  0.32044663988E+03 -0.10444937643E+04  0.10941582175E+04  0.00000000000E+00 0.  1.
</event>
<event>
 6    1  0.6981059E-006  0.7435960E+02  0.7561462E-02  0.1345866E+00
         -1   -1    0    0    0  501 -0.00000000000E+00  0.00000000000E+00  0.94298204432E+02  0.94298204432E+02  0.00000000000E+00 0.  1.
          1   -1    0    0  501    0  0.00000000000E+00 -0.00000000000E+00 -0.19895342438E+03  0.19895342438E+03  0.00000000000E+00 0. -1.
          5    1    1    2  502    0  0.17352720508E+02 -0.19299575436E+02  0.68163285942E+02  0.73056803047E+02  0.41800000000E+01 0.  1.
         -5    1    1    2    0  502  0.32159590547E+01 -0.29525405536E+02 -0.55801098811E+02  0.63350824724E+02  0.41800000000E+01 0.  1.
        -11    1    1    2    0    0  0.23800260976E+02 -0.32541818250E+01 -0.69528207261E+02  0.73560952459E+02  0.00000000000E+00 0. -1.
         11    1    1    2    0    0 -0.44368940538E+02  0.52079162797E+02 -0.47489199823E+02  0.83283048587E+02  0.00000000000E+00 0.  1.
</event>
<event>
 6    1  0.6981059E-006  0.9981282E+02  0.7561462E-02  0.1280690E+00
         -1   -1    0    0    0  501 -0.00000000000E+00  0.00000000000E+00  0.86242251450E+02  0.86242251450E+02  0.00000000000E+00 0.  1.
          1   -1    0    0  501    0  0.00000000000E+00 -0.00000000000E+00 -0.23145720436E+03  0.23145720436E+03  0.00000000000E+00 0. -1.
          5    1    1    2  502    0 -0.56381156936E+02 -0.70360873356E+02 -0.52031029219E+02  0.10418343322E+03  0.41800000000E+01 0. -1.
         -5    1    1    2    0  502 -0.47148190863E+01  0.28517291151E+02  0.31119427501E+02  0.42677354435E+02  0.41800000000E+01 0. -1.
        -11    1    1    2    0    0  0.37637083421E+02  0.42399550394E+02 -0.14449964422E+02  0.58507037131E+02  0.00000000000E+00 0.  1.
         11    1    1    2    0    0  0.23458892602E+02 -0.55596818841E+00 -0.10985338677E+03  0.11233163102E+03  0.00000000000E+00 0. -1.
</event>
<event>
 6    1  0.6981059E-006  0.1237929E+03  0.7561462E-02  0.1236968E+00
          2   -1    0    0  501    0  0.00000000000E+00  0.00000000000E+00  0.78486393569E+03  0.78486393569E+03  0.00000000000E+00 0. -1.
         -2   -1    0    0    0  501 -0.00000000000E+00 -0.00000000000E+00 -0.31548801440E+02  0.31548801440E+02  0.00000000000E+00 0.  1.
          5    1    1    2  502    0  0.57569869407E+02  0.71521958579E+02  0.19853488225E+03  0.21877671790E+03  0.41800000000E+01 0. -1.
         -5    1    1    2    0  502 -0.38843528131E+02 -0.14718817910E+01  0.99574844137E+01  0.40343648936E+02  0.41800000000E+01 0.  1.
        -11    1    1    2    0    0 -0.55525637667E+02 -0.34236226683E+02  0.33354897686E+03  0.33986782080E+03  0.00000000000E+00 0.  1.
         11    1    1    2    0    0  0.36799296391E+02 -0.35813850105E+02  0.21127379073E+03  0.21742454950E+03  0.00000000000E+00 0. -1.
</event>
<event>
 6    1  0.6981059E-006  0.1277125E+03  0.7561462E-02  0.1230890E+00
          1   -1    0    0  501    0  0.00000000000E+00  0.00000000000E+00  0.14051800572E+03  0.14051800572E+03  0.00000000000E+00 0. -1.
         -1   -1    0    0    0  501 -0.00000000000E+00 -0.00000000000E+00 -0.16025964549E+03  0.16025964549E+03  0.00000000000E+00 0.  1.
          5    1    1    2  502    0  0.98818779506E+02 -0.60948256038E+02 -0.37864909014E+02  0.12219273641E+03  0.41800000000E+01 0.  1.
         -5    1    1    2    0  502 -0.38771252514E+02 -0.13917983047E+02 -0.10448654454E+02  0.42703244063E+02  0.41800000000E+01 0.  1.
        -11    1    1    2    0    0 -0.32402519209E+02  0.25386545596E+02 -0.32584800284E+02  0.52499230070E+02  0.00000000000E+00 0.  1.
         11    1    1    2    0    0 -0.27645007783E+02  0.49479693490E+02  0.61156723986E+02  0.83382440669E+02  0.00000000000E+00 0. -1.
</event>
<event>
 6    1  0.6981059E-006  0.1485536E+03  0.7561462E-02  0.1202262E+00
          1   -1    0    0  501    0  0.00000000000E+00  0.00000000000E+00  0.12712534219E+04  0.12712534219E+04  0.00000000000E+00 0. -1.
         -1   -1    0    0    0  501 -0.00000000000E+00 -0.00000000000E+00 -0.26102116048E+02  0.26102116048E+02  0.00000000000E+00 0.  1.
          5    1    1    2  502    0 -0.11701038014E+03  0.15162725599E+02  0.37007875210E+03  0.38845474957E+03  0.41800000000E+01 0. -1.
         -5    1    1    2    0  502 -0.47063274575E+01 -0.25912309770E+02  0.75793569008E+01  0.27722127747E+02  0.41800000000E+01 0. -1.
        -11    1    1    2    0    0 -0.32296515837E+01 -0.22783072840E+02  0.84818859858E+02  0.87884799851E+02  0.00000000000E+00 0.  1.
         11    1    1    2    0    0  0.12494635919E+03  0.33532657011E+02  0.78267433699E+03  0.79329386078E+03  0.00000000000E+00 0. -1.
</event>
<event>
 6    1  0.6981059E-006  0.1279550E+03  0.7561462E-02  0.1230522E+00
          1   -1    0    0  501    0  0.00000000000E+00  0.00000000000E+00  0.40875474179E+03  0.40875474179E+03  0.00000000000E+00 0. -1.
         -1   -1    0    0    0  501 -0.00000000000E+00 -0.00000000000E+00 -0.50584087892E+02  0.50584087892E+02  0.00000000000E+00 0.  1.
          5    1    1    2  502    0  0.66316483981E+02  0.50516514859E+01  0.48284685117E+02  0.82293854249E+02  0.41800000000E+01 0. -1.
         -5    1    1    2    0  502 -0.36447826715E+02  0.64772956147E+02  0.44651967772E+02  0.86805820923E+02  0.41800000000E+01 0.  1.
        -11    1    1    2    0    0  0.36634909102E+01 -0.79769423520E+02  0.21202821301E+03  0.22656686697E+03  0.00000000000E+00 0. -1.
         11    1    1    2    0    0 -0.33532148176E+02  0.99448158871E+01  0.53205787995E+02  0.63672287539E+02  0.00000000000E+00 0.  1.
</event>
<event>
 6    1  0.6981059E-006  0.1686694E+03  0.7561462E-02  0.1179243E+00
          2   -1    0    0  501    0  0.00000000000E+00  0.00000000000E+00  0.53058821176E+03  0.53058821176E+03  0.00000000000E+00 0. -1.
         -2   -1    0    0    0  501 -0.00000000000E+00 -0.00000000000E+00 -0.83531056193E+02  0.83531056193E+02  0.00000000000E+00 0.  1.
          5    1    1    2  502    0  0.30359681674E+02  0.22377609153E+02 -0.28437966009E+02  0.47420016590E+02  0.41800000000E+01 0. -1.
         -5    1    1    2    0  502  0.11047846091E+03  0.45430207148E+02  0.13167322196E+03  0.17783335971E+03  0.41800000000E+01 0. -1.
        -11    1    1    2    0    0 -0.13473845714E+03 -0.25513541381E+02  0.23700777194E+03  0.27382124934E+03  0.00000000000E+00 0.  1.
         11    1    1    2    0    0 -0.60996854387E+01 -0.42294274920E+02  0.10681412767E+03  0.11504464231E+03  0.00000000000E+00 0. -1.
</event>
<event>
 6    1  0.6981059E-006  0.2570318E+03  0.7561462E-02  0.1108940E+00
         -3   -1    0    0    0  501 -0.00000000000E+00  0.00000000000E+00  0.34675759822E+03  0.34675759822E+03  0.00000000000E+00 0.  1.
          3   -1    0    0  501    0  0.00000000000E+00 -0.00000000000E+00 -0.20978521978E+03  0.20978521978E+03  0.00000000000E+00 0. -1.
          5    1    1    2  502    0 -0.10132200690E+03 -0.13075483085E+03  0.28580390719E+02  0.16792047524E+03  0.41800000000E+01 0. -1.
         -5    1    1    2    0  502  0.11243303945E+03  0.20217603788E+03  0.13542788166E+03  0.26809424123E+03  0.41800000000E+01 0.  1.
        -11    1    1    2    0    0 -0.46131154932E+02 -0.11065584742E+02 -0.71935574143E+01  0.47982057994E+02  0.00000000000E+00 0.  1.
         11    1    1    2    0    0  0.35020122381E+02 -0.60355622290E+02 -0.19842336520E+02  0.72546043532E+02  0.00000000000E+00 0. -1.
</event>
<event>
 6    1  0.6981059E-006  0.1655436E+03  0.7561462E-02  0.1182576E+00
          3   -1    0    0  501    0  0.00000000000E+00  0.00000000000E+00  0.27125331512E+02  0.27125331512E+02  0.00000000000E+00 0. -1.
         -3   -1    0    0    0  501 -0.00000000000E+00 -0.00000000000E+00 -0.12396803535E+04  0.12396803535E+04  0.00000000000E+00 0.  1.
          5    1    1    2  502    0  0.61226800385E+02 -0.15203051802E+03 -0.66439647164E+03  0.68432605052E+03  0.41800000000E+01 0.  1.
         -5    1    1    2    0  502 -0.37240575885E+01  0.23031536490E+02 -0.69525673689E+02  0.73454829520E+02  0.41800000000E+01 0.  1.
        -11    1    1    2    0    0 -0.43089922558E+02  0.66088597698E+02 -0.11347055317E+03  0.13820278799E+03  0.00000000000E+00 0. -1.
         11    1    1    2    0    0 -0.14412820239E+02  0.62910383832E+02 -0.36516232352E+03  0.37082201701E+03  0.00000000000E+00 0.  1.
</event>
<event>
 6    1  0.6981059E-006  0.1550047E+03  0.7561462E-02  0.1194455E+00
         -4   -1    0    0    0  501 -0.00000000000E+00  0.00000000000E+00  0.64081618507E+03  0.64081618507E+03  0.00000000000E+00 0.  1.
          4   -1    0    0  501    0  0.00000000000E+00 -0.00000000000E+00 -0.41082329596E+02  0.41082329596E+02  0.00000000000E+00 0. -1.
          5    1    1    2  502    0 -0.26792257638E+01  0.11851446559E+03  0.22729306267E+03  0.25638343461E+03  0.41800000000E+01 0. -1.
         -5    1    1    2    0  502  0.49502167021E+02 -0.96911267426E+01  0.58841862125E+02  0.77615846421E+02  0.41800000000E+01 0. -1.
        -11    1    1    2    0    0 -0.49652396247E+02 -0.22680903216E+02  0.18656202583E+03  0.19438408707E+03  0.00000000000E+00 0.  1.
         11    1    1    2    0    0  0.28294549904E+01 -0.86142435632E+02  0.12703690486E+03  0.15351514658E+03  0.00000000000E+00 0. -1.
</event>
<event>
 6    1  0.6981059E-006  0.1000971E+03  0.7561462E-02  0.1280092E+00
         -2   -1    0    0    0  501 -0.00000000000E+00  0.00000000000E+00  0.37426525184E+02  0.37426525184E+02  0.00000000000E+00 0. -1.
          2   -1    0    0  501    0  0.00000000000E+00 -0.00000000000E+00 -0.33798109502E+03  0.33798109502E+03  0.00000000000E+00 0.  1.
          5    1    1    2  502    0  0.30014294619E+02 -0.53937684700E+02 -0.29449633854E+02  0.68519231216E+02  0.41800000000E+01 0.  1.
         -5    1    1    2    0  502 -0.28932975088E+02  0.29845098049E+02 -0.12439223830E+03  0.13122022814E+03  0.41800000000E+01 0.  1.
        -11    1    1    2    0    0 -0.42829868890E+02 -0.84010299097E+01 -0.63084235307E+02  0.76711118600E+02  0.00000000000E+00 0.  1.
         11    1    1    2    0    0  0.41748549359E+02  0.32493616560E+02 -0.83628462379E+02  0.98957042249E+02  0.00000000000E+00 0. -1.
</event>
<event>
 6    1  0.6981059E-006  0.1061629E+03  0.7561462E-02  0.1267845E+00
         -1   -1    0    0    0  501 -0.00000000000E+00  0.00000000000E+00  0.53849013864E+03  0.53849013864E+03  0.00000000000E+00 0.  1.
          1   -1    0    0  501    0  0.00000000000E+00 -0.00000000000E+00 -0.27476746041E+02  0.27476746041E+02  0.00000000000E+00 0. -1.
          5    1    1    2  502    0 -0.40486419804E+02  0.35878392714E+01  0.40342739025E+02  0.57419785538E+02  0.41800000000E+01 0.  1.
         -5    1    1    2    0  502  0.59001373871E+02 -0.54234262817E+02  0.26610681457E+03  0.27794392698E+03  0.41800000000E+01 0.  1.
        -11    1    1    2    0    0  0.25208496974E+02  0.38179354882E+02  0.16195123014E+03  0.16828943046E+03  0.00000000000E+00 0.  1.
         11    1    1    2    0    0 -0.43723451041E+02  0.12467068663E+02  0.42612608859E+02  0.62313741708E+02  0.00000000000E+00 0. -1.
</event>
<event>
 6    1  0.6981059E-006  0.9372104E+02  0.7561462E-02  0.1294083E+00
         -1   -1    0    0    0  501 -0.00000000000E+00  0.00000000000E+00  0.11640819920E+03  0.11640819920E+03  0.00000000000E+00 0.  1.
          1   -1    0    0  501    0  0.00000000000E+00 -0.00000000000E+00 -0.10844928440E+03  0.10844928440E+03  0.00000000000E+00 0. -1.
          5    1    1    2  502    0 -0.32334192836E+02  0.23520172257E+02 -0.33201630576E+02  0.52139420809E+02  0.41800000000E+01 0.  1.
         -5    1    1    2    0  502  0.60690216992E+02 -0.17995008917E+02  0.42953829296E+02  0.76613488601E+02  0.41800000000E+01 0.  1.
        -11    1    1    2    0    0  0.11553320273E+02  0.28882105239E+02 -0.23631033359E+02  0.39065086075E+02  0.00000000000E+00 0. -1.
         11    1    1    2    0    0 -0.39909344429E+02 -0.34407268580E+02  0.21837749440E+02  0.57039488115E+02  0.00000000000E+00 0.  1.
</event>
<event>
 6    1  0.6981059E-006  0.5365196E+02  0.7561462E-02  0.1426584E+00
          1   -1    0    0  501    0  0.00000000000E+00  0.00000000000E+00  0.21810101775E+02  0.21810101775E+02  0.00000000000E+00 0. -1.
         -1   -1    0    0    0  501 -0.00000000000E+00 -0.00000000000E+00 -0.45086681045E+03  0.45086681045E+03  0.00000000000E+00 0.  1.
          5    1    1    2  502    0 -0.48039300842E+01  0.19875519590E+02  0.27408369962E+01  0.21049907617E+02  0.41800000000E+01 0.  1.
         -5    1    1    2    0  502  0.15818561179E+01 -0.21383404996E+02 -0.30944959770E+03  0.31021972567E+03  0.41800000000E+01 0.  1.
        -11    1    1    2    0    0 -0.27942722158E+01 -0.31203161762E+02 -0.88810919539E+02  0.94174437564E+02  0.00000000000E+00 0.  1.
         11    1    1    2    0    0  0.60163461821E+01  0.32711047168E+02 -0.33537028434E+02  0.47232841375E+02  0.00000000000E+00 0. -1.
</event>
<event>
 6    1  0.6981059E-006  0.9178547E+02  0.7561462E-02  0.1298585E+00
         -2   -1    0    0    0  501 -0.00000000000E+00  0.00000000000E+00  0.45521015210E+03  0.45521015210E+03  0.00000000000E+00 0.  1.
          2   -1    0    0  501    0  0.00000000000E+00 -0.00000000000E+00 -0.36014859570E+02  0.36014859570E+02  0.00000000000E+00 0. -1.
          5    1    1    2  502    0 -0.23651335826E+02 -0.25181522173E-01  0.61076676719E+01  0.24782298620E+02  0.41800000000E+01 0. -1.
         -5    1    1    2    0  502  0.62660221210E+02  0.10163197797E+02  0.33056166174E+03  0.33662750708E+03  0.41800000000E+01 0. -1.
        -11    1    1    2    0    0  0.27324033709E+02 -0.11362247846E+02  0.44214727456E+02  0.53203812065E+02  0.00000000000E+00 0.  1.
         11    1    1    2    0    0 -0.66332919092E+02  0.12242315717E+01  0.38311235665E+02  0.76611393907E+02  0.00000000000E+00 0. -1.
</event>
<event>
 6    1  0.6981059E-006  0.9262661E+02  0.7561462E-02  0.1296613E+00
         -4   -1    0    0    0  501 -0.00000000000E+00  0.00000000000E+00  0.11180060487E+02  0.11180060487E+02  0.00000000000E+00 0.  1.
          4   -1    0    0  501    0  0.00000000000E+00 -0.00000000000E+00 -0.87735495921E+03  0.87735495921E+03  0.00000000000E+00 0. -1.
          5    1    1    2  502    0 -0.55367611289E+02  0.19499774015E+02 -0.32821983392E+03  0.33345396285E+03  0.41800000000E+01 0. -1.
         -5    1    1    2    0  502  0.60457937602E+02  0.15554914647E+02 -0.16051226027E+03  0.17227529041E+03  0.41800000000E+01 0. -1.
        -11    1    1    2    0    0  0.23819693151E+02 -0.20708632327E+02 -0.19090412198E+03  0.19349575971E+03  0.00000000000E+00 0. -1.
         11    1    1    2    0    0 -0.28910019464E+02 -0.14346056336E+02 -0.18653868255E+03  0.18931000672E+03  0.00000000000E+00 0.  1.
</event>
<event>
 6    1  0.6981059E-006  0.1167353E+03  0.7561462E-02  0.1248582E+00
          4   -1    0    0  501    0  0.00000000000E+00  0.00000000000E+00  0.18722474280E+03  0.18722474280E+03  0.00000000000E+00 0. -1.
         -4   -1    0    0    0  501 -0.00000000000E+00 -0.00000000000E+00 -0.20649271130E+03  0.20649271130E+03  0.00000000000E+00 0.  1.
          5    1    1    2  502    0 -0.89530384342E+02  0.23359205492E+02 -0.13879171399E+03  0.16685908568E+03  0.41800000000E+01 0.  1.
         -5    1    1    2    0  502  0.15853434472E+02 -0.40379264155E+02 -0.17029161736E+02  0.46789754302E+02  0.41800000000E+01 0.  1.
        -11    1    1    2    0    0  0.80119332724E+02  0.11364592065E+01  0.56110029024E+02  0.97819907855E+02  0.00000000000E+00 0.  1.
         11    1    1    2    0    0 -0.64423828546E+01  0.15883599456E+02  0.80442878198E+02  0.82248706259E+02  0.00000000000E+00 0. -1.
</event>
<event>
 6    1  0.6981059E-006  0.2142856E+03  0.7561462E-02  0.1138217E+00
         -1   -1    0    0    0  501 -0.00000000000E+00  0.00000000000E+00  0.19028767773E+03  0.19028767773E+03  0.00000000000E+00 0. -1.
          1   -1    0    0  501    0  0.00000000000E+00 -0.00000000000E+00 -0.37034055502E+03  0.37034055502E+03  0.00000000000E+00 0.  1.
          5    1    1    2  502    0  0.10278670687E+03 -0.13224853552E+03  0.71937512766E+02  0.18233831303E+03  0.41800000000E+01 0. -1.
         -5    1    1    2    0  502 -0.86048801455E+01 -0.52643251187E+02 -0.33284561341E+02  0.63013413505E+02  0.41800000000E+01 0. -1.
        -11    1    1    2    0    0 -0.44567211302E+02  0.84282239715E+02 -0.16578016977E+03  0.19124015515E+03  0.00000000000E+00 0.  1.
         11    1    1    2    0    0 -0.49614615424E+02  0.10060954699E+03 -0.52925658947E+02  0.12403635106E+03  0.00000000000E+00 0. -1.
</event>
<event>
 6    1  0.6981059E-006  0.9675896E+02  0.7561462E-02  0.1287263E+00
         -4   -1    0    0    0  501 -0.00000000000E+00  0.00000000000E+00  0.42314261092E+03  0.42314261092E+03  0.00000000000E+00 0.  1.
          4   -1    0    0  501    0  0.00000000000E+00 -0.00000000000E+00 -0.33499501903E+02  0.33499501903E+02  0.00000000000E+00 0. -1.
          5    1    1    2  502    0  0.22823618209E+02  0.61884031855E+02  0.15378222460E+03  0.16738278272E+03  0.41800000000E+01 0.  1.
         -5    1    1    2    0  502 -0.15702600430E+02 -0.56855862595E+02  0.15398164231E+03  0.16494538290E+03  0.41800000000E+01 0.  1.
        -11    1    1    2    0    0 -0.34529760612E+01  0.31446706435E+02 -0.30779137992E+01  0.31785089942E+02  0.00000000000E+00 0. -1.
         11    1    1    2    0    0 -0.36680417181E+01 -0.36474875695E+02  0.84957155905E+02  0.92528857264E+02  0.00000000000E+00 0.  1.
</event>
<event>
 6    1  0.6981059E-006  0.2418522E+03  0.7561462E-02  0.1118565E+00
         -1   -1    0    0    0  501 -0.00000000000E+00  0.00000000000E+00  0.42327356617E+03  0.42327356617E+03  0.00000000000E+00 0.  1.
          1   -1    0    0  501    0  0.00000000000E+00 -0.00000000000E+00 -0.14862966946E+03  0.14862966946E+03  0.00000000000E+00 0. -1.
          5    1    1    2  502    0  0.61482295626E+02  0.13870920852E+03  0.30917219391E+02  0.15489888333E+03  0.41800000000E+01 0. -1.
         -5    1    1    2    0  502 -0.38566905129E+02  0.86749215234E+02  0.89705136571E+02  0.13068020677E+03  0.41800000000E+01 0. -1.
        -11    1    1    2    0    0  0.22299111521E+02 -0.12149510944E+03  0.10760400336E+03  0.16381982033E+03  0.00000000000E+00 0.  1.
         11    1    1    2    0    0 -0.45214502018E+02 -0.10396331431E+03  0.46417537387E+02  0.12250432520E+03  0.00000000000E+00 0. -1.
</event>
<event>
 6    1  0.6981059E-006  0.1052167E+03  0.7561462E-02  0.1269693E+00
         -2   -1    0    0    0  501 -0.00000000000E+00  0.00000000000E+00  0.26682379326E+02  0.26682379326E+02  0.00000000000E+00 0.  1.
          2   -1    0    0  501    0  0.00000000000E+00 -0.00000000000E+00 -0.47309355175E+03  0.47309355175E+03  0.00000000000E+00 0. -1.
          5    1    1    2  502    0  0.37090127883E+02 -0.21430226871E+02 -0.16541649177E+03  0.17092401926E+03  0.41800000000E+01 0.  1.
         -5    1    1    2    0  502 -0.61655432737E+02  0.37955680594E+02 -0.95270854164E+02  0.11973317890E+03  0.41800000000E+01 0.  1.
        -11    1    1    2    0    0 -0.20291682122E+02  0.26053924366E+02 -0.49403732676E+02  0.59424642536E+02  0.00000000000E+00 0.  1.
         11    1    1    2    0    0  0.44856986975E+02 -0.42579378089E+02 -0.13632009381E+03  0.14969409038E+03  0.00000000000E+00 0. -1.
</event>
<event>
 6    1  0.6981059E-006  0.2052848E+03  0.7561462E-02  0.1145355E+00
          1   -1    0    0  501    0  0.00000000000E+00  0.00000000000E+00  0.39893724557E+02  0.39893724557E+02  0.00000000000E+00 0. -1.
         -1   -1    0    0    0  501 -0.00000000000E+00 -0.00000000000E+00 -0.16123237642E+04  0.16123237642E+04  0.00000000000E+00 0.  1.
          5    1    1    2  502    0 -0.16596690162E+03 -0.10656180617E+03 -0.11556290914E+04  0.11723465786E+04  0.41800000000E+01 0. -1.
         -5    1    1    2    0  502  0.37100637576E+02 -0.64203941035E+01 -0.11541811504E+03  0.12147630406E+03  0.41800000000E+01 0.  1.
        -11    1    1    2    0    0  0.40377886384E+02  0.14229686080E+02 -0.15536216068E+03  0.16115290455E+03  0.00000000000E+00 0. -1.
         11    1    1    2    0    0  0.88488377658E+02  0.98752514197E+02 -0.14602067253E+03  0.19724170159E+03  0.00000000000E+00 0.  1.
</event>
<event>
 6    1  0.6981059E-006  0.1661931E+03  0.7561462E-02  0.1181877E+00
         -3   -1    0    0    0  501 -0.00000000000E+00  0.00000000000E+00  0.69454542598E+02  0.69454542598E+02  0.00000000000E+00 0.  1.
          3   -1    0    0  501    0  0.00000000000E+00 -0.00000000000E+00 -0.49501150572E+03  0.49501150572E+03  0.00000000000E+00 0. -1.
          5    1    1    2  502    0 -0.93048403449E+02  0.12482674071E+03 -0.11823419344E+03  0.19554160038E+03  0.41800000000E+01 0. -1.
         -5    1    1    2    0  502  0.29181569345E+02  0.68454897109E+01 -0.58188434960E+02  0.65588040693E+02  0.41800000000E+01 0. -1.
        -11    1    1    2    0    0  0.40117624473E+02 -0.79329689147E+02 -0.64144584095E+02  0.10962276699E+03  0.00000000000E+00 0.  1.
         11    1    1    2    0    0  0.23749209630E+02 -0.52342541273E+02 -0.18498975063E+03  0.19371364026E+03  0.00000000000E+00 0. -1.
</event>
<event>
 6    1  0.6981059E-006  0.5762529E+02  0.7561462E-02  0.1408076E+00
          2   -1    0    0  501    0  0.00000000000E+00  0.00000000000E+00  0.41284919739E+03  0.41284919739E+03  0.00000000000E+00 0. -1.
         -2   -1    0    0    0  501 -0.00000000000E+00 -0.00000000000E+00 -0.37897215392E+02  0.37897215392E+02  0.00000000000E+00 0.  1.
          5    1    1    2  502    0  0.23737037467E+02 -0.15883063257E+02 -0.22839994224E+02  0.36808373807E+02  0.41800000000E+01 0. -1.
         -5    1    1    2    0  502 -0.12549887384E+01  0.37192104647E+01  0.12930682583E+03  0.12943390255E+03  0.41800000000E+01 0. -1.
        -11    1    1    2    0    0 -0.14433748398E+02  0.44784287679E+02  0.78113956564E+02  0.91190765573E+02  0.00000000000E+00 0.  1.
         11    1    1    2    0    0 -0.80483003307E+01 -0.32620434886E+02  0.19037119383E+03  0.19331337085E+03  0.00000000000E+00 0. -1.
</event>
<event>
 6    1  0.6981059E-006  0.1333795E+03  0.7561462E-02  0.1222526E+00
          2   -1    0    0  501    0  0.00000000000E+00  0.00000000000E+00  0.51625824914E+03  0.51625824914E+03  0.00000000000E+00 0. -1.
         -2   -1    0    0    0  501 -0.00000000000E+00 -0.00000000000E+00 -0.65584306577E+02  0.65584306577E+02  0.00000000000E+00 0.  1.
          5    1    1    2  502    0 -0.13739599854E+02  0.50363129512E+01  0.91011540914E+02  0.92275208110E+02  0.41800000000E+01 0.  1.
         -5    1    1    2    0  502 -0.40691297343E+02  0.11373000640E+03  0.27478174839E+02  0.12394683751E+03  0.41800000000E+01 0.  1.
        -11    1    1    2    0    0  0.15091879604E+02 -0.36126024891E+02  0.20628988831E+03  0.20997231371E+03  0.00000000000E+00 0. -1.
         11    1    1    2    0    0  0.39339017593E+02 -0.82640294462E+02  0.12589433850E+03  0.15564819639E+03  0.00000000000E+00 0.  1.
</event>
<event>
 6    1  0.6981059E-006  0.1326239E+03  0.7561462E-02  0.1223614E+00
         -1   -1    0    0    0  501 -0.00000000000E+00  0.00000000000E+00  0.44212066491E+03  0.44212066491E+03  0.00000000000E+00 0.  1.
          1   -1    0    0  501    0  0.00000000000E+00 -0.00000000000E+00 -0.46310307490E+02  0.46310307490E+02  0.00000000000E+00 0. -1.
          5    1    1    2  502    0 -0.20443856801E+02 -0.23775334128E+02  0.70285598512E+02  0.77076296953E+02  0.41800000000E+01 0.  1.
         -5    1    1    2    0  502  0.68109719624E+02  0.99993417969E+02  0.18522144172E+03  0.22127374995E+03  0.41800000000E+01 0.  1.
        -11    1    1    2    0    0 -0.35591640604E+02 -0.88465910843E+02  0.14378679842E+03  0.17253296978E+03  0.00000000000E+00 0.  1.
         11    1    1    2    0    0 -0.12074222219E+02  0.12247827002E+02 -0.34834812255E+01  0.17547955719E+02  0.00000000000E+00 0. -1.
</event>
<event>
 6    1  0.6981059E-006  0.1607327E+03  0.7561462E-02  0.1187872E+00
         -2   -1    0    0    0  501 -0.00000000000E+00  0.00000000000E+00  0.70427130352E+02  0.70427130352E+02  0.00000000000E+00 0.  1.
          2   -1    0    0  501    0  0.00000000000E+00 -0.00000000000E+00 -0.51998837744E+03  0.51998837744E+03  0.00000000000E+00 0. -1.
          5    1    1    2  502    0 -0.53198443607E+02  0.36486143065E+02 -0.10223005450E+02  0.65446888990E+02  0.41800000000E+01 0.  1.
         -5    1    1    2    0  502 -0.88328298247E+02 -0.68268903864E+02 -0.13316260800E+03  0.17381681183E+03  0.41800000000E+01 0.  1.
        -11    1    1    2    0    0  0.73727720594E+02  0.18626082277E+02 -0.64223504383E+02  0.99535753577E+02  0.00000000000E+00 0.  1.
         11    1    1    2    0    0  0.67799021260E+02  0.13156678522E+02 -0.24195212925E+03  0.25161605339E+03  0.00000000000E+00 0. -1.
</event>
<event>
 6    1  0.6981059E-006  0.1110901E+03  0.7561462E-02  0.1258564E+00
          4   -1    0    0  501    0  0.00000000000E+00  0.00000000000E+00  0.18721720933E+02  0.18721720933E+02  0.00000000000E+00 0. -1.
         -4   -1    0    0    0  501 -0.00000000000E+00 -0.00000000000E+00 -0.84795377318E+03  0.84795377318E+03  0.00000000000E+00 0.  1.
          5    1    1    2  502    0  0.21400689060E+02 -0.18221007715E+02 -0.35772202073E+02  0.45684980634E+02  0.41800000000E+01 0. -1.
         -5    1    1    2    0  502 -0.79477583052E+02 -0.14743910812E+02 -0.50085053031E+03  0.50734879051E+03  0.41800000000E+01 0.  1.
        -11    1    1    2    0    0  0.61797267350E+02 -0.15905094846E+02 -0.15901109775E+03  0.17133710486E+03  0.00000000000E+00 0. -1.
         11    1    1    2    0    0 -0.37203733579E+01  0.48870013373E+02 -0.13359822211E+03  0.14230461812E+03  0.00000000000E+00 0.  1.
</event>
<event>
 6    1  0.6981059E-006  0.3943162E+03  0.7561462E-02  0.1045766E+00
         -2   -1    0    0    0  501 -0.00000000000E+00  0.00000000000E+00  0.15332199945E+03  0.15332199945E+03  0.00000000000E+00 0.  1.
          2   -1    0    0  501    0  0.00000000000E+00 -0.00000000000E+00 -0.11550025892E+04  0.11550025892E+04  0.00000000000E+00 0. -1.
          5    1    1    2  502    0 -0.91307549760E+02  0.27029321922E+03 -0.21345390449E+03  0.35633626639E+03  0.41800000000E+01 0.  1.
         -5    1    1    2    0  502 -0.10007073281E+03  0.61288555532E+02 -0.85122333378E+02  0.14503007497E+03  0.41800000000E+01 0.  1.
        -11    1    1    2    0    0  0.99802191223E+02 -0.12532629585E+03 -0.20549182368E+03  0.26056486219E+03  0.00000000000E+00 0.  1.
         11    1    1    2    0    0  0.91576091351E+02 -0.20625547890E+03 -0.49761252819E+03  0.54639338511E+03  0.00000000000E+00 0. -1.
</event>
<event>
 6    1  0.6981059E-006  0.1235379E+03  0.7561462E-02  0.1237372E+00
         -2   -1    0    0    0  501 -0.00000000000E+00  0.00000000000E+00  0.25921085017E+03  0.25921085017E+03  0.00000000000E+00 0.  1.
          2   -1    0    0  501    0  0.00000000000E+00 -0.00000000000E+00 -0.20984395429E+03  0.20984395429E+03  0.00000000000E+00 0. -1.
          5    1    1    2  502    0 -0.81978171242E+01 -0.38001490607E+02  0.67785800090E+00  0.39105618336E+02  0.41800000000E+01 0. -1.
         -5    1    1    2    0  502 -0.76838683633E+02 -0.19127631329E+01  0.20882832952E+03  0.22256366634E+03  0.41800000000E+01 0.  1.
        -11    1    1    2    0    0  0.70725062346E+02 -0.16645662534E+02 -0.77566826685E+02  0.10628134891E+03  0.00000000000E+00 0. -1.
         11    1    1    2    0    0  0.14311438412E+02  0.56559916273E+02 -0.82572464958E+02  0.10110417087E+03  0.00000000000E+00 0.  1.
</event>
<event>
 6    1  0.6981059E-006  0.2206372E+03  0.7561462E-02  0.1133409E+00
          2   -1    0    0  501    0  0.00000000000E+00  0.00000000000E+00  0.10009839031E+04  0.10009839031E+04  0.00000000000E+00 0. -1.
         -2   -1    0    0    0  501 -0.00000000000E+00 -0.00000000000E+00 -0.54422931379E+02  0.54422931379E+02  0.00000000000E+00 0.  1.
          5    1    1    2  502    0 -0.36621340320E+02 -0.72211840510E+02  0.69164655075E+02  0.10656873082E+03  0.41800000000E+01 0.  1.
         -5    1    1    2    0  502 -0.12783980704E+03 -0.48237827002E+02  0.35448941445E+03  0.37993436482E+03  0.41800000000E+01 0.  1.
        -11    1    1    2    0    0  0.14198965854E+03  0.51602193635E+02  0.33349103789E+03  0.36611490256E+03  0.00000000000E+00 0. -1.
         11    1    1    2    0    0  0.22471488815E+02  0.68847473877E+02  0.18941586429E+03  0.20278883627E+03  0.00000000000E+00 0.  1.
</event>
<event>
 6    1  0.6981059E-006  0.8822072E+02  0.7561462E-02  0.1307219E+00
          2   -1    0    0  501    0  0.00000000000E+00  0.00000000000E+00  0.10898080338E+04  0.10898080338E+04  0.00000000000E+00 0. -1.
         -2   -1    0    0    0  501 -0.00000000000E+00 -0.00000000000E+00 -0.11816073464E+02  0.11816073464E+02  0.00000000000E+00 0.  1.
          5    1    1    2  502    0  0.26084964776E+02 -0.96320864055E+01  0.45011245080E+03  0.45098990370E+03  0.41800000000E+01 0.  1.
         -5    1    1    2    0  502 -0.36164354608E+02  0.37493244780E+02  0.88757017409E+02  0.10299943926E+03  0.41800000000E+01 0.  1.
        -11    1    1    2    0    0  0.34672780699E+02 -0.51412289983E+02  0.33484532909E+03  0.34053901347E+03  0.00000000000E+00 0.  1.
         11    1    1    2    0    0 -0.24593390867E+02  0.23551131608E+02  0.20427716303E+03  0.20709575082E+03  0.00000000000E+00 0. -1.
</event>
<event>
 6    1  0.6981059E-006  0.1092542E+03  0.7561462E-02  0.1261957E+00
         -1   -1    0    0    0  501 -0.00000000000E+00  0.00000000000E+00  0.12474449858E+03  0.12474449858E+03  0.00000000000E+00 0.  1.
          1   -1    0    0  501    0  0.00000000000E+00 -0.00000000000E+00 -0.13821352436E+03  0.13821352436E+03  0.00000000000E+00 0. -1.
          5    1    1    2  502    0  0.64018553883E+02  0.22692949699E+02 -0.49069215764E+02  0.83896397675E+02  0.41800000000E+01 0.  1.
         -5    1    1    2    0  502 -0.24371816824E+02  0.41352862761E+02  0.39685483456E+02  0.62421588501E+02  0.41800000000E+01 0.  1.
        -11    1    1    2    0    0 -0.57816061881E+02 -0.33739633959E+02 -0.29461058906E+02  0.73136953060E+02  0.00000000000E+00 0. -1.
         11    1    1    2    0    0  0.18169324822E+02 -0.30306178502E+02  0.25375765437E+02  0.43503083700E+02  0.00000000000E+00 0.  1.
</event>
<event>
 6    1  0.6981059E-006  0.1550915E+03  0.7561462E-02  0.1194353E+00
         -1   -1    0    0    0  501 -0.00000000000E+00  0.00000000000E+00  0.93331596983E+02  0.93331596983E+02  0.00000000000E+00 0. -1.
          1   -1    0    0  501    0  0.00000000000E+00 -0.00000000000E+00 -0.28804603097E+03  0.28804603097E+03  0.00000000000E+00 0.  1.
          5    1    1    2  502    0  0.35392006512E+02  0.60434321270E+02 -0.80475388202E+01  0.70619661522E+02  0.41800000000E+01 0. -1.
         -5    1    1    2    0  502  0.81839566385E+02 -0.53714035799E+02 -0.53635413477E+02  0.11170112912E+03  0.41800000000E+01 0. -1.
        -11    1    1    2    0    0 -0.81496110313E+02 -0.42123388463E+02 -0.11136780361E+03  0.14428715651E+03  0.00000000000E+00 0.  1.
         11    1    1    2    0    0 -0.35735462585E+02  0.35403102992E+02 -0.21663678079E+02  0.54769680805E+02  0.00000000000E+00 0. -1.
</event>
<event>
 6    1  0.6981059E-006  0.1410618E+03  0.7561462E-02  0.1211907E+00
         -2   -1    0    0    0  501 -0.00000000000E+00  0.00000000000E+00  0.18315418914E+03  0.18315418914E+03  0.00000000000E+00 0.  1.
          2   -1    0    0  501    0  0.00000000000E+00 -0.00000000000E+00 -0.12561639454E+03  0.12561639454E+03  0.00000000000E+00 0. -1.
          5    1    1    2  502    0 -0.74522532764E+01 -0.11702141898E+03  0.78344094501E+02  0.14108443615E+03  0.41800000000E+01 0. -1.
         -5    1    1    2    0  502 -0.23640305186E+02  0.27232719053E+02  0.47127881389E+01  0.36608302178E+02  0.41800000000E+01 0. -1.
        -11    1    1    2    0    0  0.51202058381E+02  0.18540789604E+02 -0.84952953363E+01  0.55114260446E+02  0.00000000000E+00 0.  1.
         11    1    1    2    0    0 -0.20109499919E+02  0.71247910326E+02 -0.17023792704E+02  0.75963584900E+02  0.00000000000E+00 0. -1.
</event>
<event>
 6    1  0.6981059E-006  0.1355435E+03  0.7561462E-02  0.1219454E+00
         -1   -1    0    0    0  501 -0.00000000000E+00  0.00000000000E+00  0.43077930556E+02  0.43077930556E+02  0.00000000000E+00 0.  1.
          1   -1    0    0  501    0  0.00000000000E+00 -0.00000000000E+00 -0.46573100336E+03  0.46573100336E+03  0.00000000000E+00 0. -1.
          5    1    1    2  502    0 -0.69547596619E+02  0.81638145124E+02 -0.22775878702E+03  0.25178004766E+03  0.41800000000E+01 0. -1.
         -5    1    1    2    0  502  0.39252589045E+02  0.58755672524E+00 -0.38314571722E+02  0.55014450609E+02  0.41800000000E+01 0. -1.
        -11    1    1    2    0    0 -0.31408991298E+02 -0.25345172597E+02 -0.30628932293E+02  0.50665905713E+02  0.00000000000E+00 0.  1.
         11    1    1    2    0    0  0.61703998872E+02 -0.56880529252E+02 -0.12595078177E+03  0.15134852994E+03  0.00000000000E+00 0. -1.
</event>
<event>
 6    1  0.6981059E-006  0.9785021E+02  0.7561462E-02  0.1284883E+00
          3   -1    0    0  501    0  0.00000000000E+00  0.00000000000E+00  0.33493663703E+03  0.33493663703E+03  0.00000000000E+00 0. -1.
         -3   -1    0    0    0  501 -0.00000000000E+00 -0.00000000000E+00 -0.40701514507E+02  0.40701514507E+02  0.00000000000E+00 0.  1.
          5    1    1    2  502    0 -0.41114231941E+02 -0.54705081298E+02  0.13028765223E+03  0.14722557764E+03  0.41800000000E+01 0. -1.
         -5    1    1    2    0  502  0.45336927402E+02  0.93398035044E+01  0.12723406297E+02  0.48187408973E+02  0.41800000000E+01 0. -1.
        -11    1    1    2    0    0 -0.20697486825E+02 -0.99366622144E+01  0.56681162051E+01  0.23648483210E+02  0.00000000000E+00 0.  1.
         11    1    1    2    0    0  0.16474791363E+02  0.55301940008E+02  0.14555594780E+03  0.15657668172E+03  0.00000000000E+00 0. -1.
</event>
<event>
 6    1  0.6981059E-006  0.1191585E+03  0.7561462E-02  0.1244492E+00
          2   -1    0    0  501    0  0.00000000000E+00  0.00000000000E+00  0.64640933323E+03  0.64640933323E+03  0.00000000000E+00 0. -1.
         -2   -1    0    0    0  501 -0.00000000000E+00 -0.00000000000E+00 -0.26206545805E+02  0.26206545805E+02  0.00000000000E+00 0.  1.
          5    1    1    2  502    0  0.34368707482E+02 -0.63675780986E+02  0.91098195399E+02  0.11641377386E+03  0.41800000000E+01 0.  1.
         -5    1    1    2    0  502 -0.54966531299E+02 -0.29517222411E+01  0.20804108188E+03  0.21524078697E+03  0.41800000000E+01 0.  1.
        -11    1    1    2    0    0 -0.16000973780E+02 -0.14524600427E+02  0.32920635076E+02  0.39379733281E+02  0.00000000000E+00 0.  1.
         11    1    1    2    0    0  0.36598797597E+02  0.81152103655E+02  0.28814287508E+03  0.30158158493E+03  0.00000000000E+00 0. -1.
</event>
<event>
 6    1  0.6981059E-006  0.1221011E+03  0.7561462E-02  0.1239671E+00
          3   -1    0    0  501    0  0.00000000000E+00  0.00000000000E+00  0.60330503013E+03  0.60330503013E+03  0.00000000000E+00 0. -1.
         -3   -1    0    0    0  501 -0.00000000000E+00 -0.00000000000E+00 -0.44702231353E+02  0.44702231353E+02  0.00000000000E+00 0.  1.
          5    1    1    2  502    0  0.83963428852E+02  0.31781855429E+01  0.15570184038E+03  0.17697596940E+03  0.41800000000E+01 0.  1.
         -5    1    1    2    0  502  0.34670558837E+01  0.32083085765E+02 -0.12883745236E+02  0.34997259321E+02  0.41800000000E+01 0.  1.
        -11    1    1    2    0    0 -0.16354130565E+01 -0.41482674755E+02  0.90502037661E+02  0.99569602296E+02  0.00000000000E+00 0.  1.
         11    1    1    2    0    0 -0.85795071679E+02  0.62214034470E+01  0.32528266597E+03  0.33646443046E+03  0.00000000000E+00 0. -1.
</event>
<event>
 6    1  0.6981059E-006  0.9337506E+02  0.7561462E-02  0.1294878E+00
         -4   -1    0    0    0  501 -0.00000000000E+00  0.00000000000E+00  0.36026403955E+02  0.36026403955E+02  0.00000000000E+00 0.  1.
          4   -1    0    0  501    0  0.00000000000E+00 -0.00000000000E+00 -0.36550937391E+03  0.36550937391E+03  0.00000000000E+00 0. -1.
          5    1    1    2  502    0 -0.34595482395E+02 -0.17420035317E+02 -0.87209118661E+01  0.39922822249E+02  0.41800000000E+01 0.  1.
         -5    1    1    2    0  502  0.65206682192E+02 -0.44662629303E+00 -0.16190608926E+03  0.17459428690E+03  0.41800000000E+01 0.  1.
        -11    1    1    2    0    0 -0.55526798834E+02  0.13643942501E+02 -0.14951722039E+03  0.16007742424E+03  0.00000000000E+00 0. -1.
         11    1    1    2    0    0  0.24915599036E+02  0.42227191089E+01 -0.93387484357E+01  0.26941244484E+02  0.00000000000E+00 0.  1.
</event>
<event>
 6    1  0.6981059E-006  0.1460726E+03  0.7561462E-02  0.1205384E+00
         -1   -1    0    0    0  501 -0.00000000000E+00  0.00000000000E+00  0.16875488556E+03  0.16875488556E+03  0.00000000000E+00 0.  1.
          1   -1    0    0  501    0  0.00000000000E+00 -0.00000000000E+00 -0.16717731910E+03  0.16717731910E+03  0.00000000000E+00 0. -1.
          5    1    1    2  502    0  0.65174944502E+01  0.11107474131E+03 -0.21513665805E+02  0.11340364239E+03  0.41800000000E+01 0.  1.
         -5    1    1    2    0  502 -0.31935419652E+02  0.92317526464E+01  0.56153359176E+02  0.65389360235E+02  0.41800000000E+01 0.  1.
        -11    1    1    2    0    0  0.54894828465E+02 -0.69585129546E+02 -0.41508232916E+02  0.97869636997E+02  0.00000000000E+00 0.  1.
         11    1    1    2    0    0 -0.29476903263E+02 -0.50721364409E+02  0.84461060013E+01  0.59269565040E+02  0.00000000000E+00 0. -1.
</event>
<event>
 6    1  0.6981059E-006  0.1205372E+03  0.7561462E-02  0.1242214E+00
          2   -1    0    0  501    0  0.00000000000E+00  0.00000000000E+00  0.91540499925E+02  0.91540499925E+02  0.00000000000E+00 0. -1.
         -2   -1    0    0    0  501 -0.00000000000E+00 -0.00000000000E+00 -0.27802120662E+03  0.27802120662E+03  0.00000000000E+00 0.  1.
          5    1    1    2  502    0  0.48583957397E+02  0.13860036352E+02 -0.12643037151E+03  0.13621531766E+03  0.41800000000E+01 0. -1.
         -5    1    1    2    0  502  0.34894381757E+02 -0.77655691710E+02 -0.31124782543E+02  0.90742761813E+02  0.41800000000E+01 0. -1.
        -11    1    1    2    0    0 -0.52139354037E+02  0.37373584125E+02  0.30003292486E+02  0.70820156663E+02  0.00000000000E+00 0. -1.
         11    1    1    2    0    0 -0.31338985116E+02  0.26422071232E+02 -0.58928845123E+02  0.71783470409E+02  0.00000000000E+00 0.  1.
</event>
<event>
 6    1  0.6981059E-006  0.8838038E+02  0.7561462E-02  0.1306822E+00
          2   -1    0    0  501    0  0.00000000000E+00  0.00000000000E+00  0.69435677890E+02  0.69435677890E+02  0.00000000000E+00 0. -1.
         -2   -1    0    0    0  501 -0.00000000000E+00 -0.00000000000E+00 -0.18936857990E+03  0.18936857990E+03  0.00000000000E+00 0.  1.
          5    1    1    2  502    0  0.59963578178E+02  0.55008122398E+02 -0.66051563984E+02  0.10488949300E+03  0.41800000000E+01 0. -1.
         -5    1    1    2    0  502 -0.29484811726E+02 -0.30609501085E+02 -0.24365855690E+02  0.49167702841E+02  0.41800000000E+01 0.  1.
        -11    1    1    2    0    0 -0.17500092954E+02 -0.32756505807E+02 -0.60007499580E+02  0.70570120674E+02  0.00000000000E+00 0.  1.
         11    1    1    2    0    0 -0.12978673499E+02  0.83578844943E+01  0.30492017244E+02  0.34176941271E+02  0.00000000000E+00 0. -1.
</event>
<event>
 6    1  0.6981059E-006  0.2779921E+03  0.7561462E-02  0.1096791E+00
          2   -1    0    0  501    0  0.00000000000E+00  0.00000000000E+00  0.46687868947E+03  0.46687868947E+03  0.00000000000E+00 0. -1.
         -2   -1    0    0    0  501 -0.00000000000E+00 -0.00000000000E+00 -0.17658448317E+03  0.17658448317E+03  0.00000000000E+00 0.  1.
          5    1    1    2  502    0  0.27354070093E+03  0.19350828102E+02  0.11391872634E+03  0.29697460872E+03  0.41800000000E+01 0. -1.
         -5    1    1    2    0  502 -0.81591943238E+01 -0.10966069217E+02  0.22569087289E+02  0.26714475985E+02  0.41800000000E+01 0. -1.
        -11    1    1    2    0    0 -0.10180052808E+03 -0.18802197992E+02  0.14248455776E+02  0.10449827108E+03  0.00000000000E+00 0.  1.
         11    1    1    2    0    0 -0.16358097853E+03  0.10417439107E+02  0.13955793689E+03  0.21527581686E+03  0.00000000000E+00 0. -1.
</event>
<event>
 6    1  0.6981059E-006  0.1657596E+03  0.7561462E-02  0.1182343E+00
          2   -1    0    0  501    0  0.00000000000E+00  0.00000000000E+00  0.35895400217E+03  0.35895400217E+03  0.00000000000E+00 0. -1.
         -2   -1    0    0    0  501 -0.00000000000E+00 -0.00000000000E+00 -0.13337415135E+03  0.13337415135E+03  0.00000000000E+00 0.  1.
          5    1    1    2  502    0  0.46798174424E+02 -0.33129698222E+02  0.22350657482E+01  0.57533589776E+02  0.41800000000E+01 0. -1.
         -5    1    1    2    0  502 -0.74873282753E+02 -0.92674333843E+02 -0.42325958427E+02  0.12650493975E+03  0.41800000000E+01 0. -1.
        -11    1    1    2    0    0 -0.15852552281E+02  0.10503559267E+03  0.16092812164E+03  0.19282541190E+03  0.00000000000E+00 0.  1.
         11    1    1    2    0    0  0.43927660610E+02  0.20768439397E+02  0.10474262185E+03  0.11546421210E+03  0.00000000000E+00 0. -1.
</event>
<event>
 6    1  0.6981059E-006  0.1308241E+03  0.7561462E-02  0.1226238E+00
          1   -1    0    0  501    0  0.00000000000E+00  0.00000000000E+00  0.40761289576E+03  0.40761289576E+03  0.00000000000E+00 0. -1.
         -1   -1    0    0    0  501 -0.00000000000E+00 -0.00000000000E+00 -0.45360932691E+02  0.45360932691E+02  0.00000000000E+00 0.  1.
          5    1    1    2  502    0 -0.32141215080E+02 -0.60003381232E+01  0.58943145863E+02  0.67533907103E+02  0.41800000000E+01 0.  1.
         -5    1    1    2    0  502  0.11141578817E+03  0.24396798535E+02  0.12328968284E+03  0.16800744009E+03  0.41800000000E+01 0.  1.
        -11    1    1    2    0    0 -0.95327277695E+02 -0.22578990716E+02  0.11867953848E+03  0.15388935489E+03  0.00000000000E+00 0. -1.
         11    1    1    2    0    0  0.16052704608E+02  0.41825303037E+01  0.61339595884E+02  0.63543126365E+02  0.00000000000E+00 0.  1.
</event>
<event>
 6    1  0.6981059E-006  0.9931150E+02  0.7561462E-02  0.1281750E+00
         -1   -1    0    0    0  501 -0.00000000000E+00  0.00000000000E+00  0.18788495334E+02  0.18788495334E+02  0.00000000000E+00 0.  1.
          1   -1    0    0  501    0  0.00000000000E+00 -0.00000000000E+00 -0.72702419934E+03  0.72702419934E+03  0.00000000000E+00 0. -1.
          5    1    1    2  502    0  0.51748057740E+02 -0.16027483985E+01 -0.22965193918E+03  0.23545257665E+03  0.41800000000E+01 0. -1.
         -5    1    1    2    0  502 -0.48906869864E+02  0.11850313848E+02 -0.49881793396E+02  0.70978712095E+02  0.41800000000E+01 0. -1.
        -11    1    1    2    0    0 -0.94931556373E+00 -0.53191856642E+02 -0.24691551696E+03  0.25258176365E+03  0.00000000000E+00 0.  1.
         11    1    1    2    0    0 -0.18918723114E+01  0.42944291193E+02 -0.18178645447E+03  0.18679964228E+03  0.00000000000E+00 0. -1.
</event>
<event>
 6    1  0.6981059E-006  0.7804025E+02  0.7561462E-02  0.1334707E+00
         -2   -1    0    0    0  501 -0.00000000000E+00  0.00000000000E+00  0.53822298003E+02  0.53822298003E+02  0.00000000000E+00 0.  1.
          2   -1    0    0  501    0  0.00000000000E+00 -0.00000000000E+00 -0.41521996395E+03  0.41521996395E+03  0.00000000000E+00 0. -1.
          5    1    1    2  502    0  0.44063085791E+01  0.20232999303E+02  0.39598664792E+02  0.44881137122E+02  0.41800000000E+01 0.  1.
         -5    1    1    2    0  502 -0.37093079791E+02 -0.91162452517E+01 -0.83824778140E+02  0.92212083406E+02  0.41800000000E+01 0.  1.
        -11    1    1    2    0    0  0.58273316787E+02  0.14787691230E+02 -0.16919734126E+03  0.17956111926E+03  0.00000000000E+00 0.  1.
         11    1    1    2    0    0 -0.25586545576E+02 -0.25904445282E+02 -0.14797421134E+03  0.15238792216E+03  0.00000000000E+00 0. -1.
</event>
<event>
 6    1  0.6981059E-006  0.5862303E+02  0.7561462E-02  0.1403703E+00
         -1   -1    0    0    0  501 -0.00000000000E+00  0.00000000000E+00  0.30949048069E+03  0.30949048069E+03  0.00000000000E+00 0.  1.
          1   -1    0    0  501    0  0.00000000000E+00 -0.00000000000E+00 -0.42122360746E+02  0.42122360746E+02  0.00000000000E+00 0. -1.
          5    1    1    2  502    0 -0.35439584891E+02 -0.24788303524E+02  0.77161187956E+00  0.43456782598E+02  0.41800000000E+01 0.  1.
         -5    1    1    2    0  502 -0.77966398243E+01  0.28187636626E+02  0.17039419162E+03  0.17293635647E+03  0.41800000000E+01 0.  1.
        -11    1    1    2    0    0  0.17106513236E+02 -0.56774765226E+01  0.10577420077E+03  0.10729887270E+03  0.00000000000E+00 0.  1.
         11    1    1    2    0    0  0.26129711480E+02  0.22781434204E+01 -0.95718843282E+01  0.27920829663E+02  0.00000000000E+00 0. -1.
</event>
<event>
 6    1  0.6981059E-006  0.1322854E+03  0.7561462E-02  0.1224103E+00
         -2   -1    0    0    0  501 -0.00000000000E+00  0.00000000000E+00  0.10556123394E+03  0.10556123394E+03  0.00000000000E+00 0.  1.
          2   -1    0    0  501    0  0.00000000000E+00 -0.00000000000E+00 -0.22027077502E+03  0.22027077502E+03  0.00000000000E+00 0. -1.
          5    1    1    2  502    0  0.10386854165E+03 -0.53486165799E+00  0.29372940465E+02  0.10802408090E+03  0.41800000000E+01 0.  1.
         -5    1    1    2    0  502 -0.26552012887E+02 -0.26234417162E+02 -0.18446482753E+02  0.41844941846E+02  0.41800000000E+01 0.  1.
        -11    1    1    2    0    0 -0.26563380146E+02  0.57770501751E+02 -0.60661271518E+02  0.87879655777E+02  0.00000000000E+00 0.  1.
         11    1    1    2    0    0 -0.50753148621E+02 -0.31001222931E+02 -0.64974727268E+02  0.88083330442E+02  0.00000000000E+00 0. -1.
</event>
<event>
 6    1  0.6981059E-006  0.1469270E+03  0.7561462E-02  0.1204301E+00
         -1   -1    0    0    0  501 -0.00000000000E+00  0.00000000000E+00  0.67793633347E+02  0.67793633347E+02  0.00000000000E+00 0.  1.
          1   -1    0    0  501    0  0.00000000000E+00 -0.00000000000E+00 -0.35989752689E+03  0.35989752689E+03  0.00000000000E+00 0. -1.
          5    1    1    2  502    0 -0.42524230093E+02 -0.10978084158E+03 -0.86488117748E+02  0.14614311559E+03  0.41800000000E+01 0. -1.
         -5    1    1    2    0  502 -0.29363876208E+02  0.24327342532E+02 -0.87284235527E+02  0.95341842819E+02  0.41800000000E+01 0. -1.
        -11    1    1    2    0    0  0.40583393414E+02  0.96345946934E+02 -0.64049704043E+02  0.12260472217E+03  0.00000000000E+00 0.  1.
         11    1    1    2    0    0  0.31304712886E+02 -0.10892447884E+02 -0.54281836230E+02  0.63601479655E+02  0.00000000000E+00 0. -1.
</event>
<event>
 6    1  0.6981059E-006  0.1040819E+03  0.7561462E-02  0.1271939E+00
         -1   -1    0    0    0  501 -0.00000000000E+00  0.00000000000E+00  0.14456576836E+03  0.14456576836E+03  0.00000000000E+00 0.  1.
          1   -1    0    0  501    0  0.00000000000E+00 -0.00000000000E+00 -0.86971391067E+02  0.86971391067E+02  0.00000000000E+00 0. -1.
          5    1    1    2  502    0 -0.48621233588E+02 -0.93988547946E+01 -0.64113083020E+01  0.50109281587E+02  0.41800000000E+01 0. -1.
         -5    1    1    2    0  502  0.59342236277E+02  0.35785990782E+02  0.49364629405E+02  0.85184958642E+02  0.41800000000E+01 0. -1.
        -11    1    1    2    0    0  0.16737102791E+02 -0.50063176843E+02  0.25181781258E+02  0.58485676818E+02  0.00000000000E+00 0.  1.
         11    1    1    2    0    0 -0.27458105481E+02  0.23676040856E+02 -0.10540725068E+02  0.37757242380E+02  0.00000000000E+00 0. -1.
</event>
<event>
 6    1  0.6981059E-006  0.1630979E+03  0.7561462E-02  0.1185243E+00
         -2   -1    0    0    0  501 -0.00000000000E+00  0.00000000000E+00  0.14869341833E+03  0.14869341833E+03  0.00000000000E+00 0. -1.
          2   -1    0    0  501    0  0.00000000000E+00 -0.00000000000E+00 -0.22237245177E+03  0.22237245177E+03  0.00000000000E+00 0.  1.
          5    1    1    2  502    0  0.11085809121E+03 -0.73529832103E+02  0.17466532367E+02  0.13423376903E+03  0.41800000000E+01 0.  1.
         -5    1    1    2    0  502  0.24501121786E+02  0.44705101514E+02 -0.11432482274E+02  0.52412070376E+02  0.41800000000E+01 0.  1.
        -11    1    1    2    0    0 -0.60067187848E+02  0.28907498866E+02 -0.86063495994E+02  0.10886062598E+03  0.00000000000E+00 0.  1.
         11    1    1    2    0    0 -0.75292025150E+02 -0.82768276985E-01  0.63504124546E+01  0.75559404710E+02  0.00000000000E+00 0. -1.
</event>
<event>
 6    1  0.6981059E-006  0.1205861E+03  0.7561462E-02  0.1242133E+00
         -3   -1    0    0    0  501 -0.00000000000E+00  0.00000000000E+00  0.63398021959E+02  0.63398021959E+02  0.00000000000E+00 0.  1.
          3   -1    0    0  501    0  0.00000000000E+00 -0.00000000000E+00 -0.24428494831E+03  0.24428494831E+03  0.00000000000E+00 0. -1.
          5    1    1    2  502    0  0.55442037810E+02 -0.78662884682E+02 -0.62384957363E+02  0.11476508305E+03  0.41800000000E+01 0. -1.
         -5    1    1    2    0  502 -0.81143377505E+02  0.55639859217E+02 -0.50745833644E+02  0.11078200973E+03  0.41800000000E+01 0.  1.
        -11    1    1    2    0    0  0.15723522938E+02  0.30219735959E+02 -0.47919852791E+02  0.58794335667E+02  0.00000000000E+00 0. -1.
         11    1    1    2    0    0  0.99778167569E+01 -0.71967104942E+01 -0.19836282549E+02  0.23341541820E+02  0.00000000000E+00 0.  1.
</event>
<event>
 6    1  0.6981059E-006  0.8329286E+02  0.7561462E-02  0.1319958E+00
          2   -1    0    0  501    0  0.00000000000E+00  0.00000000000E+00  0.44227077804E+03  0.44227077804E+03  0.00000000000E+00 0.  1.
         -2   -1    0    0    0  501 -0.00000000000E+00 -0.00000000000E+00 -0.41830533871E+02  0.41830533871E+02  0.00000000000E+00 0. -1.
          5    1    1    2  502    0 -0.24026137286E+02  0.28978895082E+02 -0.19287701679E+02  0.42503170106E+02  0.41800000000E+01 0.  1.
         -5    1    1    2    0  502 -0.14784981924E+02  0.13111342844E+02  0.13721556438E+03  0.13869421945E+03  0.41800000000E+01 0.  1.
        -11    1    1    2    0    0 -0.28564122513E+02  0.92071999951E+00  0.59715008053E+02  0.66201503058E+02  0.00000000000E+00 0. -1.
         11    1    1    2    0    0  0.67375241723E+02 -0.43010957925E+02  0.22279737341E+03  0.23670241929E+03  0.00000000000E+00 0.  1.
</event>
<event>
 6    1  0.6981059E-006  0.1643541E+03  0.7561462E-02  0.1183867E+00
          2   -1    0    0  501    0  0.00000000000E+00  0.00000000000E+00  0.83623395111E+03  0.83623395111E+03  0.00000000000E+00 0. -1.
         -2   -1    0    0    0  501 -0.00000000000E+00 -0.00000000000E+00 -0.40994185089E+02  0.40994185089E+02  0.00000000000E+00 0.  1.
          5    1    1    2  502    0  0.12521237074E+03 -0.24811801280E+02  0.35126780731E+03  0.37376504401E+03  0.41800000000E+01 0. -1.
         -5    1    1    2    0  502 -0.27121521899E+02  0.63858797806E+02  0.49956188101E+02  0.85595654895E+02  0.41800000000E+01 0.  1.
        -11    1    1    2    0    0 -0.36306320412E+01 -0.36822337887E+02  0.57812705552E+02  0.68639456435E+02  0.00000000000E+00 0.  1.
         11    1    1    2    0    0 -0.94460216797E+02 -0.22246586383E+01  0.33620306506E+03  0.34922798086E+03  0.00000000000E+00 0. -1.
</event>
<event>
 6    1  0.6981059E-006  0.9685711E+02  0.7561462E-02  0.1287047E+00
         -1   -1    0    0    0  501 -0.00000000000E+00  0.00000000000E+00  0.22100482989E+03  0.22100482989E+03  0.00000000000E+00 0.  1.
          1   -1    0    0  501    0  0.00000000000E+00 -0.00000000000E+00 -0.65109393619E+02  0.65109393619E+02  0.00000000000E+00 0. -1.
          5    1    1    2  502    0  0.33850695311E+02  0.30835780293E+02  0.96596087601E+02  0.10698126686E+03  0.41800000000E+01 0.  1.
         -5    1    1    2    0  502 -0.55866325614E+02 -0.42707675064E+02  0.44947096911E+02  0.83562585933E+02  0.41800000000E+01 0.  1.
        -11    1    1    2    0    0  0.40996854392E+02  0.30187638709E+02  0.35245008094E+02  0.61921290332E+02  0.00000000000E+00 0.  1.
         11    1    1    2    0    0 -0.18981224089E+02 -0.18315743938E+02 -0.20892756330E+02  0.33649080388E+02  0.00000000000E+00 0. -1.
</event>
<event>
 6    1  0.6981059E-006  0.1511778E+03  0.7561462E-02  0.1199033E+00
         -1   -1    0    0    0  501 -0.00000000000E+00  0.00000000000E+00  0.23808876980E+03  0.23808876980E+03  0.00000000000E+00 0.  1.
          1   -1    0    0  501    0  0.00000000000E+00 -0.00000000000E+00 -0.10517658098E+03  0.10517658098E+03  0.00000000000E+00 0. -1.
          5    1    1    2  502    0 -0.23334821273E+02 -0.11269329707E+03  0.72949980856E+02  0.13632118396E+03  0.41800000000E+01 0. -1.
         -5    1    1    2    0  502 -0.44876592246E+02  0.21155105229E+02  0.47857794150E+01  0.50018227612E+02  0.41800000000E+01 0. -1.
        -11    1    1    2    0    0  0.27985068184E+02 -0.87753041529E+01 -0.96754473285E+01  0.30883398214E+02  0.00000000000E+00 0. -1.
         11    1    1    2    0    0  0.40226345335E+02  0.10031349599E+03  0.64851875874E+02  0.12604254100E+03  0.00000000000E+00 0.  1.
</event>
<event>
 6    1  0.6981059E-006  0.1232146E+03  0.7561462E-02  0.1237886E+00
          2   -1    0    0  501    0  0.00000000000E+00  0.00000000000E+00  0.57609602996E+03  0.57609602996E+03  0.00000000000E+00 0.  1.
         -2   -1    0    0    0  501 -0.00000000000E+00 -0.00000000000E+00 -0.33199015180E+02  0.33199015180E+02  0.00000000000E+00 0. -1.
          5    1    1    2  502    0  0.39932243188E+02 -0.48061042559E+02  0.19863947254E+03  0.20827760396E+03  0.41800000000E+01 0.  1.
         -5    1    1    2    0  502  0.41686563029E+02  0.46443473700E+02  0.43362905704E+02  0.76108999321E+02  0.41800000000E+01 0.  1.
        -11    1    1    2    0    0  0.19528891023E+02  0.46040934357E+01  0.69872387416E+02  0.72696119458E+02  0.00000000000E+00 0. -1.
         11    1    1    2    0    0 -0.10114769724E+03 -0.29865245768E+01  0.23102224912E+03  0.25221232240E+03  0.00000000000E+00 0.  1.
</event>
<event>
 6    1  0.6981059E-006  0.1030163E+03  0.7561462E-02  0.1274078E+00
         -1   -1    0    0    0  501 -0.00000000000E+00  0.00000000000E+00  0.18362208623E+02  0.18362208623E+02  0.00000000000E+00 0.  1.
          1   -1    0    0  501    0  0.00000000000E+00 -0.00000000000E+00 -0.72677615659E+03  0.72677615659E+03  0.00000000000E+00 0. -1.
          5    1    1    2  502    0  0.30426593940E+02 -0.50245369870E+02 -0.79486468526E+02  0.98923939928E+02  0.41800000000E+01 0. -1.
         -5    1    1    2    0  502 -0.38004076646E+02  0.39677494185E+02 -0.20198687412E+03  0.20936757892E+03  0.41800000000E+01 0. -1.
        -11    1    1    2    0    0 -0.22734113321E+01  0.50684336619E+02 -0.25675723215E+03  0.26172188796E+03  0.00000000000E+00 0. -1.
         11    1    1    2    0    0  0.98508940386E+01 -0.40116460935E+02 -0.17018337318E+03  0.17512495841E+03  0.00000000000E+00 0.  1.
</event>
<event>
 6    1  0.6981059E-006  0.1218184E+03  0.7561462E-02  0.1240127E+00
          1   -1    0    0  501    0  0.00000000000E+00  0.00000000000E+00  0.78956515393E+03  0.78956515393E+03  0.00000000000E+00 0. -1.
         -1   -1    0    0    0  501 -0.00000000000E+00 -0.00000000000E+00 -0.26217039848E+02  0.26217039848E+02  0.00000000000E+00 0.  1.
          5    1    1    2  502    0  0.40186621295E+02 -0.50101757843E+02  0.60183024921E+02  0.88117078701E+02  0.41800000000E+01 0.  1.
         -5    1    1    2    0  502 -0.43150052451E+02 -0.36566545273E+02  0.26395039988E+03  0.26997467522E+03  0.41800000000E+01 0.  1.
        -11    1    1    2    0    0 -0.36051912393E+02  0.72647409483E+02  0.21740332986E+03  0.23203791570E+03  0.00000000000E+00 0.  1.
         11    1    1    2    0    0  0.39015343548E+02  0.14020893633E+02  0.22181135942E+03  0.22565252415E+03  0.00000000000E+00 0. -1.
</event>
<event>
 6    1  0.6981059E-006  0.1038150E+03  0.7561462E-02  0.1272472E+00
         -1   -1    0    0    0  501 -0.00000000000E+00  0.00000000000E+00  0.17877885838E+03  0.17877885838E+03  0.00000000000E+00 0.  1.
          1   -1    0    0  501    0  0.00000000000E+00 -0.00000000000E+00 -0.94436345184E+02  0.94436345184E+02  0.00000000000E+00 0. -1.
          5    1    1    2  502    0  0.55370358815E+02 -0.43476961606E+02  0.10633281139E+03  0.12759412997E+03  0.41800000000E+01 0. -1.
         -5    1    1    2    0  502 -0.29175387590E+02  0.32709982127E+02  0.91066005528E+01  0.44961636374E+02  0.41800000000E+01 0. -1.
        -11    1    1    2    0    0  0.17170237348E+02  0.38117862455E+02 -0.23323108978E+01  0.41871567475E+02  0.00000000000E+00 0.  1.
         11    1    1    2    0    0 -0.43365208573E+02 -0.27350882976E+02 -0.28764587852E+02  0.58787869739E+02  0.00000000000E+00 0. -1.
</event>
<event>
 6    1  0.6981059E-006  0.1013572E+03  0.7561462E-02  0.1277467E+00
         -2   -1    0    0    0  501 -0.00000000000E+00  0.00000000000E+00  0.10023185913E+03  0.10023185913E+03  0.00000000000E+00 0. -1.
          2   -1    0    0  501    0  0.00000000000E+00 -0.00000000000E+00 -0.21700786915E+03  0.21700786915E+03  0.00000000000E+00 0.  1.
          5    1    1    2  502    0  0.21639213937E+02 -0.47041878042E+02  0.47214445255E+02  0.70198789949E+02  0.41800000000E+01 0. -1.
         -5    1    1    2    0  502 -0.50607341224E+02 -0.32755933382E+02 -0.54144097381E+02  0.81136365698E+02  0.41800000000E+01 0. -1.
        -11    1    1    2    0    0  0.10628610722E+02  0.67325208896E+02 -0.12263465965E+03  0.14030292536E+03  0.00000000000E+00 0.  1.
         11    1    1    2    0    0  0.18339516565E+02  0.12472602528E+02  0.12788301752E+02  0.25601647278E+02  0.00000000000E+00 0. -1.
</event>
<event>
 6    1  0.6981059E-006  0.1387989E+03  0.7561462E-02  0.1214954E+00
         -1   -1    0    0    0  501 -0.00000000000E+00  0.00000000000E+00  0.47199977662E+03  0.47199977662E+03  0.00000000000E+00 0.  1.
          1   -1    0    0  501    0  0.00000000000E+00 -0.00000000000E+00 -0.72288367911E+02  0.72288367911E+02  0.00000000000E+00 0. -1.
          5    1    1    2  502    0  0.11387481505E+03  0.34546610369E+02  0.18617652107E+03  0.22099798911E+03  0.41800000000E+01 0.  1.
         -5    1    1    2    0  502  0.30629866502E+01 -0.40839969644E+02  0.16077345740E+03  0.16596042303E+03  0.41800000000E+01 0.  1.
        -11    1    1    2    0    0 -0.59052856265E+02  0.70131439982E+01  0.74649149894E+02  0.95440660107E+02  0.00000000000E+00 0.  1.
         11    1    1    2    0    0 -0.57884945432E+02 -0.71978472319E+00 -0.21887719654E+02  0.61889072293E+02  0.00000000000E+00 0. -1.
</event>
<event>
 6    1  0.6981059E-006  0.5981768E+02  0.7561462E-02  0.1398598E+00
         -1   -1    0    0    0  501 -0.00000000000E+00  0.00000000000E+00  0.10871621529E+03  0.10871621529E+03  0.00000000000E+00 0.  1.
          1   -1    0    0  501    0  0.00000000000E+00 -0.00000000000E+00 -0.18211088475E+03  0.18211088475E+03  0.00000000000E+00 0. -1.
          5    1    1    2  502    0  0.26949356667E+02  0.60533071773E+01  0.85278900423E+02  0.89737804798E+02  0.41800000000E+01 0.  1.
         -5    1    1    2    0  502  0.10119133618E+02  0.17100714115E+02 -0.44506632427E+02  0.48919771243E+02  0.41800000000E+01 0.  1.
        -11    1    1    2    0    0 -0.52171318935E+02 -0.15281817168E+02 -0.12189395166E+03  0.13346728403E+03  0.00000000000E+00 0. -1.
         11    1    1    2    0    0  0.15102828651E+02 -0.78722041244E+01  0.77270142121E+01  0.18702239964E+02  0.00000000000E+00 0.  1.
</event>
<event>
 6    1  0.6981059E-006  0.1808367E+03  0.7561462E-02  0.1166996E+00
         -2   -1    0    0    0  501 -0.00000000000E+00  0.00000000000E+00  0.59335095423E+02  0.59335095423E+02  0.00000000000E+00 0.  1.
          2   -1    0    0  501    0  0.00000000000E+00 -0.00000000000E+00 -0.65583969945E+03  0.65583969945E+03  0.00000000000E+00 0. -1.
          5    1    1    2  502    0  0.15087389524E+00  0.88157965541E+02 -0.74903841018E+02  0.11575796927E+03  0.41800000000E+01 0. -1.
         -5    1    1    2    0  502 -0.10308721573E+03  0.37042472110E+02 -0.18585680976E+03  0.21577614540E+03  0.41800000000E+01 0. -1.
        -11    1    1    2    0    0  0.14616788472E+02 -0.68998124708E+01  0.75445900407E+00  0.16181073072E+02  0.00000000000E+00 0.  1.
         11    1    1    2    0    0  0.88319553366E+02 -0.11830062518E+03 -0.33649841225E+03  0.36745960713E+03  0.00000000000E+00 0. -1.
</event>
<event>
 6    1  0.6981059E-006  0.9210995E+02  0.7561462E-02  0.1297821E+00
         -2   -1    0    0    0  501 -0.00000000000E+00  0.00000000000E+00  0.33801704306E+03  0.33801704306E+03  0.00000000000E+00 0.  1.
          2   -1    0    0  501    0  0.00000000000E+00 -0.00000000000E+00 -0.47554148101E+02  0.47554148101E+02  0.00000000000E+00 0. -1.
          5    1    1    2  502    0  0.63455265533E+02 -0.34940209041E+02  0.11041261509E+03  0.13212042576E+03  0.41800000000E+01 0. -1.
         -5    1    1    2    0  502 -0.40761685516E+02  0.28229969533E+02  0.14428217071E+03  0.15262130707E+03  0.41800000000E+01 0. -1.
        -11    1    1    2    0    0  0.18654297243E+02 -0.42369583742E+01  0.51747068616E+02  0.55169681277E+02  0.00000000000E+00 0.  1.
         11    1    1    2    0    0 -0.41347877260E+02  0.10947197882E+02 -0.15978959459E+02  0.45659777055E+02  0.00000000000E+00 0. -1.
</event>
<event>
 6    1  0.6981059E-006  0.1745782E+03  0.7561462E-02  0.1173156E+00
         -1   -1    0    0    0  501 -0.00000000000E+00  0.00000000000E+00  0.73947073824E+02  0.73947073824E+02  0.00000000000E+00 0.  1.
          1   -1    0    0  501    0  0.00000000000E+00 -0.00000000000E+00 -0.57274613551E+03  0.57274613551E+03  0.00000000000E+00 0. -1.
          5    1    1    2  502    0 -0.11347168252E+00 -0.35135590905E+02 -0.81520619108E+02  0.88868477898E+02  0.41800000000E+01 0.  1.
         -5    1    1    2    0  502 -0.13892353662E+03 -0.38973773566E+02 -0.56054388816E+02  0.15484918779E+03  0.41800000000E+01 0.  1.
        -11    1    1    2    0    0  0.74025127411E+02  0.44751867774E+01 -0.22374801503E+03  0.23571788437E+03  0.00000000000E+00 0. -1.
         11    1    1    2    0    0  0.65011880892E+02  0.69634177693E+02 -0.13747603873E+03  0.16725765927E+03  0.00000000000E+00 0.  1.
</event>
<event>
 6    1  0.6981059E-006  0.1422192E+03  0.7561462E-02  0.1210374E+00
         -2   -1    0    0    0  501 -0.00000000000E+00  0.00000000000E+00  0.51056748269E+02  0.51056748269E+02  0.00000000000E+00 0.  1.
          2   -1    0    0  501    0  0.00000000000E+00 -0.00000000000E+00 -0.54183028126E+03  0.54183028126E+03  0.00000000000E+00 0. -1.
          5    1    1    2  502    0  0.83132139392E+02  0.52602525546E+02 -0.70532494723E+02  0.12112094578E+03  0.41800000000E+01 0.  1.
         -5    1    1    2    0  502  0.40795060667E+02 -0.10271244497E+02 -0.20007930617E+03  0.20449678872E+03  0.41800000000E+01 0.  1.
        -11    1    1    2    0    0 -0.35652470667E+02 -0.42433362612E+02 -0.46047068541E+02  0.72055682971E+02  0.00000000000E+00 0.  1.
         11    1    1    2    0    0 -0.88274729392E+02  0.10208156301E+00 -0.17411466356E+03  0.19521361207E+03  0.00000000000E+00 0. -1.
</event>
<event>
 6    1  0.6981059E-006  0.1171665E+03  0.7561462E-02  0.1247846E+00
         -1   -1    0    0    0  501 -0.00000000000E+00  0.00000000000E+00  0.23916358697E+03  0.23916358697E+03  0.00000000000E+00 0.  1.
          1   -1    0    0  501    0  0.00000000000E+00 -0.00000000000E+00 -0.92041694113E+02  0.92041694113E+02  0.00000000000E+00 0. -1.
          5    1    1    2  502    0  0.33420123422E+02  0.66568784987E+02  0.12544653767E+03  0.14595415033E+03  0.41800000000E+01 0.  1.
         -5    1    1    2    0  502 -0.18997303909E+02 -0.44315034051E+02  0.37836773238E+02  0.61431373156E+02  0.41800000000E+01 0.  1.
        -11    1    1    2    0    0 -0.41743228944E+02 -0.54769034242E+02  0.15817897736E+02  0.70656564898E+02  0.00000000000E+00 0.  1.
         11    1    1    2    0    0  0.27320409431E+02  0.32515283306E+02 -0.31979315788E+02  0.53163192702E+02  0.00000000000E+00 0. -1.
</event>
<event>
 6    1  0.6981059E-006  0.1140200E+03  0.7561462E-02  0.1253301E+00
         -1   -1    0    0    0  501 -0.00000000000E+00  0.00000000000E+00  0.55065472932E+02  0.55065472932E+02  0.00000000000E+00 0.  1.
          1   -1    0    0  501    0  0.00000000000E+00 -0.00000000000E+00 -0.31092749629E+03  0.31092749629E+03  0.00000000000E+00 0. -1.
          5    1    1    2  502    0  0.21634512426E+02  0.48157633482E+02  0.32620740475E+01  0.53059620406E+02  0.41800000000E+01 0. -1.
         -5    1    1    2    0  502 -0.65055035737E+02 -0.61518947986E+01 -0.87898593645E+02  0.10960674545E+03  0.41800000000E+01 0. -1.
        -11    1    1    2    0    0  0.56818825029E+02  0.84085970373E+01 -0.92790577706E+02  0.10912916518E+03  0.00000000000E+00 0. -1.
         11    1    1    2    0    0 -0.13398301717E+02 -0.50414335721E+02 -0.78434926057E+02  0.94197438186E+02  0.00000000000E+00 0.  1.
</event>
<event>
 6    1  0.6981059E-006  0.7935126E+02  0.7561462E-02  0.1330903E+00
         -2   -1    0    0    0  501 -0.00000000000E+00  0.00000000000E+00  0.19858427632E+02  0.19858427632E+02  0.00000000000E+00 0.  1.
          2   -1    0    0  501    0  0.00000000000E+00 -0.00000000000E+00 -0.81395688770E+03  0.81395688770E+03  0.00000000000E+00 0. -1.
          5    1    1    2  502    0  0.32550133495E+02  0.14343660728E+02 -0.44033034957E+03  0.44178449605E+03  0.41800000000E+01 0. -1.
         -5    1    1    2    0  502  0.24158678898E+02 -0.43369905727E+02 -0.60633679885E+02  0.78476149404E+02  0.41800000000E+01 0. -1.
        -11    1    1    2    0    0 -0.16782966593E+02 -0.80206737455E+01 -0.36055541627E+01  0.18947274100E+02  0.00000000000E+00 0.  1.
         11    1    1    2    0    0 -0.39925845801E+02  0.37046918744E+02 -0.28952887645E+03  0.29460739578E+03  0.00000000000E+00 0. -1.
</event>
<event>
 6    1  0.6981059E-006  0.1892973E+03  0.7561462E-02  0.1159097E+00
         -2   -1    0    0    0  501 -0.00000000000E+00  0.00000000000E+00  0.26852784373E+02  0.26852784373E+02  0.00000000000E+00 0.  1.
          2   -1    0    0  501    0  0.00000000000E+00 -0.00000000000E+00 -0.15995303130E+04  0.15995303130E+04  0.00000000000E+00 0. -1.
          5    1    1    2  502    0  0.11690851380E+03  0.10207018437E+02 -0.28480667259E+03  0.30806508561E+03  0.41800000000E+01 0.  1.
         -5    1    1    2    0  502  0.48245270578E+02 -0.66850389305E+02 -0.44917315278E+03  0.45669527506E+03  0.41800000000E+01 0.  1.
        -11    1    1    2    0    0 -0.92479303794E+01 -0.55286528656E+01 -0.63205498186E+01  0.12491579917E+02  0.00000000000E+00 0.  1.
         11    1    1    2    0    0 -0.15590585400E+03  0.62172023733E+02 -0.83237715341E+03  0.84913115675E+03  0.00000000000E+00 0. -1.
</event>
<event>
 6    1  0.6981059E-006  0.1302244E+03  0.7561462E-02  0.1227123E+00
          3   -1    0    0  501    0  0.00000000000E+00  0.00000000000E+00  0.46574545390E+03  0.46574545390E+03  0.00000000000E+00 0. -1.
         -3   -1    0    0    0  501 -0.00000000000E+00 -0.00000000000E+00 -0.53804550438E+02  0.53804550438E+02  0.00000000000E+00 0.  1.
          5    1    1    2  502    0  0.21690752742E+02 -0.55864258225E+01 -0.32386337825E+01  0.23014301136E+02  0.41800000000E+01 0. -1.
         -5    1    1    2    0  502 -0.11162676626E+03  0.61893826333E+02  0.15085198984E+03  0.19764912325E+03  0.41800000000E+01 0. -1.
        -11    1    1    2    0    0  0.22058558305E+02 -0.46853622233E+00  0.19162410588E+01  0.22146591171E+02  0.00000000000E+00 0.  1.
         11    1    1    2    0    0  0.67877455214E+02 -0.55838864288E+02  0.26241130635E+03  0.27673998878E+03  0.00000000000E+00 0. -1.
</event>
<event>
 6    1  0.6981059E-006  0.1206897E+03  0.7561462E-02  0.1241964E+00
          2   -1    0    0  501    0  0.00000000000E+00  0.00000000000E+00  0.72395132043E+02  0.72395132043E+02  0.00000000000E+00 0. -1.
         -2   -1    0    0    0  501 -0.00000000000E+00 -0.00000000000E+00 -0.29355801679E+03  0.29355801679E+03  0.00000000000E+00 0.  1.
          5    1    1    2  502    0  0.72086680288E+01  0.12340019476E+02  0.16256109106E+02  0.22044828388E+02  0.41800000000E+01 0.  1.
         -5    1    1    2    0  502 -0.10218344980E+03 -0.99736805310E+01 -0.16440588328E+03  0.19387547182E+03  0.41800000000E+01 0.  1.
        -11    1    1    2    0    0  0.32628289746E+02 -0.39449104327E+02 -0.55303560801E+02  0.75361269636E+02  0.00000000000E+00 0.  1.
         11    1    1    2    0    0  0.62346492022E+02  0.37082765382E+02 -0.17709549773E+02  0.74671578991E+02  0.00000000000E+00 0. -1.
</event>
<event>
 6    1  0.6981059E-006  0.1460172E+03  0.7561462E-02  0.1205454E+00
          4   -1    0    0  501    0  0.00000000000E+00  0.00000000000E+00  0.45235047662E+03  0.45235047662E+03  0.00000000000E+00 0.  1.
         -4   -1    0    0    0  501 -0.00000000000E+00 -0.00000000000E+00 -0.58776936896E+02  0.58776936896E+02  0.00000000000E+00 0. -1.
          5    1    1    2  502    0  0.60782363964E+02  0.73772111106E+02  0.10327075920E+03  0.14078047539E+03  0.41800000000E+01 0. -1.
         -5    1    1    2    0  502  0.57642966918E+02 -0.47717867769E+02  0.13469364957E+03  0.15414135777E+03  0.41800000000E+01 0. -1.
        -11    1    1    2    0    0 -0.58284374651E+02 -0.15921283245E+02  0.13998835268E+02  0.62020343255E+02  0.00000000000E+00 0. -1.
         11    1    1    2    0    0 -0.60140956231E+02 -0.10132960092E+02  0.14161029569E+03  0.15418523710E+03  0.00000000000E+00 0.  1.
</event>
<event>
 6    1  0.6981059E-006  0.1685592E+03  0.7561462E-02  0.1179359E+00
         -2   -1    0    0    0  501 -0.00000000000E+00  0.00000000000E+00  0.75025560345E+02  0.75025560345E+02  0.00000000000E+00 0. -1.
          2   -1    0    0  501    0  0.00000000000E+00 -0.00000000000E+00 -0.63545275115E+03  0.63545275115E+03  0.00000000000E+00 0.  1.
          5    1    1    2  502    0 -0.11439623723E+03 -0.43717754711E+02 -0.45789026836E+02  0.13081226451E+03  0.41800000000E+01 0. -1.
         -5    1    1    2    0  502  0.22543444435E+02 -0.58470868862E+02 -0.33851024008E+02  0.71347134623E+02  0.41800000000E+01 0. -1.
        -11    1    1    2    0    0  0.92070601307E+02  0.60681994374E+02 -0.42321338908E+03  0.43734296926E+03  0.00000000000E+00 0.  1.
         11    1    1    2    0    0 -0.21780851428E+00  0.41506629199E+02 -0.57573750885E+02  0.70975943101E+02  0.00000000000E+00 0. -1.
</event>
<event>
 6    1  0.6981059E-006  0.9711135E+02  0.7561462E-02  0.1286490E+00
         -1   -1    0    0    0  501 -0.00000000000E+00  0.00000000000E+00  0.49712734059E+02  0.49712734059E+02  0.00000000000E+00 0.  1.
          1   -1    0    0  501    0  0.00000000000E+00 -0.00000000000E+00 -0.34698150294E+03  0.34698150294E+03  0.00000000000E+00 0. -1.
          5    1    1    2  502    0  0.45663590163E+02 -0.65639044011E+02 -0.75615772472E+02  0.11013112644E+03  0.41800000000E+01 0. -1.
         -5    1    1    2    0  502  0.85924324634E+01  0.50154764461E+02 -0.11258143081E+02  0.52283348012E+02  0.41800000000E+01 0. -1.
        -11    1    1    2    0    0 -0.15858703206E+02  0.18753687084E+02 -0.46994525994E+01  0.25005681382E+02  0.00000000000E+00 0.  1.
         11    1    1    2    0    0 -0.38397319420E+02 -0.32694075335E+01 -0.20569540073E+03  0.20927408116E+03  0.00000000000E+00 0. -1.
</event>
<event>
 6    1  0.6981059E-006  0.2941427E+03  0.7561462E-02  0.1088206E+00
         -4   -1    0    0    0  501 -0.00000000000E+00  0.00000000000E+00  0.71472606710E+03  0.71472606710E+03  0.00000000000E+00 0.  1.
          4   -1    0    0  501    0  0.00000000000E+00 -0.00000000000E+00 -0.13238583196E+03  0.13238583196E+03  0.00000000000E+00 0. -1.
          5    1    1    2  502    0  0.13604258906E+03  0.23261096550E+03  0.29849988248E+03  0.40216302608E+03  0.41800000000E+01 0.  1.
         -5    1    1    2    0  502 -0.13475690339E+02  0.27110006925E+02  0.41522293449E-01  0.30561754362E+02  0.41800000000E+01 0.  1.
        -11    1    1    2    0    0 -0.42292044755E+02 -0.11788655110E+03  0.63683437327E+02  0.14050422118E+03  0.00000000000E+00 0. -1.
         11    1    1    2    0    0 -0.80274853965E+02 -0.14183442133E+03  0.22011539305E+03  0.27388289744E+03  0.00000000000E+00 0.  1.
</event>
<event>
 6    1  0.6981059E-006  0.1307700E+03  0.7561462E-02  0.1226318E+00
         -1   -1    0    0    0  501 -0.00000000000E+00  0.00000000000E+00  0.65540366226E+02  0.65540366226E+02  0.00000000000E+00 0.  1.
          1   -1    0    0  501    0  0.00000000000E+00 -0.00000000000E+00 -0.43072730242E+03  0.43072730242E+03  0.00000000000E+00 0. -1.
          5    1    1    2  502    0 -0.62651552611E+02 -0.11084922552E+03 -0.14185355484E+03  0.19066376495E+03  0.41800000000E+01 0. -1.
         -5    1    1    2    0  502  0.13655735241E+02  0.19715967566E+01  0.17244500262E+02  0.22476910109E+02  0.41800000000E+01 0. -1.
        -11    1    1    2    0    0  0.30104096965E+02  0.76924080649E+02 -0.69155025313E+02  0.10773109284E+03  0.00000000000E+00 0.  1.
         11    1    1    2    0    0  0.18891720406E+02  0.31953548118E+02 -0.17142285630E+03  0.17539590075E+03  0.00000000000E+00 0. -1.
</event>
<event>
 6    1  0.6981059E-006  0.7508725E+02  0.7561462E-02  0.1343601E+00
         -3   -1    0    0    0  501 -0.00000000000E+00  0.00000000000E+00  0.50479561748E+02  0.50479561748E+02  0.00000000000E+00 0.  1.
          3   -1    0    0  501    0  0.00000000000E+00 -0.00000000000E+00 -0.29525927460E+03  0.29525927460E+03  0.00000000000E+00 0. -1.
          5    1    1    2  502    0  0.15759907329E+02  0.77687151248E+01 -0.12536793301E+03  0.12666222263E+03  0.41800000000E+01 0. -1.
         -5    1    1    2    0  502 -0.53795308698E+02 -0.15100498971E+02 -0.20811997691E+01  0.56069279464E+02  0.41800000000E+01 0. -1.
        -11    1    1    2    0    0  0.22052030617E+02 -0.28975859692E+02  0.27764972161E+01  0.36518508130E+02  0.00000000000E+00 0.  1.
         11    1    1    2    0    0  0.15983370752E+02  0.36307643539E+02 -0.12010707729E+03  0.12648882613E+03  0.00000000000E+00 0. -1.
</event>
<event>
 6    1  0.6981059E-006  0.1163740E+03  0.7561462E-02  0.1249202E+00
         -1   -1    0    0    0  501 -0.00000000000E+00  0.00000000000E+00  0.35614238930E+02  0.35614238930E+02  0.00000000000E+00 0.  1.
          1   -1    0    0  501    0  0.00000000000E+00 -0.00000000000E+00 -0.52080071564E+03  0.52080071564E+03  0.00000000000E+00 0. -1.
          5    1    1    2  502    0  0.38688176557E+01  0.83722678954E+02 -0.79358721719E+02  0.11549776549E+03  0.41800000000E+01 0.  1.
         -5    1    1    2    0  502  0.44344165138E+02 -0.31691948921E+02 -0.10432354339E+03  0.11777800607E+03  0.41800000000E+01 0.  1.
        -11    1    1    2    0    0 -0.45107208006E+02 -0.31817717598E+01 -0.24152835871E+03  0.24572491112E+03  0.00000000000E+00 0. -1.
         11    1    1    2    0    0 -0.31057747878E+01 -0.48848958272E+02 -0.59975852894E+02  0.77414271887E+02  0.00000000000E+00 0.  1.
</event>
<event>
 6    1  0.6981059E-006  0.2082706E+03  0.7561462E-02  0.1142943E+00
          1   -1    0    0  501    0  0.00000000000E+00  0.00000000000E+00  0.77395437358E+03  0.77395437358E+03  0.00000000000E+00 0. -1.
         -1   -1    0    0    0  501 -0.00000000000E+00 -0.00000000000E+00 -0.64159924055E+02  0.64159924055E+02  0.00000000000E+00 0.  1.
          5    1    1    2  502    0 -0.98037707518E+02 -0.13232359373E+03  0.16720601530E+03  0.23472590293E+03  0.41800000000E+01 0. -1.
         -5    1    1    2    0  502  0.38831450215E+02 -0.35942775705E+02  0.57884002723E+02  0.78535309399E+02  0.41800000000E+01 0. -1.
        -11    1    1    2    0    0 -0.20753058331E+02  0.64311137504E+02  0.20670410773E+03  0.21746999790E+03  0.00000000000E+00 0. -1.
         11    1    1    2    0    0  0.79959315635E+02  0.10395523193E+03  0.27800032377E+03  0.30738308740E+03  0.00000000000E+00 0.  1.
</event>
<event>
 6    1  0.6981059E-006  0.1327749E+03  0.7561462E-02  0.1223395E+00
          2   -1    0    0  501    0  0.00000000000E+00  0.00000000000E+00  0.10075013704E+04  0.10075013704E+04  0.00000000000E+00 0. -1.
         -2   -1    0    0    0  501 -0.00000000000E+00 -0.00000000000E+00 -0.21261536126E+02  0.21261536126E+02  0.00000000000E+00 0.  1.
          5    1    1    2  502    0 -0.70654320165E+02 -0.15651921863E+00  0.42278265134E+03  0.42866618730E+03  0.41800000000E+01 0. -1.
         -5    1    1    2    0  502  0.13512050603E+01 -0.64356936807E+02  0.10506471663E+03  0.12328709645E+03  0.41800000000E+01 0.  1.
        -11    1    1    2    0    0 -0.10447922523E+02  0.47609350666E+02  0.14429779969E+03  0.15230779478E+03  0.00000000000E+00 0. -1.
         11    1    1    2    0    0  0.79751037627E+02  0.16904105360E+02  0.31409466665E+03  0.32450182804E+03  0.00000000000E+00 0.  1.
</event>
<event>
 6    1  0.6981059E-006  0.9585156E+02  0.7561462E-02  0.1289270E+00
          1   -1    0    0  501    0  0.00000000000E+00  0.00000000000E+00  0.20098799742E+03  0.20098799742E+03  0.00000000000E+00 0. -1.
         -1   -1    0    0    0  501 -0.00000000000E+00 -0.00000000000E+00 -0.63068533785E+02  0.63068533785E+02  0.00000000000E+00 0.  1.
          5    1    1    2  502    0 -0.10987871435E+02 -0.53981424020E+02  0.10049416601E+02  0.56153278016E+02  0.41800000000E+01 0. -1.
         -5    1    1    2    0  502  0.35833638586E+02  0.58675360490E+02  0.48572758434E+02  0.84283051943E+02  0.41800000000E+01 0. -1.
        -11    1    1    2    0    0 -0.39617533509E+02  0.15513360606E+02  0.87486701697E+02  0.97283792547E+02  0.00000000000E+00 0. -1.
         11    1    1    2    0    0  0.14771766357E+02 -0.20207297075E+02 -0.81894130959E+01  0.26336408701E+02  0.00000000000E+00 0.  1.
</event>
<event>
 6    1  0.6981059E-006  0.6167733E+02  0.7561462E-02  0.1390925E+00
         -1   -1    0    0    0  501 -0.00000000000E+00  0.00000000000E+00  0.43902848815E+02  0.43902848815E+02  0.00000000000E+00 0.  1.
          1   -1    0    0  501    0  0.00000000000E+00 -0.00000000000E+00 -0.28778395374E+03  0.28778395374E+03  0.00000000000E+00 0. -1.
          5    1    1    2  502    0  0.35369988896E+02 -0.20921643079E+01  0.13062246520E+02  0.37993525108E+02  0.41800000000E+01 0.  1.
         -5    1    1    2    0  502 -0.40053611649E+02 -0.16624643193E+02 -0.12012823192E+03  0.12778472159E+03  0.41800000000E+01 0.  1.
        -11    1    1    2    0    0  0.13855218941E+02 -0.79052694110E+01  0.83726183301E+01  0.18015579759E+02  0.00000000000E+00 0.  1.
         11    1    1    2    0    0 -0.91715961883E+01  0.26622076912E+02 -0.14518773785E+03  0.14789297609E+03  0.00000000000E+00 0. -1.
</event>
<event>
 6    1  0.6981059E-006  0.1882413E+03  0.7561462E-02  0.1160057E+00
         -1   -1    0    0    0  501 -0.00000000000E+00  0.00000000000E+00  0.85155836603E+02  0.85155836603E+02  0.00000000000E+00 0.  1.
          1   -1    0    0  501    0  0.00000000000E+00 -0.00000000000E+00 -0.56425130756E+03  0.56425130756E+03  0.00000000000E+00 0. -1.
          5    1    1    2  502    0 -0.11304737213E+03 -0.48438755353E+02 -0.32126864955E+02  0.12718344711E+03  0.41800000000E+01 0.  1.
         -5    1    1    2    0  502 -0.60068259922E+02  0.41128972308E+02 -0.10108755160E+03  0.12464330588E+03  0.41800000000E+01 0.  1.
        -11    1    1    2    0    0  0.65999732797E+02  0.27504126487E+02 -0.66331404275E+02  0.97531004794E+02  0.00000000000E+00 0.  1.
         11    1    1    2    0    0  0.10711589926E+03 -0.20194343442E+02 -0.27954965013E+03  0.30004938638E+03  0.00000000000E+00 0. -1.
</event>
<event>
 6    1  0.6981059E-006  0.1369747E+03  0.7561462E-02  0.1217459E+00
          2   -1    0    0  501    0  0.00000000000E+00  0.00000000000E+00  0.58254457058E+03  0.58254457058E+03  0.00000000000E+00 0. -1.
         -2   -1    0    0    0  501 -0.00000000000E+00 -0.00000000000E+00 -0.51095197403E+02  0.51095197403E+02  0.00000000000E+00 0.  1.
          5    1    1    2  502    0 -0.41041873510E+02 -0.70440797305E+02  0.17169390840E+03  0.19011210347E+03  0.41800000000E+01 0. -1.
         -5    1    1    2    0  502 -0.43839431282E+02 -0.95786172377E+01 -0.89890973011E+01  0.45955651596E+02  0.41800000000E+01 0. -1.
        -11    1    1    2    0    0  0.76597863413E+02  0.99798717095E+02  0.29337780924E+03  0.31921396518E+03  0.00000000000E+00 0. -1.
         11    1    1    2    0    0  0.82834413790E+01 -0.19779302552E+02  0.75366752848E+02  0.78358047738E+02  0.00000000000E+00 0.  1.
</event>
<event>
 6    1  0.6981059E-006  0.4164719E+03  0.7561462E-02  0.1038221E+00
          3   -1    0    0  501    0  0.00000000000E+00  0.00000000000E+00  0.21163070284E+03  0.21163070284E+03  0.00000000000E+00 0. -1.
         -3   -1    0    0    0  501 -0.00000000000E+00 -0.00000000000E+00 -0.12187783020E+04  0.12187783020E+04  0.00000000000E+00 0.  1.
          5    1    1    2  502    0 -0.10024374269E+03 -0.23625162922E+03 -0.62825373080E+03  0.67866329127E+03  0.41800000000E+01 0. -1.
         -5    1    1    2    0  502 -0.13070983771E+03 -0.95392429033E+02 -0.28348131781E+03  0.32644127671E+03  0.41800000000E+01 0. -1.
        -11    1    1    2    0    0  0.16373334397E+03  0.15526518561E+03 -0.48217972100E+02  0.23073980719E+03  0.00000000000E+00 0.  1.
         11    1    1    2    0    0  0.67220236436E+02  0.17637887264E+03 -0.47194578501E+02  0.19456462973E+03  0.00000000000E+00 0. -1.
</event>
<event>
 6    1  0.6981059E-006  0.9111741E+02  0.7561462E-02  0.1300168E+00
          1   -1    0    0  501    0  0.00000000000E+00  0.00000000000E+00  0.20665743322E+02  0.20665743322E+02  0.00000000000E+00 0. -1.
         -1   -1    0    0    0  501 -0.00000000000E+00 -0.00000000000E+00 -0.95541085302E+03  0.95541085302E+03  0.00000000000E+00 0.  1.
          5    1    1    2  502    0  0.72216786613E+02 -0.32871002396E+02 -0.29155361317E+03  0.30218661258E+03  0.41800000000E+01 0.  1.
         -5    1    1    2    0  502 -0.21630310844E+02  0.29085190765E+02 -0.45579169571E+03  0.45724977960E+03  0.41800000000E+01 0.  1.
        -11    1    1    2    0    0 -0.48244690845E+01 -0.15796108702E+02  0.55107038771E+01  0.17411502212E+02  0.00000000000E+00 0. -1.
         11    1    1    2    0    0 -0.45762006685E+02  0.19581920332E+02 -0.19291050470E+03  0.19922870195E+03  0.00000000000E+00 0.  1.
</event>
<event>
 6    1  0.9160938E-006  0.1980198E+03  0.7561462E-02  0.1151421E+00
         -1   -1    0    0    0  501 -0.00000000000E+00  0.00000000000E+00  0.70659569030E+02  0.70659569030E+02  0.00000000000E+00 0.  1.
          1   -1    0    0  501    0  0.00000000000E+00 -0.00000000000E+00 -0.65779636857E+03  0.65779636857E+03  0.00000000000E+00 0. -1.
          5    1    1    2  502    0  0.24681193357E+02 -0.12199585531E+02 -0.66291430379E+02  0.71902832590E+02  0.41800000000E+01 0. -1.
         -5    1    1    2    0  502  0.54037131175E+02  0.16978615945E+03 -0.13757225861E+03  0.22514650836E+03  0.41800000000E+01 0. -1.
        -11    1    1    2    0    0  0.12159983197E+02 -0.37144769135E+02 -0.13812040075E+03  0.14354387541E+03  0.00000000000E+00 0. -1.
         11    1    1    2    0    0 -0.90878307729E+02 -0.12044180479E+03 -0.24515270980E+03  0.28786272123E+03  0.00000000000E+00 0.  1.
</event>
<event>
 6    1  0.6981059E-006  0.5028814E+02  0.7561462E-02  0.1443794E+00
         -2   -1    0    0    0  501 -0.00000000000E+00  0.00000000000E+00  0.83085318613E+02  0.83085318613E+02  0.00000000000E+00 0.  1.
          2   -1    0    0  501    0  0.00000000000E+00 -0.00000000000E+00 -0.16954254030E+03  0.16954254030E+03  0.00000000000E+00 0. -1.
          5    1    1    2  502    0 -0.21092000772E+01 -0.23091282696E+02  0.49945065333E+02  0.55223527709E+02  0.41800000000E+01 0. -1.
         -5    1    1    2    0  502 -0.29046018030E+02  0.30399981054E+02 -0.61227141952E+02  0.74391298705E+02  0.41800000000E+01 0. -1.
        -11    1    1    2    0    0  0.23778971354E+02  0.81047130238E+00 -0.96307639276E+02  0.99203113486E+02  0.00000000000E+00 0. -1.
         11    1    1    2    0    0  0.73762467529E+01 -0.81191696605E+01  0.21132494206E+02  0.23809919015E+02  0.00000000000E+00 0.  1.
</event>
<event>
 6    1  0.6981059E-006  0.1436610E+03  0.7561462E-02  0.1208486E+00
         -1   -1    0    0    0  501 -0.00000000000E+00  0.00000000000E+00  0.63276285438E+03  0.63276285438E+03  0.00000000000E+00 0.  1.
          1   -1    0    0  501    0  0.00000000000E+00 -0.00000000000E+00 -0.48187609752E+02  0.48187609752E+02  0.00000000000E+00 0. -1.
          5    1    1    2  502    0 -0.28667526549E+02  0.28078728139E+02  0.29338557182E+02  0.49884520544E+02  0.41800000000E+01 0. -1.
         -5    1    1    2    0  502 -0.52827843499E+02 -0.95328158937E+02  0.41939948540E+03  0.43334932755E+03  0.41800000000E+01 0.  1.
        -11    1    1    2    0    0 -0.18513112827E+02  0.20155677719E+02  0.52763373739E+02  0.59438710444E+02  0.00000000000E+00 0.  1.
         11    1    1    2    0    0  0.10000848288E+03  0.47093753079E+02  0.83073828310E+02  0.13827790560E+03  0.00000000000E+00 0. -1.
</event>
<event>
 6    1  0.6981059E-006  0.9160384E+02  0.7561462E-02  0.1299014E+00
         -2   -1    0    0    0  501 -0.00000000000E+00  0.00000000000E+00  0.26782530407E+02  0.26782530407E+02  0.00000000000E+00 0. -1.
          2   -1    0    0  501    0  0.00000000000E+00 -0.00000000000E+00 -0.54363151636E+03  0.54363151636E+03  0.00000000000E+00 0.  1.
          5    1    1    2  502    0 -0.49979782650E+01 -0.19153392491E+02  0.65303179162E+01  0.21259108230E+02  0.41800000000E+01 0.  1.
         -5    1    1    2    0  502 -0.25515302429E+02  0.53871409976E+02 -0.24282539364E+03  0.25006959765E+03  0.41800000000E+01 0.  1.
        -11    1    1    2    0    0 -0.26157291469E+02 -0.38365295580E+02 -0.13969824639E+03  0.14721311031E+03  0.00000000000E+00 0. -1.
         11    1    1    2    0    0  0.56670572162E+02  0.36472780954E+01 -0.14085566384E+03  0.15187223058E+03  0.00000000000E+00 0.  1.
</event>
<event>
 6    1  0.6981059E-006  0.1865327E+03  0.7561462E-02  0.1161626E+00
          1   -1    0    0  501    0  0.00000000000E+00  0.00000000000E+00  0.61789600313E+03  0.61789600313E+03  0.00000000000E+00 0. -1.
         -1   -1    0    0    0  501 -0.00000000000E+00 -0.00000000000E+00 -0.60846225392E+02  0.60846225392E+02  0.00000000000E+00 0.  1.
          5    1    1    2  502    0 -0.57214194611E+02  0.35197973937E+02  0.59320817797E+02  0.89715067065E+02  0.41800000000E+01 0. -1.
         -5    1    1    2    0  502  0.53789079348E+02  0.11778496108E+03  0.14898584750E+03  0.19743560284E+03  0.41800000000E+01 0. -1.
        -11    1    1    2    0    0 -0.35949279627E+02 -0.11861983089E+03  0.21770269396E+03  0.25051442661E+03  0.00000000000E+00 0.  1.
         11    1    1    2    0    0  0.39374394890E+02 -0.34363104126E+02  0.13104041849E+03  0.14107713201E+03  0.00000000000E+00 0. -1.
</event>
<event>
 6    1  0.6981059E-006  0.1053803E+03  0.7561462E-02  0.1269372E+00
          2   -1    0    0  501    0  0.00000000000E+00  0.00000000000E+00  0.62911547913E+03  0.62911547913E+03  0.00000000000E+00 0. -1.
         -2   -1    0    0    0  501 -0.00000000000E+00 -0.00000000000E+00 -0.27267292887E+02  0.27267292887E+02  0.00000000000E+00 0.  1.
          5    1    1    2  502    0  0.13144856348E+02 -0.56727821537E+02  0.10123712544E+03  0.11686428433E+03  0.41800000000E+01 0. -1.
         -5    1    1    2    0  502 -0.17764159988E+02  0.58687589639E+02  0.48321611530E+02  0.78180874250E+02  0.41800000000E+01 0. -1.
        -11    1    1    2    0    0  0.16765545575E+02 -0.44039445531E+02  0.23349775257E+03  0.23820528276E+03  0.00000000000E+00 0.  1.
         11    1    1    2    0    0 -0.12146241935E+02  0.42079677428E+02  0.21879169671E+03  0.22313233068E+03  0.00000000000E+00 0. -1.
</event>
<event>
 6    1  0.6981059E-006  0.1278129E+03  0.7561462E-02  0.1230738E+00
          2   -1    0    0  501    0  0.00000000000E+00  0.00000000000E+00  0.93662194184E+03  0.93662194184E+03  0.00000000000E+00 0. -1.
         -2   -1    0    0    0  501 -0.00000000000E+00 -0.00000000000E+00 -0.22348836329E+02  0.22348836329E+02  0.00000000000E+00 0.  1.
          5    1    1    2  502    0  0.34489685802E+02  0.64533166687E+02  0.10272209897E+03  0.12618783637E+03  0.41800000000E+01 0. -1.
         -5    1    1    2    0  502  0.46075057498E+02 -0.22186487276E+02  0.31719823032E+03  0.32132124247E+03  0.41800000000E+01 0. -1.
        -11    1    1    2    0    0 -0.60440032437E+02  0.21447486074E+02  0.22955602760E+03  0.23834630684E+03  0.00000000000E+00 0. -1.
         11    1    1    2    0    0 -0.20124710863E+02 -0.63794165485E+02  0.26479674862E+03  0.27311539249E+03  0.00000000000E+00 0.  1.
</event>
<event>
 6    1  0.6981059E-006  0.1014426E+03  0.7561462E-02  0.1277291E+00
          4   -1    0    0  501    0  0.00000000000E+00  0.00000000000E+00  0.37554182119E+02  0.37554182119E+02  0.00000000000E+00 0.  1.
         -4   -1    0    0    0  501 -0.00000000000E+00 -0.00000000000E+00 -0.37569274988E+03  0.37569274988E+03  0.00000000000E+00 0. -1.
          5    1    1    2  502    0  0.64856129575E+02 -0.44757765958E+02 -0.16023934159E+03  0.17861605233E+03  0.41800000000E+01 0. -1.
         -5    1    1    2    0  502 -0.50338748537E+02  0.60351379871E+01 -0.68074488314E+02  0.84982473804E+02  0.41800000000E+01 0. -1.
        -11    1    1    2    0    0 -0.37274612292E+02  0.14859328203E+02 -0.10955471828E+03  0.11667233028E+03  0.00000000000E+00 0. -1.
         11    1    1    2    0    0  0.22757231254E+02  0.23863299768E+02 -0.27001957700E+00  0.32976075581E+02  0.00000000000E+00 0.  1.
</event>
<event>
 6    1  0.6981059E-006  0.1259860E+03  0.7561462E-02  0.1233536E+00
          2   -1    0    0  501    0  0.00000000000E+00  0.00000000000E+00  0.10230916823E+04  0.10230916823E+04  0.00000000000E+00 0. -1.
         -2   -1    0    0    0  501 -0.00000000000E+00 -0.00000000000E+00 -0.21552091239E+02  0.21552091239E+02  0.00000000000E+00 0.  1.
          5    1    1    2  502    0  0.49514317297E+02  0.73316802683E+02  0.50939352002E+03  0.51703602565E+03  0.41800000000E+01 0.  1.
         -5    1    1    2    0  502  0.37694801315E+02 -0.21562103689E+02  0.56844486910E+02  0.71656056643E+02  0.41800000000E+01 0.  1.
        -11    1    1    2    0    0 -0.68224720524E+02 -0.39491240865E+01  0.34780890480E+03  0.35445908414E+03  0.00000000000E+00 0. -1.
         11    1    1    2    0    0 -0.18984398087E+02 -0.47805574907E+02  0.87492679369E+02  0.10149260715E+03  0.00000000000E+00 0.  1.
</event>
<event>
 6    1  0.6981059E-006  0.1187276E+03  0.7561462E-02  0.1245211E+00
         -1   -1    0    0    0  501 -0.00000000000E+00  0.00000000000E+00  0.78511802593E+02  0.78511802593E+02  0.00000000000E+00 0.  1.
          1   -1    0    0  501    0  0.00000000000E+00 -0.00000000000E+00 -0.28783337393E+03  0.28783337393E+03  0.00000000000E+00 0. -1.
          5    1    1    2  502    0  0.32376190873E+02  0.16479825393E+02 -0.92365189716E+00  0.36580430742E+02  0.41800000000E+01 0.  1.
         -5    1    1    2    0  502 -0.67819996156E+02  0.72131189627E+02 -0.16206717511E+03  0.18996237007E+03  0.41800000000E+01 0.  1.
        -11    1    1    2    0    0  0.36062357315E+01 -0.56350382730E+02  0.19620797345E+02  0.59777472834E+02  0.00000000000E+00 0.  1.
         11    1    1    2    0    0  0.31837569552E+02 -0.32260632291E+02 -0.65951541669E+02  0.80024902870E+02  0.00000000000E+00 0. -1.
</event>
<event>
 6    1  0.6981059E-006  0.2020299E+03  0.7561462E-02  0.1148038E+00
          2   -1    0    0  501    0  0.00000000000E+00  0.00000000000E+00  0.15931496342E+04  0.15931496342E+04  0.00000000000E+00 0. -1.
         -2   -1    0    0    0  501 -0.00000000000E+00 -0.00000000000E+00 -0.29382304092E+02  0.29382304092E+02  0.00000000000E+00 0.  1.
          5    1    1    2  502    0 -0.11327531455E+02  0.17213324016E+03  0.45370397199E+03  0.48541006575E+03  0.41800000000E+01 0. -1.
         -5    1    1    2    0  502 -0.21093618383E+02  0.11146701247E+02  0.29927087216E+03  0.30024942466E+03  0.41800000000E+01 0. -1.
        -11    1    1    2    0    0 -0.11103577126E+02 -0.15495568728E+03  0.61157042642E+03  0.63099361400E+03  0.00000000000E+00 0.  1.
         11    1    1    2    0    0  0.43524726964E+02 -0.28324254128E+02  0.19922205960E+03  0.20587883393E+03  0.00000000000E+00 0. -1.
</event>
<event>
 6    1  0.6981059E-006  0.1684480E+03  0.7561462E-02  0.1179476E+00
         -1   -1    0    0    0  501 -0.00000000000E+00  0.00000000000E+00  0.32458091007E+02  0.32458091007E+02  0.00000000000E+00 0.  1.
          1   -1    0    0  501    0  0.00000000000E+00 -0.00000000000E+00 -0.12303956129E+04  0.12303956129E+04  0.00000000000E+00 0. -1.
          5    1    1    2  502    0 -0.28194766746E+02 -0.20091618271E+02 -0.26707765044E+03  0.26934468950E+03  0.41800000000E+01 0.  1.
         -5    1    1    2    0  502 -0.62411125438E+02 -0.10539931648E+03 -0.15760489165E+03  0.19965204423E+03  0.41800000000E+01 0.  1.
        -11    1    1    2    0    0  0.23102350553E+02  0.10700672487E+03 -0.45226830921E+03  0.46532868091E+03  0.00000000000E+00 0.  1.
         11    1    1    2    0    0  0.67503541631E+02  0.18484209881E+02 -0.32098667057E+03  0.32852828924E+03  0.00000000000E+00 0. -1.
</event>
<event>
 6    1  0.6981059E-006  0.9622459E+02  0.7561462E-02  0.1288442E+00
          2   -1    0    0  501    0  0.00000000000E+00  0.00000000000E+00  0.51450122652E+02  0.51450122652E+02  0.00000000000E+00 0. -1.
         -2   -1    0    0    0  501 -0.00000000000E+00 -0.00000000000E+00 -0.33836836368E+03  0.33836836368E+03  0.00000000000E+00 0.  1.
          5    1    1    2  502    0  0.17641834831E+02 -0.73110587573E+02 -0.23631854071E+03  0.24803289587E+03  0.41800000000E+01 0. -1.
         -5    1    1    2    0  502 -0.14139115399E+02  0.19635270850E+02  0.13158440833E+00  0.24555002751E+02  0.41800000000E+01 0. -1.
        -11    1    1    2    0    0 -0.38980785499E+02  0.20090195595E+02 -0.52594998963E+02  0.68478839893E+02  0.00000000000E+00 0.  1.
         11    1    1    2    0    0  0.35478066067E+02  0.33385121128E+02  0.18637142349E+01  0.48751747818E+02  0.00000000000E+00 0. -1.
</event>
<event>
 6    1  0.6981059E-006  0.1083729E+03  0.7561462E-02  0.1263613E+00
         -2   -1    0    0    0  501 -0.00000000000E+00  0.00000000000E+00  0.26053611570E+03  0.26053611570E+03  0.00000000000E+00 0.  1.
          2   -1    0    0  501    0  0.00000000000E+00 -0.00000000000E+00 -0.45749476628E+02  0.45749476628E+02  0.00000000000E+00 0. -1.
          5    1    1    2  502    0 -0.60257974241E+02  0.14280987252E+02  0.74975296725E+02  0.97333126814E+02  0.41800000000E+01 0.  1.
         -5    1    1    2    0  502  0.57243355966E+02 -0.26668012331E+02  0.61821247426E+02  0.88472163517E+02  0.41800000000E+01 0.  1.
        -11    1    1    2    0    0 -0.24321468411E+02 -0.31431688761E+02  0.39822058025E+02  0.56260831752E+02  0.00000000000E+00 0.  1.
         11    1    1    2    0    0  0.27336086685E+02  0.43818713840E+02  0.38168036890E+02  0.64219470240E+02  0.00000000000E+00 0. -1.
</event>
<event>
 6    1  0.6981059E-006  0.1348692E+03  0.7561462E-02  0.1220404E+00
         -1   -1    0    0    0  501 -0.00000000000E+00  0.00000000000E+00  0.39815990191E+02  0.39815990191E+02  0.00000000000E+00 0.  1.
          1   -1    0    0  501    0  0.00000000000E+00 -0.00000000000E+00 -0.48921820157E+03  0.48921820157E+03  0.00000000000E+00 0. -1.
          5    1    1    2  502    0  0.13758802135E+02  0.71628035669E+02 -0.13690492354E+03  0.15517831878E+03  0.41800000000E+01 0.  1.
         -5    1    1    2    0  502  0.61515973731E+02 -0.42423198749E+02 -0.10699220412E+03  0.13057085034E+03  0.41800000000E+01 0.  1.
        -11    1    1    2    0    0 -0.30157604558E+02 -0.60041780686E+02 -0.69294510393E+02  0.96520597341E+02  0.00000000000E+00 0.  1.
         11    1    1    2    0    0 -0.45117171308E+02  0.30836943766E+02 -0.13621057332E+03  0.14676442529E+03  0.00000000000E+00 0. -1.
</event>
<event>
 6    1  0.6981059E-006  0.1238359E+03  0.7561462E-02  0.1236900E+00
         -2   -1    0    0    0  501 -0.00000000000E+00  0.00000000000E+00  0.10046403099E+03  0.10046403099E+03  0.00000000000E+00 0. -1.
          2   -1    0    0  501    0  0.00000000000E+00 -0.00000000000E+00 -0.24927833496E+03  0.24927833496E+03  0.00000000000E+00 0.  1.
          5    1    1    2  502    0 -0.53883752762E+02  0.77021851572E+02  0.37284668116E+02  0.10120989728E+03  0.41800000000E+01 0.  1.
         -5    1    1    2    0  502  0.10044505269E+02  0.14611296836E+02 -0.58594500051E+02  0.61360980415E+02  0.41800000000E+01 0.  1.
        -11    1    1    2    0    0  0.50016346019E+02 -0.69989019842E+01 -0.33895333707E+02  0.60823623249E+02  0.00000000000E+00 0. -1.
         11    1    1    2    0    0 -0.61770985251E+01 -0.84634246425E+02 -0.93609138324E+02  0.12634786501E+03  0.00000000000E+00 0.  1.
</event>
<event>
 6    1  0.6981059E-006  0.1710631E+03  0.7561462E-02  0.1176744E+00
          3   -1    0    0  501    0  0.00000000000E+00  0.00000000000E+00  0.26124046956E+03  0.26124046956E+03  0.00000000000E+00 0. -1.
         -3   -1    0    0    0  501 -0.00000000000E+00 -0.00000000000E+00 -0.12967300157E+03  0.12967300157E+03  0.00000000000E+00 0.  1.
          5    1    1    2  502    0 -0.14309502715E+03 -0.26047709082E+02  0.33837302646E+02  0.14938910734E+03  0.41800000000E+01 0.  1.
         -5    1    1    2    0  502 -0.24223456198E+01  0.47180137736E+02  0.15085946325E+02  0.49768376823E+02  0.41800000000E+01 0.  1.
        -11    1    1    2    0    0  0.77231867924E+02 -0.23917700139E+02 -0.45400863394E+01  0.80977961118E+02  0.00000000000E+00 0. -1.
         11    1    1    2    0    0  0.68285504843E+02  0.27852714848E+01  0.87184305359E+02  0.11077802584E+03  0.00000000000E+00 0.  1.
</event>
<event>
 6    1  0.6981059E-006  0.9005245E+02  0.7561462E-02  0.1302725E+00
          2   -1    0    0  501    0  0.00000000000E+00  0.00000000000E+00  0.31996034729E+03  0.31996034729E+03  0.00000000000E+00 0. -1.
         -2   -1    0    0    0  501 -0.00000000000E+00 -0.00000000000E+00 -0.81239463627E+02  0.81239463627E+02  0.00000000000E+00 0.  1.
          5    1    1    2  502    0  0.37889581065E+02  0.31909154945E+02 -0.52576802589E+02  0.72357495071E+02  0.41800000000E+01 0.  1.
         -5    1    1    2    0  502 -0.39980847136E+02  0.14419941870E+02  0.43989086371E+02  0.61309990874E+02  0.41800000000E+01 0.  1.
        -11    1    1    2    0    0 -0.32717456091E+02 -0.41027933372E+02  0.20905747596E+03  0.21554292265E+03  0.00000000000E+00 0. -1.
         11    1    1    2    0    0  0.34808722163E+02 -0.53011634432E+01  0.38251123922E+02  0.51989402322E+02  0.00000000000E+00 0.  1.
</event>
<event>
 6    1  0.6981059E-006  0.7793605E+02  0.7561462E-02  0.1335013E+00
         -2   -1    0    0    0  501 -0.00000000000E+00  0.00000000000E+00  0.22770405007E+03  0.22770405007E+03  0.00000000000E+00 0.  1.
          2   -1    0    0  501    0  0.00000000000E+00 -0.00000000000E+00 -0.10463714328E+03  0.10463714328E+03  0.00000000000E+00 0. -1.
          5    1    1    2  502    0  0.18572098749E+02  0.27640467015E+02 -0.11051976668E+02  0.35334641034E+02  0.41800000000E+01 0. -1.
         -5    1    1    2    0  502  0.33738251149E+02 -0.12365401678E+01  0.17857319517E+03  0.18178464472E+03  0.41800000000E+01 0. -1.
        -11    1    1    2    0    0 -0.91332032525E+01  0.21765155907E+02  0.14498277711E+02  0.27700856844E+02  0.00000000000E+00 0.  1.
         11    1    1    2    0    0 -0.43177146645E+02 -0.48169082755E+02 -0.58952589424E+02  0.87521050757E+02  0.00000000000E+00 0. -1.
</event>
<event>
 6    1  0.8632194E-006  0.1050757E+03  0.7561462E-02  0.1269970E+00
         -1   -1    0    0    0  501 -0.00000000000E+00  0.00000000000E+00  0.33502333889E+02  0.33502333889E+02  0.00000000000E+00 0.  1.
          1   -1    0    0  501    0  0.00000000000E+00 -0.00000000000E+00 -0.45950959284E+03  0.45950959284E+03  0.00000000000E+00 0. -1.
          5    1    1    2  502    0 -0.15563934183E+02 -0.47595411442E+02 -0.15443774404E+03  0.16240704548E+03  0.41800000000E+01 0.  1.
         -5    1    1    2    0  502  0.49427494757E+02  0.18292435911E+02 -0.19234690636E+02  0.56259542953E+02  0.41800000000E+01 0.  1.
        -11    1    1    2    0    0 -0.56568881759E+02 -0.13877625421E+02 -0.15201723964E+03  0.16279394344E+03  0.00000000000E+00 0.  1.
         11    1    1    2    0    0  0.22705321186E+02  0.43180600952E+02 -0.10031758464E+03  0.11155139487E+03  0.00000000000E+00 0. -1.
</event>
<event>
 6    1  0.6981059E-006  0.6441502E+02  0.7561462E-02  0.1380186E+00
         -2   -1    0    0    0  501 -0.00000000000E+00  0.00000000000E+00  0.44462986472E+02  0.44462986472E+02  0.00000000000E+00 0.  1.
          2   -1    0    0  501    0  0.00000000000E+00 -0.00000000000E+00 -0.29737155417E+03  0.29737155417E+03  0.00000000000E+00 0. -1.
          5    1    1    2  502    0 -0.14408477439E+02  0.25837945705E+02 -0.11416912773E+03  0.11801383727E+03  0.41800000000E+01 0.  1.
         -5    1    1    2    0  502 -0.22516185645E+01 -0.39520801515E+02  0.15543406968E+02  0.42732112500E+02  0.41800000000E+01 0.  1.
        -11    1    1    2    0    0  0.28303267776E+02 -0.12158385470E+02 -0.76477655250E+01  0.31739401721E+02  0.00000000000E+00 0.  1.
         11    1    1    2    0    0 -0.11643171773E+02  0.25841241280E+02 -0.14663508141E+03  0.14934918915E+03  0.00000000000E+00 0. -1.
</event>
<event>
 6    1  0.6981059E-006  0.1042515E+03  0.7561462E-02  0.1271601E+00
         -2   -1    0    0    0  501 -0.00000000000E+00  0.00000000000E+00  0.27924533347E+02  0.27924533347E+02  0.00000000000E+00 0.  1.
          2   -1    0    0  501    0  0.00000000000E+00 -0.00000000000E+00 -0.64278243079E+03  0.64278243079E+03  0.00000000000E+00 0. -1.
          5    1    1    2  502    0 -0.19360268780E+02  0.32694931150E+02 -0.15711856489E+03  0.16170186876E+03  0.41800000000E+01 0. -1.
         -5    1    1    2    0  502  0.20097700483E+02 -0.68855964876E+02 -0.45253909636E+02  0.84914369815E+02  0.41800000000E+01 0.  1.
        -11    1    1    2    0    0  0.63752071538E+01 -0.30615223308E+02 -0.14041445174E+03  0.14385462600E+03  0.00000000000E+00 0.  1.
         11    1    1    2    0    0 -0.71126388565E+01  0.66776257034E+02 -0.27207097118E+03  0.28023609956E+03  0.00000000000E+00 0. -1.
</event>
<event>
 6    1  0.6981059E-006  0.1292595E+03  0.7561462E-02  0.1228559E+00
          2   -1    0    0  501    0  0.00000000000E+00  0.00000000000E+00  0.84780172390E+02  0.84780172390E+02  0.00000000000E+00 0. -1.
         -2   -1    0    0    0  501 -0.00000000000E+00 -0.00000000000E+00 -0.20627645245E+03  0.20627645245E+03  0.00000000000E+00 0.  1.
          5    1    1    2  502    0 -0.34278299260E+02 -0.86733464009E+01 -0.13497459968E+02  0.38077323482E+02  0.41800000000E+01 0.  1.
         -5    1    1    2    0  502  0.99497874224E+02  0.41664510074E+02 -0.79797612838E+02  0.13424190772E+03  0.41800000000E+01 0.  1.
        -11    1    1    2    0    0 -0.27556582178E+02  0.30523482245E+02 -0.14704273392E+02  0.43672231975E+02  0.00000000000E+00 0.  1.
         11    1    1    2    0    0 -0.37662992786E+02 -0.63514645918E+02 -0.13496933867E+02  0.75065161663E+02  0.00000000000E+00 0. -1.
</event>
<event>
 6    1  0.6981059E-006  0.1129529E+03  0.7561462E-02  0.1255197E+00
         -1   -1    0    0    0  501 -0.00000000000E+00  0.00000000000E+00  0.18818069116E+03  0.18818069116E+03  0.00000000000E+00 0.  1.
          1   -1    0    0  501    0  0.00000000000E+00 -0.00000000000E+00 -0.17146026202E+03  0.17146026202E+03  0.00000000000E+00 0. -1.
          5    1    1    2  502    0  0.52331216018E+02 -0.55718701547E+02  0.22244586602E+02  0.79720912596E+02  0.41800000000E+01 0. -1.
         -5    1    1    2    0  502 -0.49968153402E+02 -0.32951975267E+02  0.99010702682E+02  0.11577236576E+03  0.41800000000E+01 0. -1.
        -11    1    1    2    0    0  0.38678256196E+01  0.18306370741E+02  0.15880812839E+02  0.24541464935E+02  0.00000000000E+00 0.  1.
         11    1    1    2    0    0 -0.62308882352E+01  0.70364306072E+02 -0.12041567299E+03  0.13960620988E+03  0.00000000000E+00 0. -1.
</event>
<event>
 6    1  0.6981059E-006  0.7171223E+02  0.7561462E-02  0.1354365E+00
          1   -1    0    0  501    0  0.00000000000E+00  0.00000000000E+00  0.52264154393E+03  0.52264154393E+03  0.00000000000E+00 0. -1.
         -1   -1    0    0    0  501 -0.00000000000E+00 -0.00000000000E+00 -0.25311447087E+02  0.25311447087E+02  0.00000000000E+00 0.  1.
          5    1    1    2  502    0 -0.25875204297E+02  0.63487878998E+00 -0.81068222551E+01  0.27443072633E+02  0.41800000000E+01 0.  1.
         -5    1    1    2    0  502  0.38792339496E+02 -0.25521677146E+02  0.18659202505E+03  0.19232851535E+03  0.41800000000E+01 0.  1.
        -11    1    1    2    0    0  0.48455893939E+00  0.45768532230E+02  0.26461932434E+03  0.26854865510E+03  0.00000000000E+00 0.  1.
         11    1    1    2    0    0 -0.13401694139E+02 -0.20881733874E+02  0.54225569714E+02  0.59632747934E+02  0.00000000000E+00 0. -1.
</event>
<event>
 6    1  0.6981059E-006  0.2629739E+03  0.7561462E-02  0.1105370E+00
         -2   -1    0    0    0  501 -0.00000000000E+00  0.00000000000E+00  0.30915300668E+02  0.30915300668E+02  0.00000000000E+00 0.  1.
          2   -1    0    0  501    0  0.00000000000E+00 -0.00000000000E+00 -0.23753989943E+04  0.23753989943E+04  0.00000000000E+00 0. -1.
          5    1    1    2  502    0  0.16203056287E+03  0.13175808276E+03 -0.10388558190E+04  0.10596475739E+04  0.41800000000E+01 0. -1.
         -5    1    1    2    0  502 -0.11452182351E+02  0.58560646561E+02 -0.13371714329E+03  0.14648634277E+03  0.41800000000E+01 0.  1.
        -11    1    1    2    0    0 -0.15099750116E+03 -0.13686566759E+03 -0.86790428696E+03  0.89151012762E+03  0.00000000000E+00 0.  1.
         11    1    1    2    0    0  0.41912064081E+00 -0.53453061733E+02 -0.30400644435E+03  0.30867025072E+03  0.00000000000E+00 0. -1.
</event>
<event>
 6    1  0.6981059E-006  0.1707587E+03  0.7561462E-02  0.1177059E+00
         -2   -1    0    0    0  501 -0.00000000000E+00  0.00000000000E+00  0.77211489054E+02  0.77211489054E+02  0.00000000000E+00 0.  1.
          2   -1    0    0  501    0  0.00000000000E+00 -0.00000000000E+00 -0.42865688687E+03  0.42865688687E+03  0.00000000000E+00 0. -1.
          5    1    1    2  502    0 -0.89800064528E+02  0.30651564556E+02 -0.79043250249E+02  0.12356730073E+03  0.41800000000E+01 0. -1.
         -5    1    1    2    0  502  0.16373290953E+02  0.96271314697E+02 -0.84977004513E+02  0.12951762191E+03  0.41800000000E+01 0. -1.
        -11    1    1    2    0    0  0.43244094908E+01 -0.26764860642E+02 -0.98251484563E+02  0.10192356205E+03  0.00000000000E+00 0. -1.
         11    1    1    2    0    0  0.69102364084E+02 -0.10015801861E+03 -0.89173658492E+02  0.15085989123E+03  0.00000000000E+00 0.  1.
</event>
<event>
 6    1  0.6981059E-006  0.3472964E+03  0.7561462E-02  0.1063730E+00
          2   -1    0    0  501    0  0.00000000000E+00  0.00000000000E+00  0.15207836335E+04  0.15207836335E+04  0.00000000000E+00 0. -1.
         -2   -1    0    0    0  501 -0.00000000000E+00 -0.00000000000E+00 -0.11637641988E+03  0.11637641988E+03  0.00000000000E+00 0.  1.
          5    1    1    2  502    0  0.64934533622E+02  0.97889409970E+02  0.51939537549E+03  0.53252967872E+03  0.41800000000E+01 0. -1.
         -5    1    1    2    0  502  0.14468498027E+03  0.17773756781E+03  0.11695291458E+03  0.25733216502E+03  0.41800000000E+01 0.  1.
        -11    1    1    2    0    0 -0.34834132805E+02 -0.27800453823E+02  0.45558170763E+02  0.63732479666E+02  0.00000000000E+00 0.  1.
         11    1    1    2    0    0 -0.17478538109E+03 -0.24782652396E+03  0.72250075281E+03  0.78356573000E+03  0.00000000000E+00 0. -1.
</event>
<event>
 6    1  0.6981059E-006  0.1238751E+03  0.7561462E-02  0.1236838E+00
         -2   -1    0    0    0  501 -0.00000000000E+00  0.00000000000E+00  0.98011718816E+02  0.98011718816E+02  0.00000000000E+00 0. -1.
          2   -1    0    0  501    0  0.00000000000E+00 -0.00000000000E+00 -0.29482344234E+03  0.29482344234E+03  0.00000000000E+00 0.  1.
          5    1    1    2  502    0  0.21385164326E+02  0.25139478187E+01  0.38806257153E+02  0.44576262530E+02  0.41800000000E+01 0. -1.
         -5    1    1    2    0  502  0.57342621350E+02  0.87315870945E+02 -0.84234016980E+02  0.13425751211E+03  0.41800000000E+01 0. -1.
        -11    1    1    2    0    0 -0.62939893714E+02 -0.82753934828E+02 -0.16287625303E+03  0.19323125459E+03  0.00000000000E+00 0.  1.
         11    1    1    2    0    0 -0.15787891962E+02 -0.70758839359E+01  0.11492289330E+02  0.20770131923E+02  0.00000000000E+00 0. -1.
</event>
<event>
 6    1  0.6981059E-006  0.1342131E+03  0.7561462E-02  0.1221335E+00
         -1   -1    0    0    0  501 -0.00000000000E+00  0.00000000000E+00  0.10465942348E+03  0.10465942348E+03  0.00000000000E+00 0.  1.
          1   -1    0    0  501    0  0.00000000000E+00 -0.00000000000E+00 -0.20148271391E+03  0.20148271391E+03  0.00000000000E+00 0. -1.
          5    1    1    2  502    0  0.89704808738E+02  0.64773762610E+02 -0.88633376496E+02  0.14183067673E+03  0.41800000000E+01 0. -1.
         -5    1    1    2    0  502 -0.29203854575E+02  0.61883995340E+01  0.11449757294E+02  0.32244856224E+02  0.41800000000E+01 0. -1.
        -11    1    1    2    0    0 -0.82690157450E+02 -0.47936272325E+02 -0.21181570685E+01  0.95603529919E+02  0.00000000000E+00 0.  1.
         11    1    1    2    0    0  0.22189203287E+02 -0.23025889819E+02 -0.17521514164E+02  0.36463074515E+02  0.00000000000E+00 0. -1.
</event>
<event>
 6    1  0.6981059E-006  0.1307850E+03  0.7561462E-02  0.1226296E+00
         -2   -1    0    0    0  501 -0.00000000000E+00  0.00000000000E+00  0.53275020525E+02  0.53275020525E+02  0.00000000000E+00 0.  1.
          2   -1    0    0  501    0  0.00000000000E+00 -0.00000000000E+00 -0.51276513261E+03  0.51276513261E+03  0.00000000000E+00 0. -1.
          5    1    1    2  502    0  0.92963717625E+02 -0.74422444937E+02 -0.80641520384E+02  0.14388009006E+03  0.41800000000E+01 0. -1.
         -5    1    1    2    0  502 -0.28831058649E+01 -0.10531705435E+02 -0.13039912852E+03  0.13092224500E+03  0.41800000000E+01 0. -1.
        -11    1    1    2    0    0 -0.18797057984E+02  0.45539283806E+02 -0.17415808190E+03  0.18099224638E+03  0.00000000000E+00 0. -1.
         11    1    1    2    0    0 -0.71283553776E+02  0.39414866565E+02 -0.74291381284E+02  0.11024557170E+03  0.00000000000E+00 0.  1.
</event>
<event>
 6    1  0.6981059E-006  0.9400117E+02  0.7561462E-02  0.1293442E+00
         -2   -1    0    0    0  501 -0.00000000000E+00  0.00000000000E+00  0.82622895767E+02  0.82622895767E+02  0.00000000000E+00 0.  1.
          2   -1    0    0  501    0  0.00000000000E+00 -0.00000000000E+00 -0.17523641021E+03  0.17523641021E+03  0.00000000000E+00 0. -1.
          5    1    1    2  502    0 -0.40763353672E+02  0.57779468229E+02  0.11574017499E+02  0.71774286708E+02  0.41800000000E+01 0.  1.
         -5    1    1    2    0  502 -0.88158102958E+01 -0.43292198838E+02 -0.54347461865E+02  0.70164463958E+02  0.41800000000E+01 0.  1.
        -11    1    1    2    0    0  0.18676069598E+02 -0.32160245999E+02 -0.66825087313E+02  0.76476593104E+02  0.00000000000E+00 0. -1.
         11    1    1    2    0    0  0.30903094369E+02  0.17672976608E+02  0.16985017238E+02  0.39443962204E+02  0.00000000000E+00 0.  1.
</event>
<event>
 6    1  0.6981059E-006  0.8809898E+02  0.7561462E-02  0.1307522E+00
         -2   -1    0    0    0  501 -0.00000000000E+00  0.00000000000E+00  0.16246218373E+03  0.16246218373E+03  0.00000000000E+00 0. -1.
          2   -1    0    0  501    0  0.00000000000E+00 -0.00000000000E+00 -0.74342194637E+02  0.74342194637E+02  0.00000000000E+00 0.  1.
          5    1    1    2  502    0  0.41705059630E+02 -0.16358566058E+02  0.57792399761E+02  0.73241713199E+02  0.41800000000E+01 0. -1.
         -5    1    1    2    0  502 -0.57954611369E+02  0.20563433819E+02 -0.85670529067E+01  0.62229081505E+02  0.41800000000E+01 0. -1.
        -11    1    1    2    0    0  0.18781479194E+02  0.29932585974E+02  0.53500023332E+02  0.64116738534E+02  0.00000000000E+00 0. -1.
         11    1    1    2    0    0 -0.25319274541E+01 -0.34137453735E+02 -0.14605381097E+02  0.37216845126E+02  0.00000000000E+00 0.  1.
</event>
<event>
 6    1  0.6981059E-006  0.1100659E+03  0.7561462E-02  0.1260448E+00
         -2   -1    0    0    0  501 -0.00000000000E+00  0.00000000000E+00  0.54095618230E+02  0.54095618230E+02  0.00000000000E+00 0.  1.
          2   -1    0    0  501    0  0.00000000000E+00 -0.00000000000E+00 -0.45524565767E+03  0.45524565767E+03  0.00000000000E+00 0. -1.
          5    1    1    2  502    0  0.29369762167E+02 -0.13808103867E+02 -0.12215283343E+03  0.12645961323E+03  0.41800000000E+01 0.  1.
         -5    1    1    2    0  502  0.79638096510E+01 -0.82207538576E+02 -0.11291334237E+02  0.83465371812E+02  0.41800000000E+01 0.  1.
        -11    1    1    2    0    0  0.17018821798E+01  0.11399194701E+02  0.39801086713E+01  0.12193412477E+02  0.00000000000E+00 0.  1.
         11    1    1    2    0    0 -0.39035453998E+02  0.84616447742E+02 -0.27168598044E+03  0.28722287838E+03  0.00000000000E+00 0. -1.
</event>
<event>
 6    1  0.6981059E-006  0.1046126E+03  0.7561462E-02  0.1270885E+00
         -1   -1    0    0    0  501 -0.00000000000E+00  0.00000000000E+00  0.76581161165E+03  0.76581161165E+03  0.00000000000E+00 0.  1.
          1   -1    0    0  501    0  0.00000000000E+00 -0.00000000000E+00 -0.16623447047E+02  0.16623447047E+02  0.00000000000E+00 0. -1.
          5    1    1    2  502    0 -0.45531712217E+02  0.54337723825E+02  0.38852020488E+03  0.39495714583E+03  0.41800000000E+01 0. -1.
         -5    1    1    2    0  502  0.32870287856E+02 -0.36073549521E+02  0.13058539827E+03  0.13946962192E+03  0.41800000000E+01 0. -1.
        -11    1    1    2    0    0 -0.38203385188E+01 -0.51757748782E+02  0.16512350694E+03  0.17308735392E+03  0.00000000000E+00 0.  1.
         11    1    1    2    0    0  0.16481762880E+02  0.33493574477E+02  0.64959054526E+02  0.74920937019E+02  0.00000000000E+00 0. -1.
</event>
<event>
 6    1  0.6981059E-006  0.1482343E+03  0.7561462E-02  0.1202660E+00
         -2   -1    0    0    0  501 -0.00000000000E+00  0.00000000000E+00  0.17634986892E+03  0.17634986892E+03  0.00000000000E+00 0.  1.
          2   -1    0    0  501    0  0.00000000000E+00 -0.00000000000E+00 -0.18767061973E+03  0.18767061973E+03  0.00000000000E+00 0. -1.
          5    1    1    2  502    0 -0.31698370180E+01 -0.83100191372E+02  0.26148262254E+02  0.87274817053E+02  0.41800000000E+01 0.  1.
         -5    1    1    2    0  502  0.32236467906E+02 -0.47657494124E+02 -0.89813298423E+02  0.10674421569E+03  0.41800000000E+01 0.  1.
        -11    1    1    2    0    0 -0.36579752071E+02  0.15035512441E+02 -0.63044515724E+01  0.40048608035E+02  0.00000000000E+00 0. -1.
         11    1    1    2    0    0  0.75131211824E+01  0.11572217305E+03  0.58648736939E+02  0.12995284788E+03  0.00000000000E+00 0.  1.
</event>
<event>
 6    1  0.6981059E-006  0.1131496E+03  0.7561462E-02  0.1254846E+00
          2   -1    0    0  501    0  0.00000000000E+00  0.00000000000E+00  0.13052783296E+03  0.13052783296E+03  0.00000000000E+00 0. -1.
         -2   -1    0    0    0  501 -0.00000000000E+00 -0.00000000000E+00 -0.41441473928E+03  0.41441473928E+03  0.00000000000E+00 0.  1.
          5    1    1    2  502    0  0.53356395955E+02 -0.14142006226E+02 -0.10283814370E+02  0.56303912541E+02  0.41800000000E+01 0. -1.
         -5    1    1    2    0  502 -0.94866241103E+02 -0.13132818601E+02 -0.34824762033E+03  0.36120070888E+03  0.41800000000E+01 0.  1.
        -11    1    1    2    0    0  0.39225457891E+02 -0.77476699963E+01  0.82315670907E+02  0.91512472450E+02  0.00000000000E+00 0.  1.
         11    1    1    2    0    0  0.22843872570E+01  0.35022494823E+02 -0.76711425228E+01  0.35925478373E+02  0.00000000000E+00 0. -1.
</event>
<event>
 6    1  0.6981059E-006  0.1168396E+03  0.7561462E-02  0.1248404E+00
         -1   -1    0    0    0  501 -0.00000000000E+00  0.00000000000E+00  0.20986528415E+03  0.20986528415E+03  0.00000000000E+00 0.  1.
          1   -1    0    0  501    0  0.00000000000E+00 -0.00000000000E+00 -0.12352126567E+03  0.12352126567E+03  0.00000000000E+00 0. -1.
          5    1    1    2  502    0  0.45713296996E+02  0.19379515499E+02 -0.20291349733E+02  0.53800394210E+02  0.41800000000E+01 0. -1.
         -5    1    1    2    0  502  0.42684096991E+02  0.26309608496E+02  0.13184084300E+03  0.14111558354E+03  0.41800000000E+01 0. -1.
        -11    1    1    2    0    0  0.98819988767E+01  0.15049200948E+02 -0.13181039098E+02  0.22313048709E+02  0.00000000000E+00 0. -1.
         11    1    1    2    0    0 -0.98279392864E+02 -0.60738324943E+02 -0.12024435688E+02  0.11615752336E+03  0.00000000000E+00 0.  1.
</event>
<event>
 6    1  0.6981059E-006  0.1185913E+03  0.7561462E-02  0.1245439E+00
         -2   -1    0    0    0  501 -0.00000000000E+00  0.00000000000E+00  0.66450759768E+02  0.66450759768E+02  0.00000000000E+00 0.  1.
          2   -1    0    0  501    0  0.00000000000E+00 -0.00000000000E+00 -0.23318140490E+03  0.23318140490E+03  0.00000000000E+00 0. -1.
          5    1    1    2  502    0 -0.77243990218E+02 -0.38826222549E+01 -0.36261817060E+02  0.85522514912E+02  0.41800000000E+01 0. -1.
         -5    1    1    2    0  502  0.40997741609E+02 -0.44556079998E+02 -0.43774898019E+02  0.74831632204E+02  0.41800000000E+01 0. -1.
        -11    1    1    2    0    0  0.58253200904E+02  0.17041988071E+02 -0.79900941034E+02  0.10033954929E+03  0.00000000000E+00 0. -1.
         11    1    1    2    0    0 -0.22006952295E+02  0.31396714182E+02 -0.67929890153E+01  0.38938468261E+02  0.00000000000E+00 0.  1.
</event>
<event>
 6    1  0.6981059E-006  0.1780426E+03  0.7561462E-02  0.1169711E+00
          3   -1    0    0  501    0  0.00000000000E+00  0.00000000000E+00  0.21111381195E+03  0.21111381195E+03  0.00000000000E+00 0. -1.
         -3   -1    0    0    0  501 -0.00000000000E+00 -0.00000000000E+00 -0.16582176919E+03  0.16582176919E+03  0.00000000000E+00 0.  1.
          5    1    1    2  502    0  0.11473220988E+03 -0.41051859440E+02 -0.11990200576E+02  0.12251519276E+03  0.41800000000E+01 0. -1.
         -5    1    1    2    0  502  0.66066470420E+01  0.78266516600E+02  0.34415663642E+02  0.85855726133E+02  0.41800000000E+01 0.  1.
        -11    1    1    2    0    0 -0.10378816052E+03 -0.65127715534E+02 -0.88042145839E+01  0.12284590262E+03  0.00000000000E+00 0.  1.
         11    1    1    2    0    0 -0.17550696396E+02  0.27913058374E+02  0.31670794277E+02  0.45718759628E+02  0.00000000000E+00 0. -1.
</event>
<event>
 6    1  0.6981059E-006  0.4504693E+03  0.7561462E-02  0.1027582E+00
         -1   -1    0    0    0  501 -0.00000000000E+00  0.00000000000E+00  0.95136816336E+02  0.95136816336E+02  0.00000000000E+00 0.  1.
          1   -1    0    0  501    0  0.00000000000E+00 -0.00000000000E+00 -0.23980475863E+04  0.23980475863E+04  0.00000000000E+00 0. -1.
          5    1    1    2  502    0  0.43976251573E+03 -0.61799151226E+02 -0.74914959018E+03  0.87089194864E+03  0.41800000000E+01 0.  1.
         -5    1    1    2    0  502 -0.47105820608E+01  0.82077697611E+01 -0.88424331671E+01  0.13609485373E+02  0.41800000000E+01 0.  1.
        -11    1    1    2    0    0 -0.29796966496E+03  0.76192680896E+02 -0.99247031702E+03  0.10390325192E+04  0.00000000000E+00 0.  1.
         11    1    1    2    0    0 -0.13708226871E+03 -0.22601299431E+02 -0.55244842965E+03  0.56965044944E+03  0.00000000000E+00 0. -1.
</event>
<event>
 6    1  0.6981059E-006  0.1717577E+03  0.7561462E-02  0.1176027E+00
          1   -1    0    0  501    0  0.00000000000E+00  0.00000000000E+00  0.69902582488E+03  0.69902582488E+03  0.00000000000E+00 0. -1.
         -1   -1    0    0    0  501 -0.00000000000E+00 -0.00000000000E+00 -0.61056894134E+02  0.61056894134E+02  0.00000000000E+00 0.  1.
          5    1    1    2  502    0  0.12052262234E+02 -0.13458595743E+02  0.54927629002E+02  0.57973335700E+02  0.41800000000E+01 0.  1.
         -5    1    1    2    0  502 -0.16296327369E+03  0.35857125242E+02  0.11834332084E+03  0.20461030275E+03  0.41800000000E+01 0.  1.
        -11    1    1    2    0    0  0.71301867098E+02 -0.31461837059E+02  0.11624194150E+03  0.13994996394E+03  0.00000000000E+00 0.  1.
         11    1    1    2    0    0  0.79609144356E+02  0.90633075600E+01  0.34845603940E+03  0.35754911663E+03  0.00000000000E+00 0. -1.
</event>
<event>
 6    1  0.6981059E-006  0.1444821E+03  0.7561462E-02  0.1207422E+00
         -2   -1    0    0    0  501 -0.00000000000E+00  0.00000000000E+00  0.19003051820E+03  0.19003051820E+03  0.00000000000E+00 0.  1.
          2   -1    0    0  501    0  0.00000000000E+00 -0.00000000000E+00 -0.13114147228E+03  0.13114147228E+03  0.00000000000E+00 0. -1.
          5    1    1    2  502    0 -0.67089886611E+02 -0.18000122258E+02  0.43047688123E+02  0.81826848525E+02  0.41800000000E+01 0.  1.
         -5    1    1    2    0  502 -0.25186991801E+02  0.81732641657E+02 -0.19488341234E+02  0.87817293925E+02  0.41800000000E+01 0.  1.
        -11    1    1    2    0    0  0.92589702292E+02 -0.77032694820E+02  0.51151332129E+02  0.13085621048E+03  0.00000000000E+00 0.  1.
         11    1    1    2    0    0 -0.31282387999E+00  0.13300175420E+02 -0.15821633104E+02  0.20671637552E+02  0.00000000000E+00 0. -1.
</event>
<event>
 6    1  0.6981059E-006  0.1167762E+03  0.7561462E-02  0.1248512E+00
         -2   -1    0    0    0  501 -0.00000000000E+00  0.00000000000E+00  0.72598518407E+02  0.72598518407E+02  0.00000000000E+00 0.  1.
          2   -1    0    0  501    0  0.00000000000E+00 -0.00000000000E+00 -0.39696403589E+03  0.39696403589E+03  0.00000000000E+00 0. -1.
          5    1    1    2  502    0  0.90176670870E+01  0.11297622012E+02 -0.59197327988E+02  0.61079870856E+02  0.41800000000E+01 0. -1.
         -5    1    1    2    0  502 -0.97480462545E+02  0.77339148669E+01  0.16144809215E+02  0.99198695968E+02  0.41800000000E+01 0. -1.
        -11    1    1    2    0    0 -0.95705598963E+01 -0.20457037941E+02 -0.19941874680E+02  0.30129128494E+02  0.00000000000E+00 0. -1.
         11    1    1    2    0    0  0.98033355354E+02  0.14255010614E+01 -0.26137112403E+03  0.27915485898E+03  0.00000000000E+00 0.  1.
</event>
<event>
 6    1  0.6981059E-006  0.1130281E+03  0.7561462E-02  0.1255063E+00
         -1   -1    0    0    0  501 -0.00000000000E+00  0.00000000000E+00  0.74436420360E+02  0.74436420360E+02  0.00000000000E+00 0.  1.
          1   -1    0    0  501    0  0.00000000000E+00 -0.00000000000E+00 -0.31279719200E+03  0.31279719200E+03  0.00000000000E+00 0. -1.
          5    1    1    2  502    0  0.15751134415E+02 -0.41401145353E+01 -0.61105667117E+02  0.63376760232E+02  0.41800000000E+01 0. -1.
         -5    1    1    2    0  502 -0.45494469115E+02  0.91578127069E+02  0.36064535665E+01  0.10240497539E+03  0.41800000000E+01 0. -1.
        -11    1    1    2    0    0 -0.15859448489E+02 -0.20933459224E+02 -0.11314282874E+03  0.11615089977E+03  0.00000000000E+00 0. -1.
         11    1    1    2    0    0  0.45602783190E+02 -0.66504553310E+02 -0.67718729346E+02  0.10530097696E+03  0.00000000000E+00 0.  1.
</event>
<event>
 6    1  0.6981059E-006  0.1317057E+03  0.7561462E-02  0.1224946E+00
         -2   -1    0    0    0  501 -0.00000000000E+00  0.00000000000E+00  0.88557972702E+02  0.88557972702E+02  0.00000000000E+00 0.  1.
          2   -1    0    0  501    0  0.00000000000E+00 -0.00000000000E+00 -0.28385163257E+03  0.28385163257E+03  0.00000000000E+00 0. -1.
          5    1    1    2  502    0 -0.72034853893E+02  0.28594220655E+02  0.96372984750E+00  0.77621200747E+02  0.41800000000E+01 0.  1.
         -5    1    1    2    0  502  0.77454139575E+01 -0.67752744906E+02 -0.29049164579E+01  0.68383746748E+02  0.41800000000E+01 0.  1.
        -11    1    1    2    0    0  0.87516901385E+02  0.31624061861E+02 -0.15956613155E+03  0.18471772967E+03  0.00000000000E+00 0.  1.
         11    1    1    2    0    0 -0.23227461450E+02  0.75344623902E+01 -0.33786341700E+02  0.41686928100E+02  0.00000000000E+00 0. -1.
</event>
<event>
 6    1  0.6981059E-006  0.1197851E+03  0.7561462E-02  0.1243452E+00
          1   -1    0    0  501    0  0.00000000000E+00  0.00000000000E+00  0.19586713686E+03  0.19586713686E+03  0.00000000000E+00 0. -1.
         -1   -1    0    0    0  501 -0.00000000000E+00 -0.00000000000E+00 -0.82936448986E+02  0.82936448986E+02  0.00000000000E+00 0.  1.
          5    1    1    2  502    0  0.21743550984E+02 -0.56138607459E+02  0.12901202891E+02  0.61710928472E+02  0.41800000000E+01 0.  1.
         -5    1    1    2    0  502 -0.74535789365E+02  0.25263610929E+02  0.22499129250E+02  0.81960460897E+02  0.41800000000E+01 0.  1.
        -11    1    1    2    0    0  0.15919960531E+02  0.54394499121E+02  0.14651972589E+02  0.58539618880E+02  0.00000000000E+00 0.  1.
         11    1    1    2    0    0  0.36872277850E+02 -0.23519502591E+02  0.62878383145E+02  0.76592577596E+02  0.00000000000E+00 0. -1.
</event>
<event>
 6    1  0.6981059E-006  0.9945990E+02  0.7561462E-02  0.1281436E+00
          1   -1    0    0  501    0  0.00000000000E+00  0.00000000000E+00  0.78922756783E+02  0.78922756783E+02  0.00000000000E+00 0. -1.
         -1   -1    0    0    0  501 -0.00000000000E+00 -0.00000000000E+00 -0.23223883377E+03  0.23223883377E+03  0.00000000000E+00 0.  1.
          5    1    1    2  502    0  0.25122932640E+02  0.22785505045E+02 -0.12408235997E+03  0.12870215787E+03  0.41800000000E+01 0.  1.
         -5    1    1    2    0  502  0.33748798213E+02 -0.54929769478E+02 -0.78499509134E+01  0.65079605754E+02  0.41800000000E+01 0.  1.
        -11    1    1    2    0    0  0.17039738418E+02  0.14096242056E+02  0.19327520108E+02  0.29370218912E+02  0.00000000000E+00 0. -1.
         11    1    1    2    0    0 -0.75911469270E+02  0.18048022377E+02 -0.40711286212E+02  0.88009608018E+02  0.00000000000E+00 0.  1.
</event>
<event>
 6    1  0.6981059E-006  0.1307157E+03  0.7561462E-02  0.1226398E+00
          3   -1    0    0  501    0  0.00000000000E+00  0.00000000000E+00  0.23175225680E+03  0.23175225680E+03  0.00000000000E+00 0. -1.
         -3   -1    0    0    0  501 -0.00000000000E+00 -0.00000000000E+00 -0.81169652596E+02  0.81169652596E+02  0.00000000000E+00 0.  1.
          5    1    1    2  502    0 -0.37319683214E+02 -0.49091023942E+02  0.32658186828E+02  0.69905056711E+02  0.41800000000E+01 0.  1.
         -5    1    1    2    0  502 -0.43030558691E+02  0.78162653533E+02  0.61857441368E+02  0.10865010281E+03  0.41800000000E+01 0.  1.
        -11    1    1    2    0    0  0.81872256458E+02 -0.45592273328E+02  0.66373545935E+02  0.11483540118E+03  0.00000000000E+00 0. -1.
         11    1    1    2    0    0 -0.15220145528E+01  0.16520643737E+02 -0.10306569931E+02  0.19531348687E+02  0.00000000000E+00 0.  1.
</event>
<event>
 6    1  0.6981059E-006  0.1175644E+03  0.7561462E-02  0.1247170E+00
          1   -1    0    0  501    0  0.00000000000E+00  0.00000000000E+00  0.28493666569E+03  0.28493666569E+03  0.00000000000E+00 0. -1.
         -1   -1    0    0    0  501 -0.00000000000E+00 -0.00000000000E+00 -0.60699609418E+02  0.60699609418E+02  0.00000000000E+00 0.  1.
          5    1    1    2  502    0 -0.34069460334E+02 -0.25836230861E+02  0.11231162221E+02  0.44405521699E+02  0.41800000000E+01 0.  1.
         -5    1    1    2    0  502  0.71177224929E+02  0.55813190732E+02  0.38880939766E+02  0.98541917403E+02  0.41800000000E+01 0.  1.
        -11    1    1    2    0    0  0.93487447995E+01  0.26727288589E+02  0.68475334037E+02  0.74098706845E+02  0.00000000000E+00 0.  1.
         11    1    1    2    0    0 -0.46456509395E+02 -0.56704248461E+02  0.10564962024E+03  0.12859012916E+03  0.00000000000E+00 0. -1.
</event>
<event>
 6    1  0.6981059E-006  0.1190439E+03  0.7561462E-02  0.1244683E+00
          1   -1    0    0  501    0  0.00000000000E+00  0.00000000000E+00  0.14582056816E+03  0.14582056816E+03  0.00000000000E+00 0. -1.
         -1   -1    0    0    0  501 -0.00000000000E+00 -0.00000000000E+00 -0.34157928568E+03  0.34157928568E+03  0.00000000000E+00 0.  1.
          5    1    1    2  502    0  0.23567054273E+02  0.53294704123E+02 -0.13447390242E+03  0.14661662377E+03  0.41800000000E+01 0.  1.
         -5    1    1    2    0  502 -0.65538923019E+01 -0.68262683365E+02 -0.15932017259E+03  0.17350255686E+03  0.41800000000E+01 0.  1.
        -11    1    1    2    0    0 -0.20055184938E+02 -0.45862002596E+02  0.93685989297E+02  0.10621957595E+03  0.00000000000E+00 0. -1.
         11    1    1    2    0    0  0.30420229668E+01  0.60829981837E+02  0.43493681919E+01  0.61061097253E+02  0.00000000000E+00 0.  1.
</event>
<event>
 6    1  0.6981059E-006  0.1699082E+03  0.7561462E-02  0.1177944E+00
          2   -1    0    0  501    0  0.00000000000E+00  0.00000000000E+00  0.48074971454E+03  0.48074971454E+03  0.00000000000E+00 0. -1.
         -2   -1    0    0    0  501 -0.00000000000E+00 -0.00000000000E+00 -0.83448982337E+02  0.83448982337E+02  0.00000000000E+00 0.  1.
          5    1    1    2  502    0 -0.10239756904E+03  0.50631151068E+01  0.16018891700E+03  0.19023369525E+03  0.41800000000E+01 0. -1.
         -5    1    1    2    0  502 -0.55234558566E+02 -0.14003706076E+02 -0.17592215353E+02  0.59782260620E+02  0.41800000000E+01 0.  1.
        -11    1    1    2    0    0  0.93269601713E+02  0.47887106773E+02  0.11577211256E+03  0.15619083087E+03  0.00000000000E+00 0.  1.
         11    1    1    2    0    0  0.64362525892E+02 -0.38946515804E+02  0.13893191799E+03  0.15799191014E+03  0.00000000000E+00 0. -1.
</event>
<event>
 6    1  0.6981059E-006  0.9717139E+02  0.7561462E-02  0.1286359E+00
          1   -1    0    0  501    0  0.00000000000E+00  0.00000000000E+00  0.15896566824E+03  0.15896566824E+03  0.00000000000E+00 0. -1.
         -1   -1    0    0    0  501 -0.00000000000E+00 -0.00000000000E+00 -0.82727963686E+02  0.82727963686E+02  0.00000000000E+00 0.  1.
          5    1    1    2  502    0 -0.37357015083E+02  0.52631111912E+01  0.47445317361E+02  0.60759998805E+02  0.41800000000E+01 0. -1.
         -5    1    1    2    0  502  0.61454121187E+02 -0.27944635907E+02 -0.21969744291E+02  0.71117183233E+02  0.41800000000E+01 0. -1.
        -11    1    1    2    0    0 -0.33610353992E-01  0.51332036791E+02  0.63168914594E+01  0.51719263804E+02  0.00000000000E+00 0.  1.
         11    1    1    2    0    0 -0.24063495750E+02 -0.28650512075E+02  0.44445240020E+02  0.58097186079E+02  0.00000000000E+00 0. -1.
</event>
<event>
 6    1  0.6981059E-006  0.2805019E+03  0.7561462E-02  0.1095415E+00
          2   -1    0    0  501    0  0.00000000000E+00  0.00000000000E+00  0.14712993412E+04  0.14712993412E+04  0.00000000000E+00 0. -1.
         -2   -1    0    0    0  501 -0.00000000000E+00 -0.00000000000E+00 -0.62710641395E+02  0.62710641395E+02  0.00000000000E+00 0.  1.
          5    1    1    2  502    0 -0.40903747879E+02 -0.25676311403E+03  0.41229543772E+03  0.48744785740E+03  0.41800000000E+01 0.  1.
         -5    1    1    2    0  502 -0.24015247057E+02  0.55825798797E+01  0.20071262068E+02  0.32065951574E+02  0.41800000000E+01 0.  1.
        -11    1    1    2    0    0 -0.21933026476E+02  0.92530012156E+02  0.34724678328E+03  0.36003220592E+03  0.00000000000E+00 0.  1.
         11    1    1    2    0    0  0.86852021412E+02  0.15865052200E+03  0.62897521675E+03  0.65446396772E+03  0.00000000000E+00 0. -1.
</event>
<event>
 6    1  0.6981059E-006  0.1208374E+03  0.7561462E-02  0.1241722E+00
          3   -1    0    0  501    0  0.00000000000E+00  0.00000000000E+00  0.13479744894E+03  0.13479744894E+03  0.00000000000E+00 0. -1.
         -3   -1    0    0    0  501 -0.00000000000E+00 -0.00000000000E+00 -0.16482708522E+03  0.16482708522E+03  0.00000000000E+00 0.  1.
          5    1    1    2  502    0  0.42405981318E+02  0.74956301988E+01 -0.40448730272E+02  0.59228573376E+02  0.41800000000E+01 0.  1.
         -5    1    1    2    0  502 -0.75139805023E+02  0.73985890202E+02 -0.34474121866E+02  0.11102179843E+03  0.41800000000E+01 0.  1.
        -11    1    1    2    0    0 -0.46223755784E+01 -0.23152714082E+02  0.54548606961E+02  0.59438750380E+02  0.00000000000E+00 0. -1.
         11    1    1    2    0    0  0.37356199284E+02 -0.58328806320E+02 -0.96553911012E+01  0.69935411981E+02  0.00000000000E+00 0.  1.
</event>
<event>
 6    1  0.6981059E-006  0.9901108E+02  0.7561462E-02  0.1282389E+00
         -1   -1    0    0    0  501 -0.00000000000E+00  0.00000000000E+00  0.51495322099E+02  0.51495322099E+02  0.00000000000E+00 0. -1.
          1   -1    0    0  501    0  0.00000000000E+00 -0.00000000000E+00 -0.30739541894E+03  0.30739541894E+03  0.00000000000E+00 0.  1.
          5    1    1    2  502    0 -0.39168461131E+02  0.40967226741E+02  0.52770257398E+01  0.57077153178E+02  0.41800000000E+01 0.  1.
         -5    1    1    2    0  502  0.27462662975E+02  0.18462810406E+02 -0.11575932404E+03  0.12046894508E+03  0.41800000000E+01 0.  1.
        -11    1    1    2    0    0 -0.95150626114E-01 -0.82193782730E+02 -0.11800766463E+03  0.14381111183E+03  0.00000000000E+00 0.  1.
         11    1    1    2    0    0  0.11800948782E+02  0.22763745583E+02 -0.27410133905E+02  0.37533530954E+02  0.00000000000E+00 0. -1.
</event>
<event>
 6    1  0.6981059E-006  0.1476752E+03  0.7561462E-02  0.1203359E+00
         -1   -1    0    0    0  501 -0.00000000000E+00  0.00000000000E+00  0.45864889084E+02  0.45864889084E+02  0.00000000000E+00 0.  1.
          1   -1    0    0  501    0  0.00000000000E+00 -0.00000000000E+00 -0.56609142489E+03  0.56609142489E+03  0.00000000000E+00 0. -1.
          5    1    1    2  502    0  0.50772537043E+02  0.31709333942E+02 -0.74094895871E+02  0.95345992946E+02  0.41800000000E+01 0. -1.
         -5    1    1    2    0  502 -0.12596468844E+03 -0.54568732380E+02 -0.28070014818E+03  0.31249783179E+03  0.41800000000E+01 0.  1.
        -11    1    1    2    0    0  0.25693793985E+02  0.38328928899E+02 -0.21085554988E+02  0.50733405849E+02  0.00000000000E+00 0.  1.
         11    1    1    2    0    0  0.49498357411E+02 -0.15469530461E+02 -0.14434593677E+03  0.15337908339E+03  0.00000000000E+00 0. -1.
</event>
<event>
 6    1  0.6981059E-006  0.4334331E+03  0.7561462E-02  0.1032781E+00
          2   -1    0    0  501    0  0.00000000000E+00  0.00000000000E+00  0.16724478908E+04  0.16724478908E+04  0.00000000000E+00 0. -1.
         -2   -1    0    0    0  501 -0.00000000000E+00 -0.00000000000E+00 -0.11947817986E+03  0.11947817986E+03  0.00000000000E+00 0.  1.
          5    1    1    2  502    0 -0.10863103742E+03 -0.63413487241E+02  0.33097664667E+03  0.35409742402E+03  0.41800000000E+01 0.  1.
         -5    1    1    2    0  502 -0.28411840322E+03 -0.11859905485E+03  0.40320818076E+03  0.50732958942E+03  0.41800000000E+01 0.  1.
        -11    1    1    2    0    0  0.76457963624E+02  0.41664081217E+02  0.98906895939E+02  0.13177363139E+03  0.00000000000E+00 0.  1.
         11    1    1    2    0    0  0.31629147701E+03  0.14034846088E+03  0.71987798755E+03  0.79872542583E+03  0.00000000000E+00 0. -1.
</event>
<event>
 6    1  0.6981059E-006  0.1035317E+03  0.7561462E-02  0.1273040E+00
          2   -1    0    0  501    0  0.00000000000E+00  0.00000000000E+00  0.31245084078E+03  0.31245084078E+03  0.00000000000E+00 0. -1.
         -2   -1    0    0    0  501 -0.00000000000E+00 -0.00000000000E+00 -0.48813431221E+02  0.48813431221E+02  0.00000000000E+00 0.  1.
          5    1    1    2  502    0  0.52250820525E+02 -0.16567722392E+02  0.14877603692E+02  0.56951322745E+02  0.41800000000E+01 0.  1.
         -5    1    1    2    0  502 -0.27432897486E+02  0.64435614407E+02  0.94785146129E+02  0.11792458859E+03  0.41800000000E+01 0.  1.
        -11    1    1    2    0    0  0.14485379031E+02 -0.39053254388E+02  0.13608094268E+03  0.14231305578E+03  0.00000000000E+00 0. -1.
         11    1    1    2    0    0 -0.39303302070E+02 -0.88146376265E+01  0.17893717050E+02  0.44075304876E+02  0.00000000000E+00 0.  1.
</event>
<event>
 6    1  0.6981059E-006  0.1469940E+03  0.7561462E-02  0.1204216E+00
          2   -1    0    0  501    0  0.00000000000E+00  0.00000000000E+00  0.21999598374E+03  0.21999598374E+03  0.00000000000E+00 0. -1.
         -2   -1    0    0    0  501 -0.00000000000E+00 -0.00000000000E+00 -0.12165171453E+03  0.12165171453E+03  0.00000000000E+00 0.  1.
          5    1    1    2  502    0 -0.11737701897E+03 -0.56127856499E+02 -0.16560151614E+02  0.13122275671E+03  0.41800000000E+01 0. -1.
         -5    1    1    2    0  502  0.19699772221E+02 -0.94538514424E+01  0.35013280295E+02  0.41483231910E+02  0.41800000000E+01 0. -1.
        -11    1    1    2    0    0  0.97959883452E+02  0.80410498148E+02  0.85723227553E+02  0.15300476699E+03  0.00000000000E+00 0. -1.
         11    1    1    2    0    0 -0.28263670395E+00 -0.14828790206E+02 -0.58320870267E+01  0.15936942667E+02  0.00000000000E+00 0.  1.
</event>
<event>
 6    1  0.6981059E-006  0.8982890E+02  0.7561462E-02  0.1303267E+00
         -1   -1    0    0    0  501 -0.00000000000E+00  0.00000000000E+00  0.51201159999E+02  0.51201159999E+02  0.00000000000E+00 0.  1.
          1   -1    0    0  501    0  0.00000000000E+00 -0.00000000000E+00 -0.42235057569E+03  0.42235057569E+03  0.00000000000E+00 0. -1.
          5    1    1    2  502    0  0.51224766249E+02  0.48499029148E+02  0.80575737888E+01  0.71123339355E+02  0.41800000000E+01 0. -1.
         -5    1    1    2    0  502  0.60733661539E+01 -0.36581654526E+01 -0.99969823999E+02  0.10030805581E+03  0.41800000000E+01 0. -1.
        -11    1    1    2    0    0 -0.19234589724E+02 -0.57513163376E+02 -0.23366257121E+03  0.24140408155E+03  0.00000000000E+00 0. -1.
         11    1    1    2    0    0 -0.38063542678E+02  0.12672299680E+02 -0.45574594265E+02  0.60716258966E+02  0.00000000000E+00 0.  1.
</event>
<event>
 6    1  0.6981059E-006  0.1160641E+03  0.7561462E-02  0.1249735E+00
          1   -1    0    0  501    0  0.00000000000E+00  0.00000000000E+00  0.31441346002E+03  0.31441346002E+03  0.00000000000E+00 0. -1.
         -1   -1    0    0    0  501 -0.00000000000E+00 -0.00000000000E+00 -0.63490115806E+02  0.63490115806E+02  0.00000000000E+00 0.  1.
          5    1    1    2  502    0 -0.56936120116E+02 -0.66243072722E+02  0.10719430999E+03  0.13834001211E+03  0.41800000000E+01 0. -1.
         -5    1    1    2    0  502  0.21606875261E+02 -0.71492024076E+01 -0.23342759263E+02  0.32868297242E+02  0.41800000000E+01 0. -1.
        -11    1    1    2    0    0  0.64593458240E+02  0.35641138830E+02  0.96245460035E+02  0.12126744906E+03  0.00000000000E+00 0.  1.
         11    1    1    2    0    0 -0.29264213385E+02  0.37751136299E+02  0.70826333452E+02  0.85427817409E+02  0.00000000000E+00 0. -1.
</event>
<event>
 6    1  0.6981059E-006  0.1043633E+03  0.7561462E-02  0.1271379E+00
          1   -1    0    0  501    0  0.00000000000E+00  0.00000000000E+00  0.51142490814E+03  0.51142490814E+03  0.00000000000E+00 0.  1.
         -1   -1    0    0    0  501 -0.00000000000E+00 -0.00000000000E+00 -0.25837550222E+02  0.25837550222E+02  0.00000000000E+00 0. -1.
          5    1    1    2  502    0 -0.14438811922E+02  0.53186452771E+02  0.57148527096E+02  0.79502859051E+02  0.41800000000E+01 0.  1.
         -5    1    1    2    0  502  0.21566906974E+02 -0.62344354425E+02  0.13102456924E+03  0.14675442123E+03  0.41800000000E+01 0.  1.
        -11    1    1    2    0    0 -0.60508910526E+01  0.48059394938E+02  0.20662443067E+03  0.21222623324E+03  0.00000000000E+00 0.  1.
         11    1    1    2    0    0 -0.10772039999E+01 -0.38901493283E+02  0.90789830906E+02  0.98778944842E+02  0.00000000000E+00 0. -1.
</event>
<event>
 6    1  0.6981059E-006  0.1023944E+03  0.7561462E-02  0.1275340E+00
          2   -1    0    0  501    0  0.00000000000E+00  0.00000000000E+00  0.22900817599E+02  0.22900817599E+02  0.00000000000E+00 0. -1.
         -2   -1    0    0    0  501 -0.00000000000E+00 -0.00000000000E+00 -0.85361834120E+03  0.85361834120E+03  0.00000000000E+00 0.  1.
          5    1    1    2  502    0  0.38050625203E+02  0.44765463823E+01 -0.92279711529E+02  0.10000453543E+03  0.41800000000E+01 0.  1.
         -5    1    1    2    0  502 -0.69232744110E+02 -0.29399092270E+01 -0.61749929525E+03  0.62138930467E+03  0.41800000000E+01 0.  1.
        -11    1    1    2    0    0  0.57177961345E+02 -0.24439016101E+02 -0.71513040927E+02  0.94766554196E+02  0.00000000000E+00 0.  1.
         11    1    1    2    0    0 -0.25995842438E+02  0.22902378945E+02 -0.49425475888E+02  0.60358764502E+02  0.00000000000E+00 0. -1.
</event>
<event>
 6    1  0.6981059E-006  0.1277231E+03  0.7561462E-02  0.1230874E+00
         -1   -1    0    0    0  501 -0.00000000000E+00  0.00000000000E+00  0.96286798762E+02  0.96286798762E+02  0.00000000000E+00 0.  1.
          1   -1    0    0  501    0  0.00000000000E+00 -0.00000000000E+00 -0.27821908554E+03  0.27821908554E+03  0.00000000000E+00 0. -1.
          5    1    1    2  502    0  0.14875817254E+02  0.24807807729E+02  0.28409330632E+02  0.40758799421E+02  0.41800000000E+01 0. -1.
         -5    1    1    2    0  502 -0.10030223622E+03 -0.36427971127E+02 -0.21979990898E+02  0.10903269267E+03  0.41800000000E+01 0.  1.
        -11    1    1    2    0    0  0.85799682723E+02 -0.19757851620E+02 -0.11430007834E+03  0.14427912588E+03  0.00000000000E+00 0. -1.
         11    1    1    2    0    0 -0.37326375749E+00  0.31378015018E+02 -0.74061548166E+02  0.80435266327E+02  0.00000000000E+00 0.  1.
</event>
<event>
 6    1  0.6981059E-006  0.1292630E+03  0.7561462E-02  0.1228553E+00
          2   -1    0    0  501    0  0.00000000000E+00  0.00000000000E+00  0.50256199295E+03  0.50256199295E+03  0.00000000000E+00 0. -1.
         -2   -1    0    0    0  501 -0.00000000000E+00 -0.00000000000E+00 -0.42620387487E+02  0.42620387487E+02  0.00000000000E+00 0.  1.
          5    1    1    2  502    0 -0.78954137543E+02 -0.58124643759E+02  0.70175830178E+02  0.12064140910E+03  0.41800000000E+01 0.  1.
         -5    1    1    2    0  502 -0.14373898182E+02  0.37057946473E+02  0.11887013176E+03  0.12540925393E+03  0.41800000000E+01 0.  1.
        -11    1    1    2    0    0  0.49703482822E+02 -0.26133565745E+02  0.17417074088E+03  0.18299958044E+03  0.00000000000E+00 0. -1.
         11    1    1    2    0    0  0.43624552903E+02  0.47200263031E+02  0.96724902645E+02  0.11613213697E+03  0.00000000000E+00 0.  1.
</event>
<event>
 6    1  0.6981059E-006  0.1152909E+03  0.7561462E-02  0.1251074E+00
         -2   -1    0    0    0  501 -0.00000000000E+00  0.00000000000E+00  0.68572635173E+02  0.68572635173E+02  0.00000000000E+00 0.  1.
          2   -1    0    0  501    0  0.00000000000E+00 -0.00000000000E+00 -0.27817027563E+03  0.27817027563E+03  0.00000000000E+00 0. -1.
          5    1    1    2  502    0  0.18202450109E+02 -0.14146160922E+02  0.15354507305E+02  0.28012075135E+02  0.41800000000E+01 0. -1.
         -5    1    1    2    0  502 -0.89374204342E+02  0.65943508232E+02 -0.85682892550E+02  0.14034003404E+03  0.41800000000E+01 0. -1.
        -11    1    1    2    0    0  0.42797166327E+02 -0.52359897110E+02 -0.48314088895E+02  0.83110814319E+02  0.00000000000E+00 0.  1.
         11    1    1    2    0    0  0.28374587907E+02  0.56254979964E+00 -0.90955166316E+02  0.95279987304E+02  0.00000000000E+00 0. -1.
</event>
<event>
 6    1  0.6981059E-006  0.9853959E+02  0.7561462E-02  0.1283397E+00
         -2   -1    0    0    0  501 -0.00000000000E+00  0.00000000000E+00  0.10215644767E+03  0.10215644767E+03  0.00000000000E+00 0. -1.
          2   -1    0    0  501    0  0.00000000000E+00 -0.00000000000E+00 -0.16898461441E+03  0.16898461441E+03  0.00000000000E+00 0.  1.
          5    1    1    2  502    0 -0.82312772799E+02 -0.33560483757E+01  0.25449434259E+02  0.86323819023E+02  0.41800000000E+01 0.  1.
         -5    1    1    2    0  502  0.11549175805E+02  0.24436231367E+02 -0.55697205857E+02  0.62049689810E+02  0.41800000000E+01 0.  1.
        -11    1    1    2    0    0  0.69318384447E+01  0.13110872444E+02 -0.47296125361E+02  0.49566811827E+02  0.00000000000E+00 0.  1.
         11    1    1    2    0    0  0.63831758550E+02 -0.34191055435E+02  0.10715730216E+02  0.73200741426E+02  0.00000000000E+00 0. -1.
</event>
<event>
 6    1  0.6981059E-006  0.1121313E+03  0.7561462E-02  0.1256673E+00
         -3   -1    0    0    0  501 -0.00000000000E+00  0.00000000000E+00  0.93951598723E+02  0.93951598723E+02  0.00000000000E+00 0.  1.
          3   -1    0    0  501    0  0.00000000000E+00 -0.00000000000E+00 -0.24299685728E+03  0.24299685728E+03  0.00000000000E+00 0. -1.
          5    1    1    2  502    0  0.45818390680E+01  0.64490146162E+02  0.54608945121E+01  0.65017428203E+02  0.41800000000E+01 0. -1.
         -5    1    1    2    0  502  0.22082226396E+02 -0.61278275360E+02  0.24421745206E+02  0.69688921592E+02  0.41800000000E+01 0.  1.
        -11    1    1    2    0    0 -0.90723789438E+01  0.43424145298E+02 -0.87978930396E+02  0.98530485882E+02  0.00000000000E+00 0. -1.
         11    1    1    2    0    0 -0.17591686520E+02 -0.46636016100E+02 -0.90948967882E+02  0.10371162033E+03  0.00000000000E+00 0.  1.
</event>
<event>
 6    1  0.6981059E-006  0.1154075E+03  0.7561462E-02  0.1250871E+00
         -1   -1    0    0    0  501 -0.00000000000E+00  0.00000000000E+00  0.53096307069E+02  0.53096307069E+02  0.00000000000E+00 0.  1.
          1   -1    0    0  501    0  0.00000000000E+00 -0.00000000000E+00 -0.25673221867E+03  0.25673221867E+03  0.00000000000E+00 0. -1.
          5    1    1    2  502    0 -0.57629633203E+02 -0.58989426726E+02 -0.51486046475E+02  0.97309878585E+02  0.41800000000E+01 0.  1.
         -5    1    1    2    0  502  0.21017450391E+02  0.42742602151E+02 -0.45091515422E+02  0.65721993447E+02  0.41800000000E+01 0.  1.
        -11    1    1    2    0    0  0.67761734538E+02  0.14034470146E+02 -0.72805139003E+02  0.10044504610E+03  0.00000000000E+00 0. -1.
         11    1    1    2    0    0 -0.31149551727E+02  0.22123544287E+01 -0.34253210702E+02  0.46351607612E+02  0.00000000000E+00 0.  1.
</event>
<event>
 6    1  0.6981059E-006  0.9579043E+02  0.7561462E-02  0.1289406E+00
          1   -1    0    0  501    0  0.00000000000E+00  0.00000000000E+00  0.31100021483E+03  0.31100021483E+03  0.00000000000E+00 0. -1.
         -1   -1    0    0    0  501 -0.00000000000E+00 -0.00000000000E+00 -0.50842945442E+02  0.50842945442E+02  0.00000000000E+00 0.  1.
          5    1    1    2  502    0 -0.31964853557E+02  0.35733669511E+02  0.66542145938E+02  0.82121718112E+02  0.41800000000E+01 0.  1.
         -5    1    1    2    0  502  0.35371180972E+02 -0.38687899825E+02 -0.12764942589E+02  0.54113678451E+02  0.41800000000E+01 0.  1.
        -11    1    1    2    0    0  0.19133037235E+01 -0.43785232019E+02  0.90894363674E+02  0.10090883322E+03  0.00000000000E+00 0.  1.
         11    1    1    2    0    0 -0.53196311382E+01  0.46739462333E+02  0.11548570237E+03  0.12469893049E+03  0.00000000000E+00 0. -1.
</event>
<event>
 6    1  0.6981059E-006  0.9783865E+02  0.7561462E-02  0.1284908E+00
          2   -1    0    0  501    0  0.00000000000E+00  0.00000000000E+00  0.19727668404E+03  0.19727668404E+03  0.00000000000E+00 0. -1.
         -2   -1    0    0    0  501 -0.00000000000E+00 -0.00000000000E+00 -0.78589222601E+02  0.78589222601E+02  0.00000000000E+00 0.  1.
          5    1    1    2  502    0  0.63165791146E+02  0.40335813990E+02  0.70234770261E+02  0.10279732689E+03  0.41800000000E+01 0.  1.
         -5    1    1    2    0  502 -0.23382729483E+02 -0.21500625144E+01 -0.31292948356E+02  0.39345848875E+02  0.41800000000E+01 0.  1.
        -11    1    1    2    0    0 -0.44088062491E+02  0.12555339646E+02  0.92609140425E+01  0.46767064658E+02  0.00000000000E+00 0.  1.
         11    1    1    2    0    0  0.43050008271E+01 -0.50741091121E+02  0.70484725493E+02  0.86955666222E+02  0.00000000000E+00 0. -1.
</event>
<event>
 6    1  0.6981059E-006  0.9668297E+02  0.7561462E-02  0.1287430E+00
         -2   -1    0    0    0  501 -0.00000000000E+00  0.00000000000E+00  0.73735036149E+02  0.73735036149E+02  0.00000000000E+00 0.  1.
          2   -1    0    0  501    0  0.00000000000E+00 -0.00000000000E+00 -0.18146251123E+03  0.18146251123E+03  0.00000000000E+00 0. -1.
          5    1    1    2  502    0 -0.55990006258E+02  0.18867143469E+02 -0.15969556522E+02  0.61346141191E+02  0.41800000000E+01 0.  1.
         -5    1    1    2    0  502  0.69225842660E+02  0.13583473596E+02 -0.17784340753E+02  0.72873062396E+02  0.41800000000E+01 0.  1.
        -11    1    1    2    0    0 -0.14438585717E+02 -0.46845511576E+02 -0.88071027620E+02  0.10079424893E+03  0.00000000000E+00 0. -1.
         11    1    1    2    0    0  0.12027493152E+01  0.14394894511E+02  0.14097449815E+02  0.20184094856E+02  0.00000000000E+00 0.  1.
</event>
<event>
 6    1  0.6981059E-006  0.8183210E+02  0.7561462E-02  0.1323931E+00
          2   -1    0    0  501    0  0.00000000000E+00  0.00000000000E+00  0.44428488370E+02  0.44428488370E+02  0.00000000000E+00 0. -1.
         -2   -1    0    0    0  501 -0.00000000000E+00 -0.00000000000E+00 -0.29539414686E+03  0.29539414686E+03  0.00000000000E+00 0.  1.
          5    1    1    2  502    0  0.46903233754E+02 -0.22715068342E+02 -0.54656881878E+02  0.75635539285E+02  0.41800000000E+01 0. -1.
         -5    1    1    2    0  502 -0.51749659496E+02  0.56800533102E+02 -0.10193206860E+03  0.12771823216E+03  0.41800000000E+01 0. -1.
        -11    1    1    2    0    0  0.19687327757E+01 -0.12881323108E+02  0.17916982609E+02  0.22154517814E+02  0.00000000000E+00 0. -1.
         11    1    1    2    0    0  0.28776929666E+01 -0.21204141652E+02 -0.11229369063E+03  0.11431434597E+03  0.00000000000E+00 0.  1.
</event>
<event>
 6    1  0.6981059E-006  0.2331685E+03  0.7561462E-02  0.1124429E+00
          2   -1    0    0  501    0  0.00000000000E+00  0.00000000000E+00  0.19808547704E+04  0.19808547704E+04  0.00000000000E+00 0.  1.
         -2   -1    0    0    0  501 -0.00000000000E+00 -0.00000000000E+00 -0.33080620592E+02  0.33080620592E+02  0.00000000000E+00 0. -1.
          5    1    1    2  502    0 -0.23479822803E+02  0.30231919138E+01  0.14538114362E+02  0.28093966210E+02  0.41800000000E+01 0.  1.
         -5    1    1    2    0  502 -0.17302312278E+03 -0.11508574975E+03  0.79456542424E+03  0.82129983357E+03  0.41800000000E+01 0.  1.
        -11    1    1    2    0    0  0.64854081125E+02  0.55114514449E+01  0.18917277526E+03  0.20005690899E+03  0.00000000000E+00 0. -1.
         11    1    1    2    0    0  0.13164886446E+03  0.10655110639E+03  0.94949783593E+03  0.96448468221E+03  0.00000000000E+00 0.  1.
</event>
<event>
 6    1  0.6981059E-006  0.1315868E+03  0.7561462E-02  0.1225120E+00
         -1   -1    0    0    0  501 -0.00000000000E+00  0.00000000000E+00  0.22698186318E+03  0.22698186318E+03  0.00000000000E+00 0.  1.
          1   -1    0    0  501    0  0.00000000000E+00 -0.00000000000E+00 -0.10496397349E+03  0.10496397349E+03  0.00000000000E+00 0. -1.
          5    1    1    2  502    0  0.43714954893E+02 -0.33701428820E+01  0.93920538217E+02  0.10373473402E+03  0.41800000000E+01 0. -1.
         -5    1    1    2    0  502  0.49171317662E+02  0.59995932669E+02 -0.16199921762E+02  0.79355152842E+02  0.41800000000E+01 0. -1.
        -11    1    1    2    0    0  0.38343536273E+01 -0.43697421464E+02  0.71533058965E+01  0.44444760046E+02  0.00000000000E+00 0.  1.
         11    1    1    2    0    0 -0.96720626182E+02 -0.12928368323E+02  0.37143967347E+02  0.10441118976E+03  0.00000000000E+00 0. -1.
</event>
<event>
 6    1  0.6981059E-006  0.1133996E+03  0.7561462E-02  0.1254401E+00
          1   -1    0    0  501    0  0.00000000000E+00  0.00000000000E+00  0.22550252731E+03  0.22550252731E+03  0.00000000000E+00 0. -1.
         -1   -1    0    0    0  501 -0.00000000000E+00 -0.00000000000E+00 -0.87078691963E+02  0.87078691963E+02  0.00000000000E+00 0.  1.
          5    1    1    2  502    0 -0.52260222076E+01  0.28151343399E+02  0.56034464823E+02  0.63064594594E+02  0.41800000000E+01 0.  1.
         -5    1    1    2    0  502  0.81515858040E+02 -0.12561274427E+02 -0.27454099108E+02  0.87027700677E+02  0.41800000000E+01 0.  1.
        -11    1    1    2    0    0 -0.84086782561E+02  0.13499231338E+02  0.98734865218E+02  0.13038937786E+03  0.00000000000E+00 0. -1.
         11    1    1    2    0    0  0.77969467284E+01 -0.29089300310E+02  0.11108604416E+02  0.32099546148E+02  0.00000000000E+00 0.  1.
</event>
<event>
 6    1  0.6981059E-006  0.2066307E+03  0.7561462E-02  0.1144262E+00
          1   -1    0    0  501    0  0.00000000000E+00  0.00000000000E+00  0.74266675879E+03  0.74266675879E+03  0.00000000000E+00 0. -1.
         -1   -1    0    0    0  501 -0.00000000000E+00 -0.00000000000E+00 -0.69676829982E+02  0.69676829982E+02  0.00000000000E+00 0.  1.
          5    1    1    2  502    0 -0.29060704358E+01  0.17549643210E-01  0.88644892980E+02  0.88790962405E+02  0.41800000000E+01 0.  1.
         -5    1    1    2    0  502  0.28726920044E+02 -0.19202130771E+03  0.17427687963E+03  0.26093547425E+03  0.41800000000E+01 0.  1.
        -11    1    1    2    0    0 -0.59682457503E+02  0.13605091502E+03  0.27587331651E+03  0.31333358258E+03  0.00000000000E+00 0.  1.
         11    1    1    2    0    0  0.33861607896E+02  0.55952843043E+02  0.13419483969E+03  0.14928356954E+03  0.00000000000E+00 0. -1.
</event>
<event>
 6    1  0.6981059E-006  0.9108556E+02  0.7561462E-02  0.1300244E+00
          1   -1    0    0  501    0  0.00000000000E+00  0.00000000000E+00  0.68986451927E+03  0.68986451927E+03  0.00000000000E+00 0. -1.
         -1   -1    0    0    0  501 -0.00000000000E+00 -0.00000000000E+00 -0.21243965426E+02  0.21243965426E+02  0.00000000000E+00 0.  1.
          5    1    1    2  502    0 -0.55877314409E+02 -0.27788341646E+02  0.56064131650E+02  0.83994794212E+02  0.41800000000E+01 0. -1.
         -5    1    1    2    0  502  0.17274833086E+02  0.11580268993E+01  0.24184316668E+03  0.24249814546E+03  0.41800000000E+01 0. -1.
        -11    1    1    2    0    0 -0.41895481392E+01  0.51932905890E+02  0.21141524268E+03  0.21774063439E+03  0.00000000000E+00 0. -1.
         11    1    1    2    0    0  0.42792029462E+02 -0.25302591143E+02  0.15929801283E+03  0.16687491063E+03  0.00000000000E+00 0.  1.
</event>
<event>
 6    1  0.6981059E-006  0.3947488E+03  0.7561462E-02  0.1045613E+00
          2   -1    0    0  501    0  0.00000000000E+00  0.00000000000E+00  0.62027806774E+03  0.62027806774E+03  0.00000000000E+00 0. -1.
         -2   -1    0    0    0  501 -0.00000000000E+00 -0.00000000000E+00 -0.27426103875E+03  0.27426103875E+03  0.00000000000E+00 0.  1.
          5    1    1    2  502    0  0.20710011700E+03  0.55514385623E+02  0.10776748028E+03  0.24000751588E+03  0.41800000000E+01 0. -1.
         -5    1    1    2    0  502  0.16041413356E+03  0.72313184191E+02 -0.22719185988E+02  0.17746978522E+03  0.41800000000E+01 0. -1.
        -11    1    1    2    0    0 -0.30670392210E+02 -0.40961745618E+02  0.27252025098E+02  0.57975947033E+02  0.00000000000E+00 0. -1.
         11    1    1    2    0    0 -0.33684385835E+03 -0.86865824196E+02  0.23371670960E+03  0.41908585835E+03  0.00000000000E+00 0.  1.
</event>
<event>
 6    1  0.6981059E-006  0.1196887E+03  0.7561462E-02  0.1243611E+00
         -1   -1    0    0    0  501 -0.00000000000E+00  0.00000000000E+00  0.23264467089E+02  0.23264467089E+02  0.00000000000E+00 0.  1.
          1   -1    0    0  501    0  0.00000000000E+00 -0.00000000000E+00 -0.70808909889E+03  0.70808909889E+03  0.00000000000E+00 0. -1.
          5    1    1    2  502    0  0.60243774604E+02  0.73844269507E+02 -0.18525687082E+03  0.20837434847E+03  0.41800000000E+01 0.  1.
         -5    1    1    2    0  502 -0.20465307104E+02 -0.35650290927E+02 -0.80982332121E+02  0.90914149360E+02  0.41800000000E+01 0.  1.
        -11    1    1    2    0    0 -0.65693140369E+01  0.27918766126E+02 -0.68766059953E+02  0.74507612969E+02  0.00000000000E+00 0.  1.
         11    1    1    2    0    0 -0.33209153463E+02 -0.66112744706E+02 -0.34981936891E+03  0.35755745518E+03  0.00000000000E+00 0. -1.
</event>
<event>
 6    1  0.6981059E-006  0.1001010E+03  0.7561462E-02  0.1280084E+00
         -1   -1    0    0    0  501 -0.00000000000E+00  0.00000000000E+00  0.48955193610E+02  0.48955193610E+02  0.00000000000E+00 0.  1.
          1   -1    0    0  501    0  0.00000000000E+00 -0.00000000000E+00 -0.35059285153E+03  0.35059285153E+03  0.00000000000E+00 0. -1.
          5    1    1    2  502    0  0.53243513160E+01  0.29322717787E+02 -0.81803540473E+02  0.87163421968E+02  0.41800000000E+01 0.  1.
         -5    1    1    2    0  502 -0.49924332165E+02 -0.49031104887E+02 -0.89958875355E-01  0.70099705286E+02  0.41800000000E+01 0.  1.
        -11    1    1    2    0    0  0.62889843970E+02  0.38537749247E+02 -0.18134303720E+03  0.19576922060E+03  0.00000000000E+00 0. -1.
         11    1    1    2    0    0 -0.18289863121E+02 -0.18829362146E+02 -0.38401121369E+02  0.46515697288E+02  0.00000000000E+00 0.  1.
</event>
<event>
 6    1  0.6981059E-006  0.9486073E+02  0.7561462E-02  0.1291490E+00
         -1   -1    0    0    0  501 -0.00000000000E+00  0.00000000000E+00  0.25820289054E+03  0.25820289054E+03  0.00000000000E+00 0.  1.
          1   -1    0    0  501    0  0.00000000000E+00 -0.00000000000E+00 -0.75114764822E+02  0.75114764822E+02  0.00000000000E+00 0. -1.
          5    1    1    2  502    0  0.53885110326E+02  0.25429772871E+02  0.14508625395E+03  0.15690051609E+03  0.41800000000E+01 0.  1.
         -5    1    1    2    0  502 -0.47091306395E+02 -0.34143047869E+02  0.60696802700E+02  0.84171925925E+02  0.41800000000E+01 0.  1.
        -11    1    1    2    0    0  0.28463240586E+02  0.19848769605E+02  0.16447439792E+02  0.38401145754E+02  0.00000000000E+00 0.  1.
         11    1    1    2    0    0 -0.35257044517E+02 -0.11135494607E+02 -0.39142370731E+02  0.53844067590E+02  0.00000000000E+00 0. -1.
</event>
<event>
 6    1  0.8817221E-006  0.2693750E+03  0.7561462E-02  0.1101638E+00
          1   -1    0    0  501    0  0.00000000000E+00  0.00000000000E+00  0.73121250388E+03  0.73121250388E+03  0.00000000000E+00 0. -1.
         -1   -1    0    0    0  501 -0.00000000000E+00 -0.00000000000E+00 -0.10804271011E+03  0.10804271011E+03  0.00000000000E+00 0.  1.
          5    1    1    2  502    0  0.69630953249E+02  0.16190103542E+03  0.26502436975E+03  0.31830143556E+03  0.41800000000E+01 0.  1.
         -5    1    1    2    0  502  0.97747892844E+02  0.19048350620E+02  0.17240959730E+03  0.19914826601E+03  0.41800000000E+01 0.  1.
        -11    1    1    2    0    0 -0.11048408886E+03 -0.52546679278E+02  0.87735773778E+02  0.15055050115E+03  0.00000000000E+00 0. -1.
         11    1    1    2    0    0 -0.56894757229E+02 -0.12840270677E+03  0.98000052950E+02  0.17125501126E+03  0.00000000000E+00 0.  1.
</event>
<event>
 6    1  0.6981059E-006  0.1748047E+03  0.7561462E-02  0.1172928E+00
         -1   -1    0    0    0  501 -0.00000000000E+00  0.00000000000E+00  0.11307048002E+03  0.11307048002E+03  0.00000000000E+00 0.  1.
          1   -1    0    0  501    0  0.00000000000E+00 -0.00000000000E+00 -0.38939071897E+03  0.38939071897E+03  0.00000000000E+00 0. -1.
          5    1    1    2  502    0 -0.14839038155E+03 -0.37663248866E+02 -0.24414836140E+03  0.28820846695E+03  0.41800000000E+01 0.  1.
         -5    1    1    2    0  502 -0.72899450659E+01 -0.14859899068E+02  0.13216169470E+02  0.21589336137E+02  0.41800000000E+01 0.  1.
        -11    1    1    2    0    0  0.12964242477E+03  0.10652983224E+02 -0.71645230439E+01  0.13027653182E+03  0.00000000000E+00 0.  1.
         11    1    1    2    0    0  0.26037901843E+02  0.41870164710E+02 -0.38223523973E+02  0.62386864083E+02  0.00000000000E+00 0. -1.
</event>
<event>
 6    1  0.6981059E-006  0.9746111E+02  0.7561462E-02  0.1285727E+00
          2   -1    0    0  501    0  0.00000000000E+00  0.00000000000E+00  0.26192246671E+03  0.26192246671E+03  0.00000000000E+00 0.  1.
         -2   -1    0    0    0  501 -0.00000000000E+00 -0.00000000000E+00 -0.55431547641E+02  0.55431547641E+02  0.00000000000E+00 0. -1.
          5    1    1    2  502    0 -0.52293790819E+02  0.51522025427E+02  0.95689448387E+01  0.74149826484E+02  0.41800000000E+01 0.  1.
         -5    1    1    2    0  502  0.12301678973E+02 -0.16615614579E+02  0.95042067975E+02  0.97354388902E+02  0.41800000000E+01 0.  1.
        -11    1    1    2    0    0  0.51285904990E+02 -0.56269961249E+02  0.57833372293E+02  0.95609892482E+02  0.00000000000E+00 0.  1.
         11    1    1    2    0    0 -0.11293793143E+02  0.21363550402E+02  0.44046533958E+02  0.50239906480E+02  0.00000000000E+00 0. -1.
</event>
<event>
 6    1  0.6981059E-006  0.1306986E+03  0.7561462E-02  0.1226423E+00
          3   -1    0    0  501    0  0.00000000000E+00  0.00000000000E+00  0.20273109528E+02  0.20273109528E+02  0.00000000000E+00 0. -1.
         -3   -1    0    0    0  501 -0.00000000000E+00 -0.00000000000E+00 -0.90460413612E+03  0.90460413612E+03  0.00000000000E+00 0.  1.
          5    1    1    2  502    0  0.11583170546E+02 -0.31606829696E+02 -0.10196787752E+03  0.10746200244E+03  0.41800000000E+01 0.  1.
         -5    1    1    2    0  502 -0.48324779077E+02  0.10464569909E+03 -0.38989846401E+03  0.40660089922E+03  0.41800000000E+01 0.  1.
        -11    1    1    2    0    0 -0.17992930804E+02 -0.49288979362E+02 -0.26408477753E+03  0.26924694756E+03  0.00000000000E+00 0.  1.
         11    1    1    2    0    0  0.54734539335E+02 -0.23749890032E+02 -0.12837990753E+03  0.14156739642E+03  0.00000000000E+00 0. -1.
</event>
<event>
 6    1  0.6981059E-006  0.6418363E+02  0.7561462E-02  0.1381069E+00
         -2   -1    0    0    0  501 -0.00000000000E+00  0.00000000000E+00  0.50694111424E+02  0.50694111424E+02  0.00000000000E+00 0.  1.
          2   -1    0    0  501    0  0.00000000000E+00 -0.00000000000E+00 -0.26095133394E+03  0.26095133394E+03  0.00000000000E+00 0. -1.
          5    1    1    2  502    0 -0.54703178751E+02 -0.30041269127E+02 -0.25211026001E+01  0.62599872001E+02  0.41800000000E+01 0. -1.
         -5    1    1    2    0  502  0.23157087928E+02  0.14021462332E+02 -0.97927719879E+02  0.10168659129E+03  0.41800000000E+01 0. -1.
        -11    1    1    2    0    0  0.16181223103E+02 -0.65912657196E-01  0.14104257831E+02  0.21465470286E+02  0.00000000000E+00 0.  1.
         11    1    1    2    0    0  0.15364867720E+02  0.16085719452E+02 -0.12391265787E+03  0.12589351179E+03  0.00000000000E+00 0. -1.
</event>
<event>
 6    1  0.6981059E-006  0.9380948E+02  0.7561462E-02  0.1293880E+00
         -2   -1    0    0    0  501 -0.00000000000E+00  0.00000000000E+00  0.42254449627E+02  0.42254449627E+02  0.00000000000E+00 0.  1.
          2   -1    0    0  501    0  0.00000000000E+00 -0.00000000000E+00 -0.45514344443E+03  0.45514344443E+03  0.00000000000E+00 0. -1.
          5    1    1    2  502    0 -0.15653767252E+02 -0.52312318276E+02  0.84524065676E+01  0.55412405194E+02  0.41800000000E+01 0. -1.
         -5    1    1    2    0  502 -0.24335325816E+02  0.21158043541E+02 -0.10665922969E+03  0.11150576024E+03  0.41800000000E+01 0. -1.
        -11    1    1    2    0    0 -0.41879877153E+01 -0.26991182037E+02 -0.10280283372E+03  0.10636957163E+03  0.00000000000E+00 0. -1.
         11    1    1    2    0    0  0.44177080784E+02  0.58145456772E+02 -0.21187933796E+03  0.22411015699E+03  0.00000000000E+00 0.  1.
</event>
<event>
 6    1  0.6981059E-006  0.1092657E+03  0.7561462E-02  0.1261936E+00
          2   -1    0    0  501    0  0.00000000000E+00  0.00000000000E+00  0.10092848076E+03  0.10092848076E+03  0.00000000000E+00 0. -1.
         -2   -1    0    0    0  501 -0.00000000000E+00 -0.00000000000E+00 -0.13833773506E+03  0.13833773506E+03  0.00000000000E+00 0.  1.
          5    1    1    2  502    0  0.44594954286E+02  0.71083814951E+02 -0.25399460421E+02  0.87773707256E+02  0.41800000000E+01 0.  1.
         -5    1    1    2    0  502 -0.52838676568E+01 -0.47857440820E+02 -0.32171315099E+01  0.48436311114E+02  0.41800000000E+01 0.  1.
        -11    1    1    2    0    0 -0.47933732071E+02  0.12413839872E+02 -0.32649104530E+02  0.59310286774E+02  0.00000000000E+00 0.  1.
         11    1    1    2    0    0  0.86226454413E+01 -0.35640214003E+02  0.23856442153E+02  0.43745910675E+02  0.00000000000E+00 0. -1.
</event>
<event>
 6    1  0.6981059E-006  0.1220314E+03  0.7561462E-02  0.1239783E+00
          2   -1    0    0  501    0  0.00000000000E+00  0.00000000000E+00  0.28589340018E+03  0.28589340018E+03  0.00000000000E+00 0. -1.
         -2   -1    0    0    0  501 -0.00000000000E+00 -0.00000000000E+00 -0.80351213582E+02  0.80351213582E+02  0.00000000000E+00 0.  1.
          5    1    1    2  502    0 -0.27713314903E+01  0.35282043037E+02  0.89688065624E+01  0.36747989473E+02  0.41800000000E+01 0. -1.
         -5    1    1    2    0  502  0.70801857330E+02 -0.65929617700E+02 -0.50876904424E+01  0.96968935673E+02  0.41800000000E+01 0.  1.
        -11    1    1    2    0    0 -0.83094333141E+02  0.67844688433E+01  0.11992519793E+03  0.14605735283E+03  0.00000000000E+00 0.  1.
         11    1    1    2    0    0  0.15063807301E+02  0.23863105819E+02  0.81735872552E+02  0.86470335790E+02  0.00000000000E+00 0. -1.
</event>
<event>
 6    1  0.6981059E-006  0.8232764E+02  0.7561462E-02  0.1322573E+00
         -3   -1    0    0    0  501 -0.00000000000E+00  0.00000000000E+00  0.13387418081E+03  0.13387418081E+03  0.00000000000E+00 0.  1.
          3   -1    0    0  501    0  0.00000000000E+00 -0.00000000000E+00 -0.11510420961E+03  0.11510420961E+03  0.00000000000E+00 0. -1.
          5    1    1    2  502    0  0.46415907995E+02 -0.24176442150E+02 -0.50517748119E+02  0.72859125339E+02  0.41800000000E+01 0.  1.
         -5    1    1    2    0  502  0.76394137187E+01  0.49642807859E+00  0.65710691150E+02  0.66287060684E+02  0.41800000000E+01 0.  1.
        -11    1    1    2    0    0 -0.74579029606E+02  0.35192825328E+01 -0.14218503189E+02  0.76003834374E+02  0.00000000000E+00 0. -1.
         11    1    1    2    0    0  0.20523707892E+02  0.20160731538E+02  0.17795531360E+02  0.33828370020E+02  0.00000000000E+00 0.  1.
</event>
<event>
 6    1  0.6981059E-006  0.1087717E+03  0.7561462E-02  0.1262862E+00
         -2   -1    0    0    0  501 -0.00000000000E+00  0.00000000000E+00  0.70527408707E+02  0.70527408707E+02  0.00000000000E+00 0.  1.
          2   -1    0    0  501    0  0.00000000000E+00 -0.00000000000E+00 -0.21751166320E+03  0.21751166320E+03  0.00000000000E+00 0. -1.
          5    1    1    2  502    0 -0.17418967742E+02 -0.27964028111E+02  0.16036936728E+02  0.36879032593E+02  0.41800000000E+01 0.  1.
         -5    1    1    2    0  502 -0.23674883404E+02  0.71525536342E+02 -0.99874783926E+02  0.12517526640E+03  0.41800000000E+01 0.  1.
        -11    1    1    2    0    0  0.52043031185E+02 -0.65915759477E+02 -0.51356060166E+02  0.98441908546E+02  0.00000000000E+00 0. -1.
         11    1    1    2    0    0 -0.10949180039E+02  0.22354251246E+02 -0.11790347128E+02  0.27542864370E+02  0.00000000000E+00 0.  1.
</event>
<event>
 6    1  0.6981059E-006  0.1108081E+03  0.7561462E-02  0.1259081E+00
          2   -1    0    0  501    0  0.00000000000E+00  0.00000000000E+00  0.18313257212E+03  0.18313257212E+03  0.00000000000E+00 0. -1.
         -2   -1    0    0    0  501 -0.00000000000E+00 -0.00000000000E+00 -0.14622440319E+03  0.14622440319E+03  0.00000000000E+00 0.  1.
          5    1    1    2  502    0 -0.36495571561E+02  0.79407936976E+01  0.25724391646E+02  0.45543382326E+02  0.41800000000E+01 0. -1.
         -5    1    1    2    0  502  0.80975605753E+01  0.64042074570E+02 -0.10035861887E+03  0.11939967581E+03  0.41800000000E+01 0. -1.
        -11    1    1    2    0    0  0.43135225311E+02  0.27036022477E+01  0.52951304545E+02  0.68350550698E+02  0.00000000000E+00 0.  1.
         11    1    1    2    0    0 -0.14737214325E+02 -0.74686470516E+02  0.58591091602E+02  0.96063366479E+02  0.00000000000E+00 0. -1.
</event>
<event>
 6    1  0.6981059E-006  0.1067481E+03  0.7561462E-02  0.1266713E+00
         -1   -1    0    0    0  501 -0.00000000000E+00  0.00000000000E+00  0.19744782281E+02  0.19744782281E+02  0.00000000000E+00 0.  1.
          1   -1    0    0  501    0  0.00000000000E+00 -0.00000000000E+00 -0.74253499202E+03  0.74253499202E+03  0.00000000000E+00 0. -1.
          5    1    1    2  502    0 -0.60548682729E+02  0.61367239808E+02 -0.17395365400E+03  0.19418915325E+03  0.41800000000E+01 0.  1.
         -5    1    1    2    0  502  0.42351673945E+02 -0.80826057639E+01 -0.18703972269E+03  0.19199042441E+03  0.41800000000E+01 0.  1.
        -11    1    1    2    0    0 -0.68209600161E+01 -0.58007691717E+02 -0.33113217939E+03  0.33624386690E+03  0.00000000000E+00 0. -1.
         11    1    1    2    0    0  0.25017968800E+02  0.47230576728E+01 -0.30664653664E+02  0.39856329748E+02  0.00000000000E+00 0.  1.
</event>
<event>
 6    1  0.6981059E-006  0.1471451E+03  0.7561462E-02  0.1204026E+00
          4   -1    0    0  501    0  0.00000000000E+00  0.00000000000E+00  0.90242286841E+02  0.90242286841E+02  0.00000000000E+00 0. -1.
         -4   -1    0    0    0  501 -0.00000000000E+00 -0.00000000000E+00 -0.33834431446E+03  0.33834431446E+03  0.00000000000E+00 0.  1.
          5    1    1    2  502    0  0.65437907062E+02 -0.85945732287E+02 -0.19929801680E+03  0.22672882586E+03  0.41800000000E+01 0. -1.
         -5    1    1    2    0  502 -0.44843594113E+02 -0.17885496757E+02 -0.37667154116E+02  0.61376916071E+02  0.41800000000E+01 0. -1.
        -11    1    1    2    0    0 -0.94753879062E+01 -0.15344596943E+02 -0.10332807695E+02  0.20784767167E+02  0.00000000000E+00 0.  1.
         11    1    1    2    0    0 -0.11118925043E+02  0.11917582599E+03 -0.80404901651E+00  0.11969609220E+03  0.00000000000E+00 0. -1.
</event>
<event>
 6    1  0.6981059E-006  0.9310259E+02  0.7561462E-02  0.1295508E+00
         -1   -1    0    0    0  501 -0.00000000000E+00  0.00000000000E+00  0.58063517379E+02  0.58063517379E+02  0.00000000000E+00 0.  1.
          1   -1    0    0  501    0  0.00000000000E+00 -0.00000000000E+00 -0.40506887265E+03  0.40506887265E+03  0.00000000000E+00 0. -1.
          5    1    1    2  502    0  0.26807470832E+02 -0.31067485047E+02 -0.80062786767E+02  0.90063040946E+02  0.41800000000E+01 0.  1.
         -5    1    1    2    0  502 -0.48238677111E+02 -0.29735595319E+02  0.23648738214E+02  0.61546005700E+02  0.41800000000E+01 0.  1.
        -11    1    1    2    0    0 -0.98929962813E+01  0.55490686893E+02 -0.26441932783E+03  0.27036025714E+03  0.00000000000E+00 0. -1.
         11    1    1    2    0    0  0.31324202560E+02  0.53123934734E+01 -0.26171978883E+02  0.41163086244E+02  0.00000000000E+00 0.  1.
</event>
<event>
 6    1  0.6981059E-006  0.7735693E+02  0.7561462E-02  0.1336724E+00
         -2   -1    0    0    0  501 -0.00000000000E+00  0.00000000000E+00  0.33507144588E+02  0.33507144588E+02  0.00000000000E+00 0.  1.
          2   -1    0    0  501    0  0.00000000000E+00 -0.00000000000E+00 -0.42226564605E+03  0.42226564605E+03  0.00000000000E+00 0. -1.
          5    1    1    2  502    0  0.19016131282E+02 -0.66541179338E+02 -0.21920549151E+03  0.22990837676E+03  0.41800000000E+01 0. -1.
         -5    1    1    2    0  502 -0.16848236170E+02  0.20720008014E+02 -0.49703785758E+00  0.27035185236E+02  0.41800000000E+01 0. -1.
        -11    1    1    2    0    0  0.11793714360E+02  0.42355391637E+02 -0.17701185442E+03  0.18239042602E+03  0.00000000000E+00 0. -1.
         11    1    1    2    0    0 -0.13961609472E+02  0.34657796867E+01  0.79558823275E+01  0.16438802617E+02  0.00000000000E+00 0.  1.
</event>
<event>
 6    1  0.6981059E-006  0.1021912E+03  0.7561462E-02  0.1275755E+00
          2   -1    0    0  501    0  0.00000000000E+00  0.00000000000E+00  0.18784636595E+02  0.18784636595E+02  0.00000000000E+00 0. -1.
         -2   -1    0    0    0  501 -0.00000000000E+00 -0.00000000000E+00 -0.65844497825E+03  0.65844497825E+03  0.00000000000E+00 0.  1.
          5    1    1    2  502    0 -0.45908455102E+02  0.16245117072E+02 -0.26335277697E+03  0.26785004688E+03  0.41800000000E+01 0.  1.
         -5    1    1    2    0  502  0.63430240557E+02 -0.23134097277E+02 -0.15280739752E+03  0.16711120552E+03  0.41800000000E+01 0.  1.
        -11    1    1    2    0    0 -0.47172121942E+02  0.24723068270E+02 -0.17330053343E+03  0.18129951483E+03  0.00000000000E+00 0.  1.
         11    1    1    2    0    0  0.29650336487E+02 -0.17834088065E+02 -0.50199633742E+02  0.60968847609E+02  0.00000000000E+00 0. -1.
</event>
<event>
 6    1  0.6981059E-006  0.1244656E+03  0.7561462E-02  0.1235907E+00
          2   -1    0    0  501    0  0.00000000000E+00  0.00000000000E+00  0.35952177127E+03  0.35952177127E+03  0.00000000000E+00 0. -1.
         -2   -1    0    0    0  501 -0.00000000000E+00 -0.00000000000E+00 -0.64706400565E+02  0.64706400565E+02  0.00000000000E+00 0.  1.
          5    1    1    2  502    0 -0.82818579245E+02  0.83206670354E+02  0.10222852792E+03  0.15572543588E+03  0.41800000000E+01 0. -1.
         -5    1    1    2    0  502  0.32262177340E+02  0.12354728148E+01 -0.15791970871E+01  0.32593569048E+02  0.41800000000E+01 0. -1.
        -11    1    1    2    0    0  0.35378121987E+01 -0.12244228300E+02 -0.87496923219E+01  0.15459442342E+02  0.00000000000E+00 0.  1.
         11    1    1    2    0    0  0.47018589706E+02 -0.72197914869E+02  0.20291573219E+03  0.22044972456E+03  0.00000000000E+00 0. -1.
</event>
<event>
 6    1  0.6981059E-006  0.1256677E+03  0.7561462E-02  0.1234029E+00
         -3   -1    0    0    0  501 -0.00000000000E+00  0.00000000000E+00  0.14490659459E+03  0.14490659459E+03  0.00000000000E+00 0.  1.
          3   -1    0    0  501    0  0.00000000000E+00 -0.00000000000E+00 -0.18975950407E+03  0.18975950407E+03  0.00000000000E+00 0. -1.
          5    1    1    2  502    0  0.54344333098E+02  0.40601907375E+02 -0.42075783827E+02  0.79935382698E+02  0.41800000000E+01 0.  1.
         -5    1    1    2    0  502 -0.54716400576E+00  0.59987578751E+02  0.69173345109E+02  0.91658240581E+02  0.41800000000E+01 0.  1.
        -11    1    1    2    0    0 -0.61242396160E+02 -0.76349304269E+02 -0.12792943712E+02  0.98709203008E+02  0.00000000000E+00 0.  1.
         11    1    1    2    0    0  0.74452270673E+01 -0.24240181858E+02 -0.59157527051E+02  0.64363272364E+02  0.00000000000E+00 0. -1.
</event>
<event>
 6    1  0.6981059E-006  0.1283922E+03  0.7561462E-02  0.1229861E+00
         -1   -1    0    0    0  501 -0.00000000000E+00  0.00000000000E+00  0.19768411264E+03  0.19768411264E+03  0.00000000000E+00 0.  1.
          1   -1    0    0  501    0  0.00000000000E+00 -0.00000000000E+00 -0.37518345635E+03  0.37518345635E+03  0.00000000000E+00 0. -1.
          5    1    1    2  502    0  0.43985220392E+02 -0.10197655123E+03  0.10624966461E+03  0.15375428529E+03  0.41800000000E+01 0. -1.
         -5    1    1    2    0  502  0.48434960200E+01  0.37384674053E+02  0.50169848121E+02  0.62893237858E+02  0.41800000000E+01 0.  1.
        -11    1    1    2    0    0 -0.39794515304E+02 -0.26412947532E+01 -0.48210678166E+02  0.62568757183E+02  0.00000000000E+00 0.  1.
         11    1    1    2    0    0 -0.90342011078E+01  0.67233171932E+02 -0.28570817828E+03  0.29365128866E+03  0.00000000000E+00 0. -1.
</event>
<event>
 6    1  0.6981059E-006  0.1100897E+03  0.7561462E-02  0.1260404E+00
         -1   -1    0    0    0  501 -0.00000000000E+00  0.00000000000E+00  0.86339975254E+02  0.86339975254E+02  0.00000000000E+00 0.  1.
          1   -1    0    0  501    0  0.00000000000E+00 -0.00000000000E+00 -0.23443257027E+03  0.23443257027E+03  0.00000000000E+00 0. -1.
          5    1    1    2  502    0  0.76696847279E+02  0.23749869778E+02  0.14991533295E+02  0.81784357719E+02  0.41800000000E+01 0.  1.
         -5    1    1    2    0  502  0.14776168459E+02 -0.18761845005E+02 -0.84997255869E+02  0.88387487167E+02  0.41800000000E+01 0.  1.
        -11    1    1    2    0    0 -0.28109930980E+02 -0.35440544164E+02  0.39460935198E+00  0.45236667725E+02  0.00000000000E+00 0.  1.
         11    1    1    2    0    0 -0.63363084757E+02  0.30452519391E+02 -0.78481481793E+02  0.10536403291E+03  0.00000000000E+00 0. -1.
</event>
<event>
 6    1  0.6981059E-006  0.1228472E+03  0.7561462E-02  0.1238473E+00
         -3   -1    0    0    0  501 -0.00000000000E+00  0.00000000000E+00  0.22481552094E+03  0.22481552094E+03  0.00000000000E+00 0.  1.
          3   -1    0    0  501    0  0.00000000000E+00 -0.00000000000E+00 -0.73803998473E+02  0.73803998473E+02  0.00000000000E+00 0. -1.
          5    1    1    2  502    0 -0.19308101151E+02  0.43070462346E+02  0.60498112519E+02  0.76846350045E+02  0.41800000000E+01 0. -1.
         -5    1    1    2    0  502  0.80374590548E+02 -0.37348610042E+02  0.57506331865E+02  0.10573289026E+03  0.41800000000E+01 0. -1.
        -11    1    1    2    0    0 -0.67502084707E+02 -0.37459159568E+02  0.13900773408E+02  0.78440752015E+02  0.00000000000E+00 0. -1.
         11    1    1    2    0    0  0.64355953104E+01  0.31737307263E+02  0.19106304672E+02  0.37599527092E+02  0.00000000000E+00 0.  1.
</event>
<event>
 6    1  0.6981059E-006  0.1122586E+03  0.7561462E-02  0.1256444E+00
         -1   -1    0    0    0  501 -0.00000000000E+00  0.00000000000E+00  0.13598615624E+03  0.13598615624E+03  0.00000000000E+00 0.  1.
          1   -1    0    0  501    0  0.00000000000E+00 -0.00000000000E+00 -0.20809013024E+03  0.20809013024E+03  0.00000000000E+00 0. -1.
          5    1    1    2  502    0  0.61311866881E+02  0.25146656144E+02  0.53323436410E+02  0.85160792659E+02  0.41800000000E+01 0.  1.
         -5    1    1    2    0  502 -0.22026040862E+02 -0.64676397626E+02  0.27077115961E+02  0.73612672106E+02  0.41800000000E+01 0.  1.
        -11    1    1    2    0    0 -0.52803900678E+02  0.55493071648E+01 -0.38521840954E+02  0.65597095723E+02  0.00000000000E+00 0.  1.
         11    1    1    2    0    0  0.13518074659E+02  0.33980434317E+02 -0.11398268542E+03  0.11970572599E+03  0.00000000000E+00 0. -1.
</event>
<event>
 6    1  0.6981059E-006  0.9057137E+02  0.7561462E-02  0.1301474E+00
         -1   -1    0    0    0  501 -0.00000000000E+00  0.00000000000E+00  0.80263585335E+03  0.80263585335E+03  0.00000000000E+00 0.  1.
          1   -1    0    0  501    0  0.00000000000E+00 -0.00000000000E+00 -0.30109088241E+02  0.30109088241E+02  0.00000000000E+00 0. -1.
          5    1    1    2  502    0 -0.32464012725E+02  0.72125385122E+02  0.59749358924E+03  0.60272053630E+03  0.41800000000E+01 0. -1.
         -5    1    1    2    0  502  0.29984867397E+02 -0.14885307858E+01  0.36970494862E+02  0.47807927031E+02  0.41800000000E+01 0. -1.
        -11    1    1    2    0    0 -0.38097338310E+01 -0.47416408805E+02  0.59599437325E+01  0.47941118313E+02  0.00000000000E+00 0. -1.
         11    1    1    2    0    0  0.62888791595E+01 -0.23220445532E+02  0.13210273728E+03  0.13427535994E+03  0.00000000000E+00 0.  1.
</event>
<event>
 6    1  0.6981059E-006  0.2160550E+03  0.7561462E-02  0.1136859E+00
          1   -1    0    0  501    0  0.00000000000E+00  0.00000000000E+00  0.36838080472E+02  0.36838080472E+02  0.00000000000E+00 0. -1.
         -1   -1    0    0    0  501 -0.00000000000E+00 -0.00000000000E+00 -0.12983459230E+04  0.12983459230E+04  0.00000000000E+00 0.  1.
          5    1    1    2  502    0  0.14149813591E+02 -0.48511513845E+02 -0.21913885790E+03  0.22492864567E+03  0.41800000000E+01 0. -1.
         -5    1    1    2    0  502 -0.15444727397E+03 -0.76964002090E+02 -0.50838016803E+03  0.53688479742E+03  0.41800000000E+01 0. -1.
        -11    1    1    2    0    0  0.43872600453E+02  0.99785016573E+02 -0.27338425742E+03  0.29431412948E+03  0.00000000000E+00 0.  1.
         11    1    1    2    0    0  0.96424859928E+02  0.25690499362E+02 -0.26060455922E+03  0.27905643095E+03  0.00000000000E+00 0. -1.
</event>
<event>
 6    1  0.6981059E-006  0.2552219E+03  0.7561462E-02  0.1110048E+00
         -2   -1    0    0    0  501 -0.00000000000E+00  0.00000000000E+00  0.30290888622E+03  0.30290888622E+03  0.00000000000E+00 0.  1.
          2   -1    0    0  501    0  0.00000000000E+00 -0.00000000000E+00 -0.52539818887E+03  0.52539818887E+03  0.00000000000E+00 0. -1.
          5    1    1    2  502    0  0.94116157578E+02  0.57433486819E+02  0.94954570630E+01  0.11074336382E+03  0.41800000000E+01 0. -1.
         -5    1    1    2    0  502  0.12034926115E+03  0.76525108965E+02  0.17743680997E+03  0.22768691419E+03  0.41800000000E+01 0. -1.
        -11    1    1    2    0    0 -0.15203798572E+03 -0.67812760819E+02 -0.19154907891E+03  0.25378173548E+03  0.00000000000E+00 0. -1.
         11    1    1    2    0    0 -0.62427433008E+02 -0.66145834966E+02 -0.21787249077E+03  0.23609506160E+03  0.00000000000E+00 0.  1.
</event>
<event>
 6    1  0.6981059E-006  0.4315837E+03  0.7561462E-02  0.1033361E+00
          2   -1    0    0  501    0  0.00000000000E+00  0.00000000000E+00  0.70905406248E+03  0.70905406248E+03  0.00000000000E+00 0. -1.
         -2   -1    0    0    0  501 -0.00000000000E+00 -0.00000000000E+00 -0.27134759387E+03  0.27134759387E+03  0.00000000000E+00 0.  1.
          5    1    1    2  502    0  0.20324824107E+03  0.33097517601E+03  0.26372679857E+03  0.46949303649E+03  0.41800000000E+01 0. -1.
         -5    1    1    2    0  502 -0.18578659374E+03 -0.33947686646E+03  0.14909231443E+03  0.41473749758E+03  0.41800000000E+01 0.  1.
        -11    1    1    2    0    0  0.28000422383E+02 -0.19697801032E+02 -0.54564653895E+01  0.34666987663E+02  0.00000000000E+00 0.  1.
         11    1    1    2    0    0 -0.45462069712E+02  0.28199491483E+02  0.30343820989E+02  0.61504134614E+02  0.00000000000E+00 0. -1.
</event>
<event>
 6    1  0.6981059E-006  0.1787533E+03  0.7561462E-02  0.1169015E+00
         -1   -1    0    0    0  501 -0.00000000000E+00  0.00000000000E+00  0.12490538373E+03  0.12490538373E+03  0.00000000000E+00 0.  1.
          1   -1    0    0  501    0  0.00000000000E+00 -0.00000000000E+00 -0.30034574852E+03  0.30034574852E+03  0.00000000000E+00 0. -1.
          5    1    1    2  502    0 -0.10868618278E+02  0.14334916825E+02  0.12886796407E+02  0.22520182621E+02  0.41800000000E+01 0.  1.
         -5    1    1    2    0  502  0.16749611770E+03 -0.35234910491E+02 -0.87630309529E+02  0.19233562309E+03  0.41800000000E+01 0.  1.
        -11    1    1    2    0    0 -0.12164233644E+03 -0.87622967079E+01 -0.10925255636E+03  0.16373685269E+03  0.00000000000E+00 0.  1.
         11    1    1    2    0    0 -0.34985162986E+02  0.29662290374E+02  0.85557046813E+01  0.46658473849E+02  0.00000000000E+00 0. -1.
</event>
<event>
 6    1  0.6981059E-006  0.1018339E+03  0.7561462E-02  0.1276486E+00
         -1   -1    0    0    0  501 -0.00000000000E+00  0.00000000000E+00  0.73587275584E+02  0.73587275584E+02  0.00000000000E+00 0.  1.
          1   -1    0    0  501    0  0.00000000000E+00 -0.00000000000E+00 -0.15401017936E+03  0.15401017936E+03  0.00000000000E+00 0. -1.
          5    1    1    2  502    0  0.38032571479E+02  0.53781331539E+02 -0.36281727539E+02  0.75317622564E+02  0.41800000000E+01 0. -1.
         -5    1    1    2    0  502 -0.10626110983E+02 -0.41585303229E+02  0.71549145081E+01  0.43714035284E+02  0.41800000000E+01 0.  1.
        -11    1    1    2    0    0 -0.53887991915E+02 -0.30900901585E+02 -0.41464331057E+02  0.74686492363E+02  0.00000000000E+00 0.  1.
         11    1    1    2    0    0  0.26481531419E+02  0.18704873275E+02 -0.98317596860E+01  0.33879304731E+02  0.00000000000E+00 0. -1.
</event>
<event>
 6    1  0.6981059E-006  0.1019645E+03  0.7561462E-02  0.1276218E+00
         -1   -1    0    0    0  501 -0.00000000000E+00  0.00000000000E+00  0.71204939573E+03  0.71204939573E+03  0.00000000000E+00 0.  1.
          1   -1    0    0  501    0  0.00000000000E+00 -0.00000000000E+00 -0.46258139130E+02  0.46258139130E+02  0.00000000000E+00 0. -1.
          5    1    1    2  502    0  0.28647242622E+02  0.41281358791E+02  0.49330171539E+03  0.49587182810E+03  0.41800000000E+01 0.  1.
         -5    1    1    2    0  502 -0.58135788445E+02 -0.46317581139E+01  0.14646470201E+03  0.15770416740E+03  0.41800000000E+01 0.  1.
        -11    1    1    2    0    0  0.57002125481E+02 -0.12337117279E+02 -0.22876609607E+01  0.58366772780E+02  0.00000000000E+00 0. -1.
         11    1    1    2    0    0 -0.27513579659E+02 -0.24312483398E+02  0.28312500161E+02  0.46364766580E+02  0.00000000000E+00 0.  1.
</event>
<event>
 6    1  0.6981059E-006  0.1232517E+03  0.7561462E-02  0.1237827E+00
          2   -1    0    0  501    0  0.00000000000E+00  0.00000000000E+00  0.15008177832E+03  0.15008177832E+03  0.00000000000E+00 0. -1.
         -2   -1    0    0    0  501 -0.00000000000E+00 -0.00000000000E+00 -0.14193535390E+03  0.14193535390E+03  0.00000000000E+00 0.  1.
          5    1    1    2  502    0 -0.67108105471E+01  0.55958482549E+02 -0.38659554627E+02  0.68472040362E+02  0.41800000000E+01 0.  1.
         -5    1    1    2    0  502  0.29547264815E+02 -0.47050415519E+02  0.22351664830E+02  0.60032089579E+02  0.41800000000E+01 0.  1.
        -11    1    1    2    0    0 -0.29252795253E+02 -0.68422737689E+02  0.58494083009E+02  0.94651755451E+02  0.00000000000E+00 0. -1.
         11    1    1    2    0    0  0.64163409855E+01  0.59514670660E+02 -0.34039768785E+02  0.68861246825E+02  0.00000000000E+00 0.  1.
</event>
<event>
 6    1  0.6981059E-006  0.1046743E+03  0.7561462E-02  0.1270763E+00
          1   -1    0    0  501    0  0.00000000000E+00  0.00000000000E+00  0.10912769252E+03  0.10912769252E+03  0.00000000000E+00 0. -1.
         -1   -1    0    0    0  501 -0.00000000000E+00 -0.00000000000E+00 -0.14183179080E+03  0.14183179080E+03  0.00000000000E+00 0.  1.
          5    1    1    2  502    0 -0.48171631911E+01 -0.78992916298E+02 -0.68663595309E+02  0.10485822623E+03  0.41800000000E+01 0.  1.
         -5    1    1    2    0  502 -0.60275219352E+01  0.27008672720E+02  0.25357730622E+02  0.37766206125E+02  0.41800000000E+01 0.  1.
        -11    1    1    2    0    0  0.32850263872E+02  0.67579183864E+02 -0.80089599373E+01  0.75566059626E+02  0.00000000000E+00 0.  1.
         11    1    1    2    0    0 -0.22005578746E+02 -0.15594940286E+02  0.18610726345E+02  0.32768991342E+02  0.00000000000E+00 0. -1.
</event>
<event>
 6    1  0.8096531E-006  0.1124038E+03  0.7561462E-02  0.1256182E+00
          1   -1    0    0  501    0  0.00000000000E+00  0.00000000000E+00  0.24919791436E+03  0.24919791436E+03  0.00000000000E+00 0. -1.
         -1   -1    0    0    0  501 -0.00000000000E+00 -0.00000000000E+00 -0.71269258927E+02  0.71269258927E+02  0.00000000000E+00 0.  1.
          5    1    1    2  502    0  0.93793736172E+02  0.33632303563E+02  0.60039470923E+02  0.11640707563E+03  0.41800000000E+01 0. -1.
         -5    1    1    2    0  502 -0.39721205934E+02  0.14429153318E+02  0.76008398822E+01  0.43141857091E+02  0.41800000000E+01 0. -1.
        -11    1    1    2    0    0 -0.76799581290E+01 -0.32930170787E+02 -0.64209366397E+01  0.34418110527E+02  0.00000000000E+00 0.  1.
         11    1    1    2    0    0 -0.46392572109E+02 -0.15131286095E+02  0.11670928127E+03  0.12650013004E+03  0.00000000000E+00 0. -1.
</event>
<event>
 6    1  0.6981059E-006  0.1310196E+03  0.7561462E-02  0.1225951E+00
         -1   -1    0    0    0  501 -0.00000000000E+00  0.00000000000E+00  0.33501513660E+02  0.33501513660E+02  0.00000000000E+00 0.  1.
          1   -1    0    0  501    0  0.00000000000E+00 -0.00000000000E+00 -0.58228531469E+03  0.58228531469E+03  0.00000000000E+00 0. -1.
          5    1    1    2  502    0 -0.89774364476E+01 -0.25858481176E+02 -0.13099394810E+02  0.30632041367E+02  0.41800000000E+01 0. -1.
         -5    1    1    2    0  502  0.42656088141E+02  0.10214614795E+03 -0.22566505212E+03  0.25138728199E+03  0.41800000000E+01 0.  1.
        -11    1    1    2    0    0  0.64033294278E+01 -0.82731465448E+02 -0.21346480798E+03  0.22902559300E+03  0.00000000000E+00 0. -1.
         11    1    1    2    0    0 -0.40081981121E+02  0.64437986713E+01 -0.96554546128E+02  0.10474191200E+03  0.00000000000E+00 0.  1.
</event>
<event>
 6    1  0.6981059E-006  0.7748098E+02  0.7561462E-02  0.1336356E+00
         -2   -1    0    0    0  501 -0.00000000000E+00  0.00000000000E+00  0.23301831386E+02  0.23301831386E+02  0.00000000000E+00 0.  1.
          2   -1    0    0  501    0  0.00000000000E+00 -0.00000000000E+00 -0.66624438131E+03  0.66624438131E+03  0.00000000000E+00 0. -1.
          5    1    1    2  502    0  0.22809393144E+02 -0.14502406058E+02 -0.24959923814E+03  0.25109328999E+03  0.41800000000E+01 0.  1.
         -5    1    1    2    0  502  0.21283886249E+02  0.15774152459E+02  0.48801060420E+01  0.27260145536E+02  0.41800000000E+01 0.  1.
        -11    1    1    2    0    0 -0.33266332926E+01  0.41541139693E+02 -0.20215461671E+03  0.20640547918E+03  0.00000000000E+00 0. -1.
         11    1    1    2    0    0 -0.40766646100E+02 -0.42812886094E+02 -0.19606880111E+03  0.20478729800E+03  0.00000000000E+00 0.  1.
</event>
<event>
 6    1  0.6981059E-006  0.1205073E+03  0.7561462E-02  0.1242263E+00
         -1   -1    0    0    0  501 -0.00000000000E+00  0.00000000000E+00  0.11003516675E+03  0.11003516675E+03  0.00000000000E+00 0.  1.
          1   -1    0    0  501    0  0.00000000000E+00 -0.00000000000E+00 -0.32983551490E+03  0.32983551490E+03  0.00000000000E+00 0. -1.
          5    1    1    2  502    0  0.87512033187E+02  0.60731078655E+01 -0.50587465146E+02  0.10134990193E+03  0.41800000000E+01 0.  1.
         -5    1    1    2    0  502  0.24258255587E+02 -0.29650569179E+02  0.56198820170E+02  0.68142490453E+02  0.41800000000E+01 0.  1.
        -11    1    1    2    0    0 -0.49018668922E+02  0.15356298533E+02 -0.19473964636E+02  0.54935244662E+02  0.00000000000E+00 0.  1.
         11    1    1    2    0    0 -0.62751619853E+02  0.82211627803E+01 -0.20593773854E+03  0.21544304460E+03  0.00000000000E+00 0. -1.
</event>
<event>
 6    1  0.6981059E-006  0.1381075E+03  0.7561462E-02  0.1215898E+00
          1   -1    0    0  501    0  0.00000000000E+00  0.00000000000E+00  0.32858007135E+03  0.32858007135E+03  0.00000000000E+00 0. -1.
         -1   -1    0    0    0  501 -0.00000000000E+00 -0.00000000000E+00 -0.74652967269E+02  0.74652967269E+02  0.00000000000E+00 0.  1.
          5    1    1    2  502    0  0.11227363226E+03 -0.66063032228E+02  0.12691968168E+03  0.18192243052E+03  0.41800000000E+01 0. -1.
         -5    1    1    2    0  502 -0.44482366353E+01  0.32101385678E+02  0.70556394713E+01  0.33429630868E+02  0.41800000000E+01 0. -1.
        -11    1    1    2    0    0 -0.64712981086E+02  0.17319528987E+02  0.88769907890E+01  0.67576156823E+02  0.00000000000E+00 0.  1.
         11    1    1    2    0    0 -0.43112414543E+02  0.16642117563E+02  0.11107479214E+03  0.12030482041E+03  0.00000000000E+00 0. -1.
</event>
<event>
 6    1  0.6981059E-006  0.9660797E+02  0.7561462E-02  0.1287595E+00
          2   -1    0    0  501    0  0.00000000000E+00  0.00000000000E+00  0.14348386764E+03  0.14348386764E+03  0.00000000000E+00 0. -1.
         -2   -1    0    0    0  501 -0.00000000000E+00 -0.00000000000E+00 -0.99760545454E+02  0.99760545454E+02  0.00000000000E+00 0.  1.
          5    1    1    2  502    0  0.55922960338E+02  0.14021735832E+02 -0.37489132489E+02  0.68897706954E+02  0.41800000000E+01 0. -1.
         -5    1    1    2    0  502 -0.54381447914E+02 -0.19082621319E+02  0.11582490245E+02  0.58933138334E+02  0.41800000000E+01 0. -1.
        -11    1    1    2    0    0 -0.66827056254E+01  0.40889126399E+02  0.55281798099E+01  0.41798803622E+02  0.00000000000E+00 0.  1.
         11    1    1    2    0    0  0.51411932011E+01 -0.35828240912E+02  0.64101784620E+02  0.73614764184E+02  0.00000000000E+00 0. -1.
</event>
<event>
 6    1  0.6981059E-006  0.1003097E+03  0.7561462E-02  0.1279646E+00
          1   -1    0    0  501    0  0.00000000000E+00  0.00000000000E+00  0.11175739534E+03  0.11175739534E+03  0.00000000000E+00 0. -1.
         -1   -1    0    0    0  501 -0.00000000000E+00 -0.00000000000E+00 -0.17178195381E+03  0.17178195381E+03  0.00000000000E+00 0.  1.
          5    1    1    2  502    0  0.15487879562E+02  0.31974724240E+02  0.30538902721E+01  0.35903426707E+02  0.41800000000E+01 0.  1.
         -5    1    1    2    0  502 -0.79749532050E+02 -0.46587906382E+02 -0.96104704087E+02  0.13335669249E+03  0.41800000000E+01 0.  1.
        -11    1    1    2    0    0  0.43733657199E+02 -0.49766362635E+01 -0.24326520337E+02  0.50290946225E+02  0.00000000000E+00 0.  1.
         11    1    1    2    0    0  0.20527995289E+02  0.19589818406E+02  0.57352775680E+02  0.63988283724E+02  0.00000000000E+00 0. -1.
</event>
<event>
 6    1  0.6981059E-006  0.1727062E+03  0.7561462E-02  0.1175055E+00
          2   -1    0    0  501    0  0.00000000000E+00  0.00000000000E+00  0.11189340984E+04  0.11189340984E+04  0.00000000000E+00 0. -1.
         -2   -1    0    0    0  501 -0.00000000000E+00 -0.00000000000E+00 -0.36211113568E+02  0.36211113568E+02  0.00000000000E+00 0.  1.
          5    1    1    2  502    0  0.98971374459E+02 -0.20651109831E+02  0.33404874786E+03  0.34903845010E+03  0.41800000000E+01 0. -1.
         -5    1    1    2    0  502  0.49903812358E+02 -0.57227588136E+02  0.66300884946E+02  0.10088938039E+03  0.41800000000E+01 0.  1.
        -11    1    1    2    0    0 -0.13595906491E+03  0.68682685030E+02  0.66254414676E+03  0.67982859969E+03  0.00000000000E+00 0. -1.
         11    1    1    2    0    0 -0.12916121903E+02  0.91960129369E+01  0.19829205270E+02  0.25388781786E+02  0.00000000000E+00 0.  1.
</event>
<event>
 6    1  0.6981059E-006  0.2445361E+03  0.7561462E-02  0.1116807E+00
         -1   -1    0    0    0  501 -0.00000000000E+00  0.00000000000E+00  0.17264761555E+03  0.17264761555E+03  0.00000000000E+00 0.  1.
          1   -1    0    0  501    0  0.00000000000E+00 -0.00000000000E+00 -0.36506304182E+03  0.36506304182E+03  0.00000000000E+00 0. -1.
          5    1    1    2  502    0  0.26670773299E+02 -0.10654827762E+02 -0.86143731015E+01  0.30274334459E+02  0.41800000000E+01 0. -1.
         -5    1    1    2    0  502  0.39895376656E+02  0.21886319394E+03 -0.30242516504E+02  0.22455471704E+03  0.41800000000E+01 0. -1.
        -11    1    1    2    0    0  0.21506228045E+02 -0.18435106519E+02 -0.16770159131E+02  0.32918220401E+02  0.00000000000E+00 0.  1.
         11    1    1    2    0    0 -0.88072377999E+02 -0.18977325966E+03 -0.13678837753E+03  0.24996338547E+03  0.00000000000E+00 0. -1.
</event>
<event>
 6    1  0.6981059E-006  0.1439340E+03  0.7561462E-02  0.1208131E+00
         -1   -1    0    0    0  501 -0.00000000000E+00  0.00000000000E+00  0.54921168687E+03  0.54921168687E+03  0.00000000000E+00 0.  1.
          1   -1    0    0  501    0  0.00000000000E+00 -0.00000000000E+00 -0.49676422196E+02  0.49676422196E+02  0.00000000000E+00 0. -1.
          5    1    1    2  502    0 -0.29421466303E+02 -0.40891939161E+02  0.15790811929E+03  0.16580174880E+03  0.41800000000E+01 0. -1.
         -5    1    1    2    0  502  0.89902784155E+02 -0.66855472529E+02  0.13122968258E+03  0.17260030938E+03  0.41800000000E+01 0. -1.
        -11    1    1    2    0    0 -0.35849223308E+02  0.82395872650E+02  0.20615250631E+03  0.22488464265E+03  0.00000000000E+00 0.  1.
         11    1    1    2    0    0 -0.24632094544E+02  0.25351539040E+02  0.42449564953E+01  0.35601408244E+02  0.00000000000E+00 0. -1.
</event>
<event>
 6    1  0.6981059E-006  0.1130061E+03  0.7561462E-02  0.1255102E+00
          2   -1    0    0  501    0  0.00000000000E+00  0.00000000000E+00  0.68372401423E+03  0.68372401423E+03  0.00000000000E+00 0. -1.
         -2   -1    0    0    0  501 -0.00000000000E+00 -0.00000000000E+00 -0.24495358505E+02  0.24495358505E+02  0.00000000000E+00 0.  1.
          5    1    1    2  502    0  0.31764866018E+02 -0.25279986354E+02  0.15493907973E+03  0.16022382860E+03  0.41800000000E+01 0.  1.
         -5    1    1    2    0  502 -0.82004195644E+02  0.86459623470E+00  0.10193453637E+03  0.13089521663E+03  0.41800000000E+01 0.  1.
        -11    1    1    2    0    0 -0.11551756735E+02 -0.22640464795E+02  0.47795396063E+02  0.54133479610E+02  0.00000000000E+00 0.  1.
         11    1    1    2    0    0  0.61791086361E+02  0.47055854914E+02  0.35455964356E+03  0.36296684790E+03  0.00000000000E+00 0. -1.
</event>
<event>
 6    1  0.6981059E-006  0.1008692E+03  0.7561462E-02  0.1278479E+00
         -1   -1    0    0    0  501 -0.00000000000E+00  0.00000000000E+00  0.17881035223E+03  0.17881035223E+03  0.00000000000E+00 0.  1.
          1   -1    0    0  501    0  0.00000000000E+00 -0.00000000000E+00 -0.15603490365E+03  0.15603490365E+03  0.00000000000E+00 0. -1.
          5    1    1    2  502    0  0.29825496841E+02  0.10391201328E+00 -0.30941758660E+02  0.43179114031E+02  0.41800000000E+01 0. -1.
         -5    1    1    2    0  502  0.66884683119E+01 -0.79385001808E+02  0.12367143750E+03  0.14716932756E+03  0.41800000000E+01 0.  1.
        -11    1    1    2    0    0 -0.36788337107E+02  0.47581597336E+02  0.76863226531E+01  0.60633899001E+02  0.00000000000E+00 0. -1.
         11    1    1    2    0    0  0.27437195412E+00  0.31699492458E+02 -0.77640552922E+02  0.83862915285E+02  0.00000000000E+00 0.  1.
</event>
<event>
 6    1  0.6981059E-006  0.1501150E+03  0.7561462E-02  0.1200332E+00
          2   -1    0    0  501    0  0.00000000000E+00  0.00000000000E+00  0.18347005330E+03  0.18347005330E+03  0.00000000000E+00 0. -1.
         -2   -1    0    0    0  501 -0.00000000000E+00 -0.00000000000E+00 -0.15256542035E+03  0.15256542035E+03  0.00000000000E+00 0.  1.
          5    1    1    2  502    0 -0.39014341856E+02 -0.18619384031E+02  0.35737726171E+02  0.56244624668E+02  0.41800000000E+01 0.  1.
         -5    1    1    2    0  502  0.12778894115E+02  0.76127362665E+02 -0.32711340164E+02  0.83941525221E+02  0.41800000000E+01 0.  1.
        -11    1    1    2    0    0  0.95977064304E+02 -0.13233800631E+02  0.51778510113E+02  0.10985328607E+03  0.00000000000E+00 0. -1.
         11    1    1    2    0    0 -0.69741616562E+02 -0.44274178002E+02 -0.23900263168E+02  0.85996037688E+02  0.00000000000E+00 0.  1.
</event>
<event>
 6    1  0.6981059E-006  0.8923939E+02  0.7561462E-02  0.1304704E+00
         -2   -1    0    0    0  501 -0.00000000000E+00  0.00000000000E+00  0.11879558385E+03  0.11879558385E+03  0.00000000000E+00 0. -1.
          2   -1    0    0  501    0  0.00000000000E+00 -0.00000000000E+00 -0.78451552620E+02  0.78451552620E+02  0.00000000000E+00 0.  1.
          5    1    1    2  502    0  0.74024142532E+02  0.16045105732E+01 -0.47801181698E+00  0.74160967004E+02  0.41800000000E+01 0.  1.
         -5    1    1    2    0  502 -0.66889394273E+02  0.19224645807E+02  0.46887325898E+02  0.84021853124E+02  0.41800000000E+01 0. -1.
        -11    1    1    2    0    0 -0.10460141665E+02  0.27247506229E+01  0.60310261803E+01  0.12377887800E+02  0.00000000000E+00 0. -1.
         11    1    1    2    0    0  0.33253934060E+01 -0.23553907003E+02 -0.12096309028E+02  0.26686428546E+02  0.00000000000E+00 0.  1.
</event>
<event>
 6    1  0.6981059E-006  0.7599768E+02  0.7561462E-02  0.1340809E+00
         -2   -1    0    0    0  501 -0.00000000000E+00  0.00000000000E+00  0.77253444210E+02  0.77253444210E+02  0.00000000000E+00 0.  1.
          2   -1    0    0  501    0  0.00000000000E+00 -0.00000000000E+00 -0.22219765641E+03  0.22219765641E+03  0.00000000000E+00 0. -1.
          5    1    1    2  502    0  0.91720776585E+00 -0.27413707406E+02  0.52580280480E+02  0.59451752869E+02  0.41800000000E+01 0. -1.
         -5    1    1    2    0  502  0.72602118908E+00  0.35960239314E+02 -0.55140993146E+02  0.65967169436E+02  0.41800000000E+01 0. -1.
        -11    1    1    2    0    0  0.12642670760E+02 -0.46130992243E+02 -0.11720943446E+03  0.12659366925E+03  0.00000000000E+00 0. -1.
         11    1    1    2    0    0 -0.14285899715E+02  0.37584460336E+02 -0.25174065074E+02  0.47438509059E+02  0.00000000000E+00 0.  1.
</event>
<event>
 6    1  0.6981059E-006  0.1779755E+03  0.7561462E-02  0.1169777E+00
         -2   -1    0    0    0  501 -0.00000000000E+00  0.00000000000E+00  0.13668627942E+03  0.13668627942E+03  0.00000000000E+00 0.  1.
          2   -1    0    0  501    0  0.00000000000E+00 -0.00000000000E+00 -0.32041545472E+03  0.32041545472E+03  0.00000000000E+00 0. -1.
          5    1    1    2  502    0  0.20234278714E+02 -0.11618233237E+02  0.14997440729E+01  0.23751442291E+02  0.41800000000E+01 0.  1.
         -5    1    1    2    0  502 -0.94019335865E+02  0.14846580832E+03 -0.20185866265E+01  0.17579328442E+03  0.41800000000E+01 0.  1.
        -11    1    1    2    0    0  0.46068129888E+02 -0.66910108049E+02 -0.15896132356E+03  0.17851593077E+03  0.00000000000E+00 0. -1.
         11    1    1    2    0    0  0.27716927263E+02 -0.69937467032E+02 -0.24249009185E+02  0.79041076652E+02  0.00000000000E+00 0.  1.
</event>
<event>
 6    1  0.6981059E-006  0.1225268E+03  0.7561462E-02  0.1238986E+00
          2   -1    0    0  501    0  0.00000000000E+00  0.00000000000E+00  0.66141584466E+03  0.66141584466E+03  0.00000000000E+00 0. -1.
         -2   -1    0    0    0  501 -0.00000000000E+00 -0.00000000000E+00 -0.28381173724E+02  0.28381173724E+02  0.00000000000E+00 0.  1.
          5    1    1    2  502    0 -0.18955479839E+02 -0.89520447270E+02  0.11359409647E+03  0.14592570661E+03  0.41800000000E+01 0. -1.
         -5    1    1    2    0  502 -0.15889153134E+02  0.41659928662E+02  0.85880689978E+02  0.96855460117E+02  0.41800000000E+01 0. -1.
        -11    1    1    2    0    0  0.25351891844E+02  0.75396138969E+02  0.32849478762E+03  0.33798834549E+03  0.00000000000E+00 0.  1.
         11    1    1    2    0    0  0.94927411290E+01 -0.27535620360E+02  0.10506509686E+03  0.10902750617E+03  0.00000000000E+00 0. -1.
</event>
<event>
 6    1  0.6981059E-006  0.1881447E+03  0.7561462E-02  0.1160145E+00
         -1   -1    0    0    0  501 -0.00000000000E+00  0.00000000000E+00  0.58541296969E+03  0.58541296969E+03  0.00000000000E+00 0.  1.
          1   -1    0    0  501    0  0.00000000000E+00 -0.00000000000E+00 -0.72252657802E+02  0.72252657802E+02  0.00000000000E+00 0. -1.
          5    1    1    2  502    0  0.71230795150E+02 -0.91188843738E+02  0.19470265636E+03  0.22652997195E+03  0.41800000000E+01 0. -1.
         -5    1    1    2    0  502 -0.13051533818E+03  0.95716264426E+02  0.26317702827E+03  0.30899106360E+03  0.41800000000E+01 0.  1.
        -11    1    1    2    0    0 -0.15886158780E+01  0.29038989551E+02 -0.57444252577E+01  0.29644308663E+02  0.00000000000E+00 0.  1.
         11    1    1    2    0    0  0.60873158905E+02 -0.33566410240E+02  0.61025052515E+02  0.92500283274E+02  0.00000000000E+00 0. -1.
</event>
<event>
 6    1  0.6981059E-006  0.1001074E+03  0.7561462E-02  0.1280070E+00
         -1   -1    0    0    0  501 -0.00000000000E+00  0.00000000000E+00  0.58653473785E+02  0.58653473785E+02  0.00000000000E+00 0.  1.
          1   -1    0    0  501    0  0.00000000000E+00 -0.00000000000E+00 -0.31269908114E+03  0.31269908114E+03  0.00000000000E+00 0. -1.
          5    1    1    2  502    0  0.32080626883E+02  0.56756066377E+02 -0.75235224619E+02  0.99640499372E+02  0.41800000000E+01 0. -1.
         -5    1    1    2    0  502 -0.34871963631E+02 -0.91930968497E+01  0.24181743766E+02  0.43621050065E+02  0.41800000000E+01 0. -1.
        -11    1    1    2    0    0 -0.68550851460E+01  0.24722199380E+02 -0.25368332700E+02  0.36079518269E+02  0.00000000000E+00 0.  1.
         11    1    1    2    0    0  0.96464218947E+01 -0.72285168907E+02 -0.17762379380E+03  0.19201148722E+03  0.00000000000E+00 0. -1.
</event>
<event>
 6    1  0.1027996E-005  0.2042099E+03  0.7561462E-02  0.1146235E+00
          1   -1    0    0  501    0  0.00000000000E+00  0.00000000000E+00  0.27335155787E+03  0.27335155787E+03  0.00000000000E+00 0. -1.
         -1   -1    0    0    0  501 -0.00000000000E+00 -0.00000000000E+00 -0.16459635163E+03  0.16459635163E+03  0.00000000000E+00 0.  1.
          5    1    1    2  502    0  0.10232282031E+02 -0.11606462998E+02 -0.14932027090E+02  0.21905419693E+02  0.41800000000E+01 0.  1.
         -5    1    1    2    0  502 -0.14544248274E+03  0.12737148645E+03  0.35665296559E+02  0.19663798495E+03  0.41800000000E+01 0.  1.
        -11    1    1    2    0    0  0.59921606118E+02 -0.10776388500E+03  0.69173270362E+02  0.14138102816E+03  0.00000000000E+00 0. -1.
         11    1    1    2    0    0  0.75288594587E+02 -0.80011384502E+01  0.18848666406E+02  0.78023476702E+02  0.00000000000E+00 0.  1.
</event>
<event>
 6    1  0.6981059E-006  0.1244343E+03  0.7561462E-02  0.1235956E+00
         -2   -1    0    0    0  501 -0.00000000000E+00  0.00000000000E+00  0.37170769012E+02  0.37170769012E+02  0.00000000000E+00 0.  1.
          2   -1    0    0  501    0  0.00000000000E+00 -0.00000000000E+00 -0.63904188289E+03  0.63904188289E+03  0.00000000000E+00 0. -1.
          5    1    1    2  502    0  0.56993738449E+02  0.10483561283E+02 -0.37588587654E+02  0.69199462436E+02  0.41800000000E+01 0.  1.
         -5    1    1    2    0  502  0.86626568328E+01 -0.86552690844E+02 -0.19280390141E+03  0.21155903837E+03  0.41800000000E+01 0.  1.
        -11    1    1    2    0    0 -0.57499261455E+02  0.49438889604E+02 -0.35517859532E+03  0.36318342948E+03  0.00000000000E+00 0. -1.
         11    1    1    2    0    0 -0.81571338271E+01  0.26630239957E+02 -0.16300029490E+02  0.32270721619E+02  0.00000000000E+00 0.  1.
</event>
<event>
 6    1  0.6981059E-006  0.2032294E+03  0.7561462E-02  0.1147043E+00
         -1   -1    0    0    0  501 -0.00000000000E+00  0.00000000000E+00  0.44568790414E+02  0.44568790414E+02  0.00000000000E+00 0.  1.
          1   -1    0    0  501    0  0.00000000000E+00 -0.00000000000E+00 -0.10763345573E+04  0.10763345573E+04  0.00000000000E+00 0. -1.
          5    1    1    2  502    0 -0.36787103536E+02 -0.11607999991E+03 -0.17822938120E+03  0.21589590568E+03  0.41800000000E+01 0. -1.
         -5    1    1    2    0  502 -0.93938566695E+02 -0.70685496256E+01 -0.19937209382E+03  0.22054732577E+03  0.41800000000E+01 0. -1.
        -11    1    1    2    0    0  0.84300015244E+02  0.11592596791E+03 -0.57320789437E+03  0.59085752325E+03  0.00000000000E+00 0. -1.
         11    1    1    2    0    0  0.46425654987E+02  0.72225816211E+01 -0.80956397501E+02  0.93602593033E+02  0.00000000000E+00 0.  1.
</event>
<event>
 6    1  0.6981059E-006  0.1307057E+03  0.7561462E-02  0.1226412E+00
         -1   -1    0    0    0  501 -0.00000000000E+00  0.00000000000E+00  0.81089406084E+02  0.81089406084E+02  0.00000000000E+00 0.  1.
          1   -1    0    0  501    0  0.00000000000E+00 -0.00000000000E+00 -0.48139383632E+03  0.48139383632E+03  0.00000000000E+00 0. -1.
          5    1    1    2  502    0  0.42428351443E+02  0.64870260205E+02  0.29118216275E+02  0.82907530323E+02  0.41800000000E+01 0.  1.
         -5    1    1    2    0  502 -0.22262446605E+02  0.53454532396E+02 -0.77952226758E+02  0.97195810708E+02  0.41800000000E+01 0.  1.
        -11    1    1    2    0    0 -0.26013321504E+02 -0.43557497454E+02 -0.48220078380E+02  0.69993745714E+02  0.00000000000E+00 0.  1.
         11    1    1    2    0    0  0.58474166660E+01 -0.74767295147E+02 -0.30325034138E+03  0.31238615566E+03  0.00000000000E+00 0. -1.
</event>
<event>
 6    1  0.6981059E-006  0.7165072E+02  0.7561462E-02  0.1354568E+00
          3   -1    0    0  501    0  0.00000000000E+00  0.00000000000E+00  0.44312728083E+02  0.44312728083E+02  0.00000000000E+00 0. -1.
         -3   -1    0    0    0  501 -0.00000000000E+00 -0.00000000000E+00 -0.34208429760E+03  0.34208429760E+03  0.00000000000E+00 0.  1.
          5    1    1    2  502    0  0.25386941077E+02  0.76283492147E+01 -0.24601503755E+03  0.24747436148E+03  0.41800000000E+01 0.  1.
         -5    1    1    2    0  502  0.13589272159E+02  0.11499823523E+02  0.11672508782E+02  0.21694103350E+02  0.41800000000E+01 0.  1.
        -11    1    1    2    0    0 -0.15441955949E+02 -0.53969061206E+02 -0.30962000879E+02  0.64107402611E+02  0.00000000000E+00 0.  1.
         11    1    1    2    0    0 -0.23534257287E+02  0.34840888469E+02 -0.32467039873E+02  0.53121158247E+02  0.00000000000E+00 0. -1.
</event>
<event>
 6    1  0.6981059E-006  0.8295352E+02  0.7561462E-02  0.1320873E+00
          4   -1    0    0  501    0  0.00000000000E+00  0.00000000000E+00  0.10634427137E+03  0.10634427137E+03  0.00000000000E+00 0. -1.
         -4   -1    0    0    0  501 -0.00000000000E+00 -0.00000000000E+00 -0.11587455658E+03  0.11587455658E+03  0.00000000000E+00 0.  1.
          5    1    1    2  502    0  0.54540535119E+02 -0.26107821287E+02  0.15466374830E+02  0.62553732533E+02  0.41800000000E+01 0.  1.
         -5    1    1    2    0  502 -0.58110735610E+02  0.30954691263E+01 -0.29736153645E+02  0.65483973274E+02  0.41800000000E+01 0.  1.
        -11    1    1    2    0    0  0.85749677814E+01  0.33901004888E+02 -0.36908481080E+02  0.50843329755E+02  0.00000000000E+00 0.  1.
         11    1    1    2    0    0 -0.50047672909E+01 -0.10888652728E+02  0.41647974685E+02  0.43337792390E+02  0.00000000000E+00 0. -1.
</event>
<event>
 6    1  0.6981059E-006  0.1310789E+03  0.7561462E-02  0.1225864E+00
         -1   -1    0    0    0  501 -0.00000000000E+00  0.00000000000E+00  0.47659141122E+03  0.47659141122E+03  0.00000000000E+00 0.  1.
          1   -1    0    0  501    0  0.00000000000E+00 -0.00000000000E+00 -0.44083273943E+02  0.44083273943E+02  0.00000000000E+00 0. -1.
          5    1    1    2  502    0 -0.94431720747E+01  0.32190261427E+02  0.40906995838E+02  0.53068268656E+02  0.41800000000E+01 0. -1.
         -5    1    1    2    0  502 -0.19719833979E+02 -0.10622383357E+03  0.29114826235E+03  0.31057552662E+03  0.41800000000E+01 0. -1.
        -11    1    1    2    0    0  0.47591062687E+00  0.88225184734E+02  0.79628910885E+02  0.11884726821E+03  0.00000000000E+00 0. -1.
         11    1    1    2    0    0  0.28687095427E+02 -0.14191612590E+02  0.20823968203E+02  0.38183621668E+02  0.00000000000E+00 0.  1.
</event>
<event>
 6    1  0.6981059E-006  0.3993860E+03  0.7561462E-02  0.1043992E+00
         -2   -1    0    0    0  501 -0.00000000000E+00  0.00000000000E+00  0.64468589704E+03  0.64468589704E+03  0.00000000000E+00 0.  1.
          2   -1    0    0  501    0  0.00000000000E+00 -0.00000000000E+00 -0.25636477546E+03  0.25636477546E+03  0.00000000000E+00 0. -1.
          5    1    1    2  502    0 -0.13549069443E+02  0.56524863152E+02  0.13069993817E+02  0.59723819164E+02  0.41800000000E+01 0. -1.
         -5    1    1    2    0  502 -0.30329541244E+03  0.17230577662E+03  0.21454260209E+03  0.40954046000E+03  0.41800000000E+01 0. -1.
        -11    1    1    2    0    0  0.22656847232E+03 -0.17734006188E+03  0.75678524401E+02  0.29750631800E+03  0.00000000000E+00 0. -1.
         11    1    1    2    0    0  0.90276009565E+02 -0.51490577894E+02  0.85030001274E+02  0.13428007533E+03  0.00000000000E+00 0.  1.
</event>
<event>
 6    1  0.6981059E-006  0.1086477E+03  0.7561462E-02  0.1263095E+00
         -2   -1    0    0    0  501 -0.00000000000E+00  0.00000000000E+00  0.13859062877E+03  0.13859062877E+03  0.00000000000E+00 0.  1.
          2   -1    0    0  501    0  0.00000000000E+00 -0.00000000000E+00 -0.25427629165E+03  0.25427629165E+03  0.00000000000E+00 0. -1.
          5    1    1    2  502    0  0.57417792784E+01 -0.25192532821E+02 -0.26647772745E+02  0.37352482267E+02  0.41800000000E+01 0. -1.
         -5    1    1    2    0  502  0.70651355608E+02  0.48338940059E+02  0.98832001550E+02  0.13081859235E+03  0.41800000000E+01 0.  1.
        -11    1    1    2    0    0 -0.68179810505E+02 -0.45252617659E+02 -0.18321384778E+03  0.20065791782E+03  0.00000000000E+00 0. -1.
         11    1    1    2    0    0 -0.82133243819E+01  0.22106210420E+02 -0.46560439064E+01  0.24037927977E+02  0.00000000000E+00 0.  1.
</event>
<event>
 6    1  0.6981059E-006  0.1277202E+03  0.7561462E-02  0.1230878E+00
          2   -1    0    0  501    0  0.00000000000E+00  0.00000000000E+00  0.49366151789E+03  0.49366151789E+03  0.00000000000E+00 0. -1.
         -2   -1    0    0    0  501 -0.00000000000E+00 -0.00000000000E+00 -0.36294060472E+02  0.36294060472E+02  0.00000000000E+00 0.  1.
          5    1    1    2  502    0 -0.90121534058E+02  0.55831261463E+02  0.11971461450E+03  0.15996275186E+03  0.41800000000E+01 0. -1.
         -5    1    1    2    0  502  0.28664002200E+02 -0.12724387928E+02  0.90853997159E+02  0.96205281924E+02  0.41800000000E+01 0. -1.
        -11    1    1    2    0    0  0.72284237377E+02  0.99760651918E+00  0.13545841445E+03  0.15354148703E+03  0.00000000000E+00 0. -1.
         11    1    1    2    0    0 -0.10826705519E+02 -0.44104480054E+02  0.11134043131E+03  0.12024605755E+03  0.00000000000E+00 0.  1.
</event>
<event>
 6    1  0.6981059E-006  0.1676885E+03  0.7561462E-02  0.1180280E+00
          1   -1    0    0  501    0  0.00000000000E+00  0.00000000000E+00  0.19410923758E+03  0.19410923758E+03  0.00000000000E+00 0. -1.
         -1   -1    0    0    0  501 -0.00000000000E+00 -0.00000000000E+00 -0.19781559658E+03  0.19781559658E+03  0.00000000000E+00 0.  1.
          5    1    1    2  502    0  0.74611906235E+02  0.72218772494E+02 -0.79238930153E+02  0.13068576091E+03  0.41800000000E+01 0.  1.
         -5    1    1    2    0  502  0.43624014033E+02  0.33077383617E+02  0.48701045870E+02  0.73392316874E+02  0.41800000000E+01 0.  1.
        -11    1    1    2    0    0 -0.90962837405E+02 -0.28921085813E+02 -0.14957492513E+02  0.96614665427E+02  0.00000000000E+00 0.  1.
         11    1    1    2    0    0 -0.27273082863E+02 -0.76375070297E+02  0.41789017786E+02  0.91232090951E+02  0.00000000000E+00 0. -1.
</event>
<event>
 6    1  0.6981059E-006  0.9230993E+02  0.7561462E-02  0.1297352E+00
          1   -1    0    0  501    0  0.00000000000E+00  0.00000000000E+00  0.49392692814E+02  0.49392692814E+02  0.00000000000E+00 0. -1.
         -1   -1    0    0    0  501 -0.00000000000E+00 -0.00000000000E+00 -0.30120186097E+03  0.30120186097E+03  0.00000000000E+00 0.  1.
          5    1    1    2  502    0 -0.53299609903E+00 -0.44189590423E+02 -0.15921327547E+03  0.16528564206E+03  0.41800000000E+01 0. -1.
         -5    1    1    2    0  502 -0.45040228270E+02  0.38894275694E+02 -0.58445450988E+02  0.83514848893E+02  0.41800000000E+01 0.  1.
        -11    1    1    2    0    0 -0.15236509013E+02  0.12001083525E+02 -0.35664237160E+02  0.40596982953E+02  0.00000000000E+00 0.  1.
         11    1    1    2    0    0  0.60809733382E+02 -0.67057687957E+01  0.15137954571E+01  0.61197079880E+02  0.00000000000E+00 0. -1.
</event>
<event>
 6    1  0.6981059E-006  0.7986479E+02  0.7561462E-02  0.1329436E+00
          1   -1    0    0  501    0  0.00000000000E+00  0.00000000000E+00  0.84685876957E+02  0.84685876957E+02  0.00000000000E+00 0. -1.
         -1   -1    0    0    0  501 -0.00000000000E+00 -0.00000000000E+00 -0.16956455165E+03  0.16956455165E+03  0.00000000000E+00 0.  1.
          5    1    1    2  502    0  0.25562449385E+02  0.17449709312E+02  0.26858444083E+02  0.41191984562E+02  0.41800000000E+01 0. -1.
         -5    1    1    2    0  502 -0.58336199397E+02  0.21709665896E+02 -0.86128039787E+02  0.10634817061E+03  0.41800000000E+01 0. -1.
        -11    1    1    2    0    0  0.51307701491E+01 -0.38106190791E+02  0.27197416015E+02  0.47096772892E+02  0.00000000000E+00 0. -1.
         11    1    1    2    0    0  0.27642979863E+02 -0.10531844166E+01 -0.52806494999E+02  0.59613500545E+02  0.00000000000E+00 0.  1.
</event>
<event>
 6    1  0.6981059E-006  0.3104490E+03  0.7561462E-02  0.1080131E+00
         -2   -1    0    0    0  501 -0.00000000000E+00  0.00000000000E+00  0.11564400316E+03  0.11564400316E+03  0.00000000000E+00 0.  1.
          2   -1    0    0  501    0  0.00000000000E+00 -0.00000000000E+00 -0.10654345756E+04  0.10654345756E+04  0.00000000000E+00 0. -1.
          5    1    1    2  502    0  0.11655515929E+03  0.16289768131E+03 -0.89469322897E+02  0.21941511313E+03  0.41800000000E+01 0. -1.
         -5    1    1    2    0  502  0.11103688325E+02  0.10745030094E+03 -0.14375862396E+03  0.17986904522E+03  0.41800000000E+01 0. -1.
        -11    1    1    2    0    0 -0.10210127713E+03 -0.26799279248E+03 -0.64994450855E+03  0.71040317554E+03  0.00000000000E+00 0.  1.
         11    1    1    2    0    0 -0.25557570485E+02 -0.23551897688E+01 -0.66618116999E+02  0.71391244845E+02  0.00000000000E+00 0. -1.
</event>
<event>
 6    1  0.6981059E-006  0.8464196E+02  0.7561462E-02  0.1316372E+00
          1   -1    0    0  501    0  0.00000000000E+00  0.00000000000E+00  0.30358863680E+02  0.30358863680E+02  0.00000000000E+00 0. -1.
         -1   -1    0    0    0  501 -0.00000000000E+00 -0.00000000000E+00 -0.67181031642E+03  0.67181031642E+03  0.00000000000E+00 0.  1.
          5    1    1    2  502    0  0.15525265307E+02  0.11246939485E+02 -0.80113265391E+01  0.21193896847E+02  0.41800000000E+01 0. -1.
         -5    1    1    2    0  502 -0.51234184256E+02  0.31515155584E+02 -0.55346065864E+03  0.55673541268E+03  0.41800000000E+01 0. -1.
        -11    1    1    2    0    0 -0.20081184807E+02 -0.22131316654E+02 -0.48431063488E+02  0.56908848790E+02  0.00000000000E+00 0. -1.
         11    1    1    2    0    0  0.55790103756E+02 -0.20630778415E+02 -0.31548404075E+02  0.67331021786E+02  0.00000000000E+00 0.  1.
</event>
<event>
 6    1  0.6981059E-006  0.6896733E+02  0.7561462E-02  0.1363640E+00
          2   -1    0    0  501    0  0.00000000000E+00  0.00000000000E+00  0.40452976570E+02  0.40452976570E+02  0.00000000000E+00 0. -1.
         -2   -1    0    0    0  501 -0.00000000000E+00 -0.00000000000E+00 -0.31031437811E+03  0.31031437811E+03  0.00000000000E+00 0.  1.
          5    1    1    2  502    0 -0.38495692247E+02 -0.19882114916E+01  0.83124633382E+00  0.38781885939E+02  0.41800000000E+01 0. -1.
         -5    1    1    2    0  502  0.17492808652E+02  0.16542445752E+02 -0.17755373943E+03  0.17922737975E+03  0.41800000000E+01 0. -1.
        -11    1    1    2    0    0  0.43938118693E+02 -0.23831604487E+02 -0.95616746737E+02  0.10789377138E+03  0.00000000000E+00 0. -1.
         11    1    1    2    0    0 -0.22935235098E+02  0.92773702268E+01  0.24778382976E+01  0.24864317605E+02  0.00000000000E+00 0.  1.
</event>
<event>
 6    1  0.6981059E-006  0.1210247E+03  0.7561462E-02  0.1241416E+00
         -2   -1    0    0    0  501 -0.00000000000E+00  0.00000000000E+00  0.59910491944E+02  0.59910491944E+02  0.00000000000E+00 0.  1.
          2   -1    0    0  501    0  0.00000000000E+00 -0.00000000000E+00 -0.25095351793E+03  0.25095351793E+03  0.00000000000E+00 0. -1.
          5    1    1    2  502    0  0.28757815112E+02  0.76743210799E+02 -0.42147118355E+02  0.92251744262E+02  0.41800000000E+01 0. -1.
         -5    1    1    2    0  502 -0.45856083073E+02 -0.24639003898E+02 -0.51557119663E+02  0.73385760580E+02  0.41800000000E+01 0. -1.
        -11    1    1    2    0    0  0.40934509818E+02  0.92292322531E+01 -0.36821052639E+02  0.55826541532E+02  0.00000000000E+00 0.  1.
         11    1    1    2    0    0 -0.23836241857E+02 -0.61333439154E+02 -0.60517735328E+02  0.89399963499E+02  0.00000000000E+00 0. -1.
</event>
<event>
 6    1  0.6981059E-006  0.1113696E+03  0.7561462E-02  0.1258054E+00
          3   -1    0    0  501    0  0.00000000000E+00  0.00000000000E+00  0.22652747646E+03  0.22652747646E+03  0.00000000000E+00 0. -1.
         -3   -1    0    0    0  501 -0.00000000000E+00 -0.00000000000E+00 -0.78633936013E+02  0.78633936013E+02  0.00000000000E+00 0.  1.
          5    1    1    2  502    0 -0.40158147102E+02 -0.68625750311E+02  0.32515708817E+02  0.86005314395E+02  0.41800000000E+01 0.  1.
         -5    1    1    2    0  502  0.46025894861E+02  0.14091360249E+02 -0.17500349267E+02  0.51387586593E+02  0.41800000000E+01 0.  1.
        -11    1    1    2    0    0  0.35275782717E+02  0.17207239297E+02  0.25308709354E+02  0.46701185207E+02  0.00000000000E+00 0.  1.
         11    1    1    2    0    0 -0.41143530476E+02  0.37327150764E+02  0.10756947155E+03  0.12106732628E+03  0.00000000000E+00 0. -1.
</event>
<event>
 6    1  0.9148210E-006  0.1845254E+03  0.7561462E-02  0.1163494E+00
         -2   -1    0    0    0  501 -0.00000000000E+00  0.00000000000E+00  0.22689134246E+02  0.22689134246E+02  0.00000000000E+00 0.  1.
          2   -1    0    0  501    0  0.00000000000E+00 -0.00000000000E+00 -0.18571817943E+04  0.18571817943E+04  0.00000000000E+00 0. -1.
          5    1    1    2  502    0  0.12976821061E+03 -0.55735258283E+02 -0.39800676655E+03  0.42234235653E+03  0.41800000000E+01 0.  1.
         -5    1    1    2    0  502  0.29238088354E+02 -0.12886609445E+02 -0.48774161846E+03  0.48880496038E+03  0.41800000000E+01 0.  1.
        -11    1    1    2    0    0 -0.91816662693E+02 -0.97151530077E+01 -0.42644931145E+03  0.43632980529E+03  0.00000000000E+00 0. -1.
         11    1    1    2    0    0 -0.67189636272E+02  0.78337020736E+02 -0.52229496358E+03  0.53239380633E+03  0.00000000000E+00 0.  1.
</event>
<event>
 6    1  0.6981059E-006  0.2321765E+03  0.7561462E-02  0.1125117E+00
          1   -1    0    0  501    0  0.00000000000E+00  0.00000000000E+00  0.43428240914E+02  0.43428240914E+02  0.00000000000E+00 0. -1.
         -1   -1    0    0    0  501 -0.00000000000E+00 -0.00000000000E+00 -0.17656982989E+04  0.17656982989E+04  0.00000000000E+00 0.  1.
          5    1    1    2  502    0  0.27748105868E+01  0.57688570272E+01 -0.25211723575E+00  0.76495260176E+01  0.41800000000E+01 0.  1.
         -5    1    1    2    0  502  0.66624615707E+02  0.21462963303E+03 -0.12267650910E+04  0.12471867461E+04  0.41800000000E+01 0.  1.
        -11    1    1    2    0    0 -0.55331857383E+02 -0.14422862643E+03 -0.41470276991E+03  0.44254027895E+03  0.00000000000E+00 0.  1.
         11    1    1    2    0    0 -0.14067568911E+02 -0.76169863627E+02 -0.80550079854E+02  0.11174998875E+03  0.00000000000E+00 0. -1.
</event>
<event>
 6    1  0.6981059E-006  0.1502302E+03  0.7561462E-02  0.1200190E+00
          1   -1    0    0  501    0  0.00000000000E+00  0.00000000000E+00  0.40363517791E+02  0.40363517791E+02  0.00000000000E+00 0. -1.
         -1   -1    0    0    0  501 -0.00000000000E+00 -0.00000000000E+00 -0.67745333831E+03  0.67745333831E+03  0.00000000000E+00 0.  1.
          5    1    1    2  502    0  0.10423735683E+03 -0.86763815695E+02 -0.43002508975E+03  0.45092398083E+03  0.41800000000E+01 0.  1.
         -5    1    1    2    0  502 -0.15256966239E+02  0.19894512573E+02 -0.34460008119E+02  0.42819752556E+02  0.41800000000E+01 0.  1.
        -11    1    1    2    0    0 -0.96562363619E+02  0.29126284691E+02 -0.10077254256E+03  0.14257536906E+03  0.00000000000E+00 0. -1.
         11    1    1    2    0    0  0.75819730317E+01  0.37743018431E+02 -0.71832180087E+02  0.81497753658E+02  0.00000000000E+00 0.  1.
</event>
<event>
 6    1  0.6981059E-006  0.1229639E+03  0.7561462E-02  0.1238286E+00
         -1   -1    0    0    0  501 -0.00000000000E+00  0.00000000000E+00  0.85262992015E+02  0.85262992015E+02  0.00000000000E+00 0.  1.
          1   -1    0    0  501    0  0.00000000000E+00 -0.00000000000E+00 -0.22450437960E+03  0.22450437960E+03  0.00000000000E+00 0. -1.
          5    1    1    2  502    0  0.93234275018E+02 -0.27548650474E+02  0.18071333574E+01  0.97325722766E+02  0.41800000000E+01 0. -1.
         -5    1    1    2    0  502 -0.40521494394E+02 -0.65088099104E+01 -0.12142248499E+02  0.43003054694E+02  0.41800000000E+01 0. -1.
        -11    1    1    2    0    0  0.18586690402E+02  0.30822458039E+02 -0.26864771093E+02  0.44913304327E+02  0.00000000000E+00 0.  1.
         11    1    1    2    0    0 -0.71299471025E+02  0.32350023452E+01 -0.10204150135E+03  0.12452528983E+03  0.00000000000E+00 0. -1.
</event>
<event>
 6    1  0.6981059E-006  0.1225540E+03  0.7561462E-02  0.1238942E+00
         -2   -1    0    0    0  501 -0.00000000000E+00  0.00000000000E+00  0.95230456824E+02  0.95230456824E+02  0.00000000000E+00 0. -1.
          2   -1    0    0  501    0  0.00000000000E+00 -0.00000000000E+00 -0.29339272569E+03  0.29339272569E+03  0.00000000000E+00 0.  1.
          5    1    1    2  502    0  0.63263858771E+02 -0.64875636803E+02  0.12789271753E+02  0.91608962166E+02  0.41800000000E+01 0. -1.
         -5    1    1    2    0  502 -0.50709181230E+02 -0.29155805872E+02 -0.31306586872E+02  0.66475987083E+02  0.41800000000E+01 0. -1.
        -11    1    1    2    0    0  0.22205693814E+01  0.28064692652E+02 -0.15661001043E+03  0.15912024783E+03  0.00000000000E+00 0.  1.
         11    1    1    2    0    0 -0.14775246922E+02  0.65966750024E+02 -0.23034943315E+02  0.71417985436E+02  0.00000000000E+00 0. -1.
</event>
<event>
 6    1  0.1083147E-005  0.2975122E+03  0.7561462E-02  0.1086491E+00
         -1   -1    0    0    0  501 -0.00000000000E+00  0.00000000000E+00  0.21375576850E+03  0.21375576850E+03  0.00000000000E+00 0.  1.
          1   -1    0    0  501    0  0.00000000000E+00 -0.00000000000E+00 -0.44024924865E+03  0.44024924865E+03  0.00000000000E+00 0. -1.
          5    1    1    2  502    0 -0.40699135273E+02  0.26994184272E+02  0.21948689553E+01  0.49065216256E+02  0.41800000000E+01 0.  1.
         -5    1    1    2    0  502  0.26168778626E+02  0.25856450631E+03 -0.91526189655E+02  0.27556292329E+03  0.41800000000E+01 0.  1.
        -11    1    1    2    0    0  0.33328940927E+01 -0.15936821225E+03 -0.12410732005E+03  0.20201970733E+03  0.00000000000E+00 0. -1.
         11    1    1    2    0    0  0.11197462555E+02 -0.12619047833E+03 -0.13054839395E+02  0.12735717028E+03  0.00000000000E+00 0.  1.
</event>
<event>
 6    1  0.6981059E-006  0.9152091E+02  0.7561462E-02  0.1299210E+00
         -1   -1    0    0    0  501 -0.00000000000E+00  0.00000000000E+00  0.46367035829E+02  0.46367035829E+02  0.00000000000E+00 0.  1.
          1   -1    0    0  501    0  0.00000000000E+00 -0.00000000000E+00 -0.32394082602E+03  0.32394082602E+03  0.00000000000E+00 0. -1.
          5    1    1    2  502    0 -0.49776648507E+02 -0.26641864793E+02  0.69704837283E+01  0.57040018755E+02  0.41800000000E+01 0. -1.
         -5    1    1    2    0  502  0.24283662615E+02  0.24523192652E+02 -0.86896782712E+02  0.93592769452E+02  0.41800000000E+01 0. -1.
        -11    1    1    2    0    0  0.88338268260E+01  0.44896767261E+02 -0.13087789770E+03  0.13864624162E+03  0.00000000000E+00 0. -1.
         11    1    1    2    0    0  0.16659159066E+02 -0.42778095120E+02 -0.66769593499E+02  0.81028832022E+02  0.00000000000E+00 0.  1.
</event>
<event>
 6    1  0.6981059E-006  0.1511887E+03  0.7561462E-02  0.1199020E+00
          2   -1    0    0  501    0  0.00000000000E+00  0.00000000000E+00  0.55048267363E+03  0.55048267363E+03  0.00000000000E+00 0.  1.
         -2   -1    0    0    0  501 -0.00000000000E+00 -0.00000000000E+00 -0.45295052872E+02  0.45295052872E+02  0.00000000000E+00 0. -1.
          5    1    1    2  502    0 -0.22326457671E+02 -0.73105286517E+02  0.71056396092E+02  0.10444777381E+03  0.41800000000E+01 0. -1.
         -5    1    1    2    0  502  0.75486827420E+02 -0.27954083300E+02  0.19425939749E+03  0.21031851512E+03  0.41800000000E+01 0. -1.
        -11    1    1    2    0    0 -0.20896341220E+02 -0.14373636822E+02  0.29612001739E+02  0.38988833772E+02  0.00000000000E+00 0.  1.
         11    1    1    2    0    0 -0.32264028529E+02  0.11543300664E+03  0.21025982544E+03  0.24202260380E+03  0.00000000000E+00 0. -1.
</event>
<event>
 6    1  0.6981059E-006  0.9136131E+02  0.7561462E-02  0.1299588E+00
          1   -1    0    0  501    0  0.00000000000E+00  0.00000000000E+00  0.25018750563E+02  0.25018750563E+02  0.00000000000E+00 0. -1.
         -1   -1    0    0    0  501 -0.00000000000E+00 -0.00000000000E+00 -0.71036930088E+03  0.71036930088E+03  0.00000000000E+00 0.  1.
          5    1    1    2  502    0 -0.60113426863E+02  0.71012924774E+01 -0.54306195967E+02  0.81429035144E+02  0.41800000000E+01 0. -1.
         -5    1    1    2    0  502 -0.58456131701E+01  0.33282439581E+02 -0.30383915717E+03  0.30574106333E+03  0.41800000000E+01 0. -1.
        -11    1    1    2    0    0  0.51345776445E+02 -0.73412366755E+01 -0.29590265824E+03  0.30041415691E+03  0.00000000000E+00 0.  1.
         11    1    1    2    0    0  0.14613263588E+02 -0.33042495383E+02 -0.31302538937E+02  0.47803796060E+02  0.00000000000E+00 0. -1.
</event>
<event>
 6    1  0.6981059E-006  0.2583844E+03  0.7561462E-02  0.1108118E+00
          2   -1    0    0  501    0  0.00000000000E+00  0.00000000000E+00  0.16345983984E+04  0.16345983984E+04  0.00000000000E+00 0. -1.
         -2   -1    0    0    0  501 -0.00000000000E+00 -0.00000000000E+00 -0.48983252565E+02  0.48983252565E+02  0.00000000000E+00 0.  1.
          5    1    1    2  502    0 -0.42547527396E+02  0.82134042376E+02  0.12516132518E+03  0.15568918628E+03  0.41800000000E+01 0.  1.
         -5    1    1    2    0  502  0.78339017213E+02  0.15134344994E+03  0.35654189169E+03  0.39519796860E+03  0.41800000000E+01 0.  1.
        -11    1    1    2    0    0  0.29551055148E+02 -0.11126303959E+03  0.50735213613E+03  0.52024890089E+03  0.00000000000E+00 0. -1.
         11    1    1    2    0    0 -0.65342544966E+02 -0.12221445273E+03  0.59655979280E+03  0.61244559516E+03  0.00000000000E+00 0.  1.
</event>
<event>
 6    1  0.6981059E-006  0.1090653E+03  0.7561462E-02  0.1262311E+00
          2   -1    0    0  501    0  0.00000000000E+00  0.00000000000E+00  0.12959321543E+03  0.12959321543E+03  0.00000000000E+00 0. -1.
         -2   -1    0    0    0  501 -0.00000000000E+00 -0.00000000000E+00 -0.16626530961E+03  0.16626530961E+03  0.00000000000E+00 0.  1.
          5    1    1    2  502    0  0.17416204047E+02  0.80277268478E+02  0.35281943124E+02  0.89498893335E+02  0.41800000000E+01 0.  1.
         -5    1    1    2    0  502  0.36684133968E+02  0.13686939817E+01 -0.61179531109E+02  0.71470318559E+02  0.41800000000E+01 0.  1.
        -11    1    1    2    0    0 -0.21875162558E+02 -0.45642392258E+02 -0.51122655437E+02  0.71939395375E+02  0.00000000000E+00 0.  1.
         11    1    1    2    0    0 -0.32225175457E+02 -0.36003570201E+02  0.40348149237E+02  0.62949917770E+02  0.00000000000E+00 0. -1.
</event>
<event>
 6    1  0.6981059E-006  0.1219186E+03  0.7561462E-02  0.1239965E+00
         -2   -1    0    0    0  501 -0.00000000000E+00  0.00000000000E+00  0.34283923229E+02  0.34283923229E+02  0.00000000000E+00 0. -1.
          2   -1    0    0  501    0  0.00000000000E+00 -0.00000000000E+00 -0.67205778230E+03  0.67205778230E+03  0.00000000000E+00 0.  1.
          5    1    1    2  502    0 -0.18442681797E+02 -0.92139354060E+01 -0.28212036088E+03  0.28290351631E+03  0.41800000000E+01 0.  1.
         -5    1    1    2    0  502  0.12081318411E+02 -0.78706120541E+02 -0.94660906861E+02  0.12376902421E+03  0.41800000000E+01 0.  1.
        -11    1    1    2    0    0 -0.16636961042E+02  0.10995906776E+03 -0.16891599841E+03  0.20223847205E+03  0.00000000000E+00 0. -1.
         11    1    1    2    0    0  0.22998324429E+02 -0.22039011818E+02 -0.92076592911E+02  0.97430692959E+02  0.00000000000E+00 0.  1.
</event>
<event>
 6    1  0.6981059E-006  0.1467630E+03  0.7561462E-02  0.1204508E+00
         -2   -1    0    0    0  501 -0.00000000000E+00  0.00000000000E+00  0.24604621958E+02  0.24604621958E+02  0.00000000000E+00 0.  1.
          2   -1    0    0  501    0  0.00000000000E+00 -0.00000000000E+00 -0.90319908938E+03  0.90319908938E+03  0.00000000000E+00 0. -1.
          5    1    1    2  502    0  0.13141552029E+02  0.26584565914E+02 -0.68820028376E+02  0.75054035469E+02  0.41800000000E+01 0. -1.
         -5    1    1    2    0  502 -0.74181436357E+02 -0.10263205224E+03 -0.44564358562E+03  0.46330540839E+03  0.41800000000E+01 0. -1.
        -11    1    1    2    0    0  0.41879484414E+02  0.98692700591E+02 -0.26182876570E+03  0.28292833529E+03  0.00000000000E+00 0.  1.
         11    1    1    2    0    0  0.19160399914E+02 -0.22645214264E+02 -0.10230208773E+03  0.10651593218E+03  0.00000000000E+00 0. -1.
</event>
<event>
 6    1  0.6981059E-006  0.9411608E+02  0.7561462E-02  0.1293179E+00
         -2   -1    0    0    0  501 -0.00000000000E+00  0.00000000000E+00  0.22209452447E+03  0.22209452447E+03  0.00000000000E+00 0.  1.
          2   -1    0    0  501    0  0.00000000000E+00 -0.00000000000E+00 -0.70245651724E+02  0.70245651724E+02  0.00000000000E+00 0. -1.
          5    1    1    2  502    0 -0.47256168386E+02  0.55729721549E+02  0.11016120863E+03  0.13225699075E+03  0.41800000000E+01 0. -1.
         -5    1    1    2    0  502  0.35413173497E+02 -0.39424621601E+02  0.66255663638E+02  0.84945152950E+02  0.41800000000E+01 0. -1.
        -11    1    1    2    0    0 -0.12263600696E+02  0.16882678389E+02  0.84184883529E+01  0.22500926153E+02  0.00000000000E+00 0.  1.
         11    1    1    2    0    0  0.24106595584E+02 -0.33187778336E+02 -0.32986487878E+02  0.52637106342E+02  0.00000000000E+00 0. -1.
</event>
<event>
 6    1  0.6981059E-006  0.9448703E+02  0.7561462E-02  0.1292336E+00
         -1   -1    0    0    0  501 -0.00000000000E+00  0.00000000000E+00  0.18811109358E+02  0.18811109358E+02  0.00000000000E+00 0.  1.
          1   -1    0    0  501    0  0.00000000000E+00 -0.00000000000E+00 -0.72656126092E+03  0.72656126092E+03  0.00000000000E+00 0. -1.
          5    1    1    2  502    0 -0.12725420424E+02 -0.60968290418E+02 -0.81578426016E+02  0.10272088762E+03  0.41800000000E+01 0.  1.
         -5    1    1    2    0  502  0.29052595480E+02  0.23596968721E+02 -0.27102410468E+03  0.27362822946E+03  0.41800000000E+01 0.  1.
        -11    1    1    2    0    0 -0.18905395408E+02  0.61645946489E+02 -0.31869087139E+03  0.32514844026E+03  0.00000000000E+00 0. -1.
         11    1    1    2    0    0  0.25782203514E+01 -0.24274624792E+02 -0.36456749476E+02  0.43874812949E+02  0.00000000000E+00 0.  1.
</event>
<event>
 6    1  0.6981059E-006  0.1502679E+03  0.7561462E-02  0.1200144E+00
         -1   -1    0    0    0  501 -0.00000000000E+00  0.00000000000E+00  0.67612449527E+03  0.67612449527E+03  0.00000000000E+00 0.  1.
          1   -1    0    0  501    0  0.00000000000E+00 -0.00000000000E+00 -0.43222141098E+02  0.43222141098E+02  0.00000000000E+00 0. -1.
          5    1    1    2  502    0 -0.38842241889E+02 -0.14469734959E+03  0.24605160222E+03  0.28810572033E+03  0.41800000000E+01 0. -1.
         -5    1    1    2    0  502  0.97502379569E+01  0.21016984665E+02  0.14638869835E+02  0.27722728846E+02  0.41800000000E+01 0. -1.
        -11    1    1    2    0    0  0.22519210169E+02  0.10219560478E+03  0.36532658242E+03  0.38001916831E+03  0.00000000000E+00 0.  1.
         11    1    1    2    0    0  0.65727937630E+01  0.21484760142E+02  0.68852996992E+01  0.23499018876E+02  0.00000000000E+00 0. -1.
</event>
<event>
 6    1  0.7364917E-006  0.2618920E+03  0.7561462E-02  0.1106012E+00
          1   -1    0    0  501    0  0.00000000000E+00  0.00000000000E+00  0.14826454935E+03  0.14826454935E+03  0.00000000000E+00 0. -1.
         -1   -1    0    0    0  501 -0.00000000000E+00 -0.00000000000E+00 -0.49176743341E+03  0.49176743341E+03  0.00000000000E+00 0.  1.
          5    1    1    2  502    0 -0.14054691299E+03  0.48212012264E+02 -0.15188174871E+03  0.21251675432E+03  0.41800000000E+01 0. -1.
         -5    1    1    2    0  502 -0.59678420530E+02  0.96118842365E+02 -0.25141345263E+02  0.11597372709E+03  0.41800000000E+01 0. -1.
        -11    1    1    2    0    0  0.13027685670E+02 -0.51214140416E+02 -0.21174885889E+02  0.56929645747E+02  0.00000000000E+00 0. -1.
         11    1    1    2    0    0  0.18719764785E+03 -0.93116714213E+02 -0.14530490420E+03  0.25461185559E+03  0.00000000000E+00 0.  1.
</event>
<event>
 6    1  0.6981059E-006  0.1668890E+03  0.7561462E-02  0.1181132E+00
         -2   -1    0    0    0  501 -0.00000000000E+00  0.00000000000E+00  0.40775062400E+02  0.40775062400E+02  0.00000000000E+00 0.  1.
          2   -1    0    0  501    0  0.00000000000E+00 -0.00000000000E+00 -0.86534429570E+03  0.86534429570E+03  0.00000000000E+00 0. -1.
          5    1    1    2  502    0  0.71450741156E+02  0.29329120764E+02 -0.13606954869E+03  0.15651773132E+03  0.41800000000E+01 0. -1.
         -5    1    1    2    0  502 -0.15630808610E+03 -0.18550172927E+02 -0.25703576874E+03  0.30143189199E+03  0.41800000000E+01 0.  1.
        -11    1    1    2    0    0  0.58222603575E+02 -0.30593998122E+02 -0.38770123447E+03  0.39324052627E+03  0.00000000000E+00 0. -1.
         11    1    1    2    0    0  0.26634741374E+02  0.19815050285E+02 -0.43762681400E+02  0.54929208525E+02  0.00000000000E+00 0.  1.
</event>
<event>
 6    1  0.6981059E-006  0.1501816E+03  0.7561462E-02  0.1200250E+00
          1   -1    0    0  501    0  0.00000000000E+00  0.00000000000E+00  0.70407720310E+03  0.70407720310E+03  0.00000000000E+00 0. -1.
         -1   -1    0    0    0  501 -0.00000000000E+00 -0.00000000000E+00 -0.42837203146E+02  0.42837203146E+02  0.00000000000E+00 0.  1.
          5    1    1    2  502    0 -0.46505809790E+02 -0.10144572523E+03  0.23344934260E+03  0.25878580617E+03  0.41800000000E+01 0. -1.
         -5    1    1    2    0  502 -0.36727938161E+02  0.12894282976E+01  0.60782973014E+01  0.37483625291E+02  0.41800000000E+01 0.  1.
        -11    1    1    2    0    0  0.15257133939E+02  0.79069001600E+02  0.15590204437E+03  0.17547117880E+03  0.00000000000E+00 0.  1.
         11    1    1    2    0    0  0.67976614012E+02  0.21087295335E+02  0.26581031569E+03  0.27517379600E+03  0.00000000000E+00 0. -1.
</event>
<event>
 6    1  0.6981059E-006  0.6939198E+02  0.7561462E-02  0.1362173E+00
         -2   -1    0    0    0  501 -0.00000000000E+00  0.00000000000E+00  0.55009047666E+02  0.55009047666E+02  0.00000000000E+00 0.  1.
          2   -1    0    0  501    0  0.00000000000E+00 -0.00000000000E+00 -0.22060145808E+03  0.22060145808E+03  0.00000000000E+00 0. -1.
          5    1    1    2  502    0 -0.85451961267E+01 -0.12596803305E+02 -0.10604838649E+03  0.10721675479E+03  0.41800000000E+01 0.  1.
         -5    1    1    2    0  502  0.87207572828E+01  0.30268601510E+02  0.27094232118E+02  0.41758947054E+02  0.41800000000E+01 0.  1.
        -11    1    1    2    0    0  0.16948618423E+02  0.33346964728E+02 -0.25973821148E+02  0.45540258103E+02  0.00000000000E+00 0.  1.
         11    1    1    2    0    0 -0.17124179579E+02 -0.51018762933E+02 -0.60664434892E+02  0.81094545799E+02  0.00000000000E+00 0. -1.
</event>
<event>
 6    1  0.6981059E-006  0.6467465E+02  0.7561462E-02  0.1379200E+00
         -2   -1    0    0    0  501 -0.00000000000E+00  0.00000000000E+00  0.62523466902E+02  0.62523466902E+02  0.00000000000E+00 0.  1.
          2   -1    0    0  501    0  0.00000000000E+00 -0.00000000000E+00 -0.25548252421E+03  0.25548252421E+03  0.00000000000E+00 0. -1.
          5    1    1    2  502    0 -0.77850608822E+01  0.15990057566E+02 -0.14508454888E+03  0.14623025623E+03  0.41800000000E+01 0. -1.
         -5    1    1    2    0  502 -0.20159088506E+02  0.41127121056E+02  0.11601661230E+02  0.47433109523E+02  0.41800000000E+01 0. -1.
        -11    1    1    2    0    0  0.15315636932E+02 -0.45199000461E+02  0.13285149041E+02  0.49538001195E+02  0.00000000000E+00 0.  1.
         11    1    1    2    0    0  0.12628512456E+02 -0.11918178160E+02 -0.72761318702E+02  0.74804624167E+02  0.00000000000E+00 0. -1.
</event>
<event>
 6    1  0.6981059E-006  0.6559337E+02  0.7561462E-02  0.1375753E+00
          1   -1    0    0  501    0  0.00000000000E+00  0.00000000000E+00  0.48869396683E+02  0.48869396683E+02  0.00000000000E+00 0. -1.
         -1   -1    0    0    0  501 -0.00000000000E+00 -0.00000000000E+00 -0.27284140338E+03  0.27284140338E+03  0.00000000000E+00 0.  1.
          5    1    1    2  502    0 -0.46737404881E+02  0.14032629684E+02 -0.15498707880E+02  0.51371023514E+02  0.41800000000E+01 0.  1.
         -5    1    1    2    0  502  0.30152652656E+02 -0.17727155143E+02 -0.16609556585E+03  0.16978999937E+03  0.41800000000E+01 0.  1.
        -11    1    1    2    0    0 -0.94296778538E+01  0.15713912214E+02 -0.62761811384E+02  0.65382649301E+02  0.00000000000E+00 0.  1.
         11    1    1    2    0    0  0.26014430079E+02 -0.12019386755E+02  0.20384078415E+02  0.35167127877E+02  0.00000000000E+00 0. -1.
</event>
<event>
 6    1  0.6981059E-006  0.2389138E+03  0.7561462E-02  0.1120519E+00
         -2   -1    0    0    0  501 -0.00000000000E+00  0.00000000000E+00  0.56931799753E+02  0.56931799753E+02  0.00000000000E+00 0.  1.
          2   -1    0    0  501    0  0.00000000000E+00 -0.00000000000E+00 -0.14077124588E+04  0.14077124588E+04  0.00000000000E+00 0. -1.
          5    1    1    2  502    0  0.98198416304E+02 -0.57056506338E+02 -0.85057999028E+02  0.14195319468E+03  0.41800000000E+01 0. -1.
         -5    1    1    2    0  502  0.10382244669E+03 -0.69956744914E+02 -0.32905549171E+03  0.35209094794E+03  0.41800000000E+01 0. -1.
        -11    1    1    2    0    0 -0.80627297655E+02  0.57501313792E+02 -0.56224658346E+03  0.57090137749E+03  0.00000000000E+00 0.  1.
         11    1    1    2    0    0 -0.12139356534E+03  0.69511937461E+02 -0.37442058485E+03  0.39969873845E+03  0.00000000000E+00 0. -1.
</event>
<event>
 6    1  0.6981059E-006  0.1035366E+03  0.7561462E-02  0.1273030E+00
          4   -1    0    0  501    0  0.00000000000E+00  0.00000000000E+00  0.11963435344E+03  0.11963435344E+03  0.00000000000E+00 0. -1.
         -4   -1    0    0    0  501 -0.00000000000E+00 -0.00000000000E+00 -0.19499266261E+03  0.19499266261E+03  0.00000000000E+00 0.  1.
          5    1    1    2  502    0  0.45912289116E+02 -0.63607884216E+02 -0.10816963954E+03  0.13368636634E+03  0.41800000000E+01 0. -1.
         -5    1    1    2    0  502 -0.53300025404E+02 -0.43190621513E+01 -0.17734288190E+02  0.56493578250E+02  0.41800000000E+01 0. -1.
        -11    1    1    2    0    0  0.16024770361E+02  0.62845322402E+02  0.74324372989E+02  0.98642993837E+02  0.00000000000E+00 0. -1.
         11    1    1    2    0    0 -0.86370340738E+01  0.50816239653E+01 -0.23778754426E+02  0.25804077619E+02  0.00000000000E+00 0.  1.
</event>
<event>
 6    1  0.6981059E-006  0.9948697E+02  0.7561462E-02  0.1281378E+00
          1   -1    0    0  501    0  0.00000000000E+00  0.00000000000E+00  0.80739020142E+03  0.80739020142E+03  0.00000000000E+00 0. -1.
         -1   -1    0    0    0  501 -0.00000000000E+00 -0.00000000000E+00 -0.20781886612E+02  0.20781886612E+02  0.00000000000E+00 0.  1.
          5    1    1    2  502    0  0.93914443556E+01 -0.80974319721E+02  0.38107738283E+03  0.38972103328E+03  0.41800000000E+01 0. -1.
         -5    1    1    2    0  502  0.37489879053E+01  0.16942986916E+02  0.13270318994E+01  0.17898411372E+02  0.41800000000E+01 0. -1.
        -11    1    1    2    0    0 -0.33064881493E+02  0.66066197540E+00  0.48522023601E+02  0.58720606577E+02  0.00000000000E+00 0.  1.
         11    1    1    2    0    0  0.19924449232E+02  0.63370670829E+02  0.35568187648E+03  0.36183203680E+03  0.00000000000E+00 0. -1.
</event>
<event>
 6    1  0.6981059E-006  0.1197330E+03  0.7561462E-02  0.1243538E+00
          1   -1    0    0  501    0  0.00000000000E+00  0.00000000000E+00  0.48063208103E+02  0.48063208103E+02  0.00000000000E+00 0. -1.
         -1   -1    0    0    0  501 -0.00000000000E+00 -0.00000000000E+00 -0.42495117892E+03  0.42495117892E+03  0.00000000000E+00 0.  1.
          5    1    1    2  502    0  0.11588132595E+02  0.41920945645E+02 -0.56552851909E+02  0.71465711778E+02  0.41800000000E+01 0.  1.
         -5    1    1    2    0  502 -0.86400074883E+02 -0.44618260610E+02 -0.23980890045E+03  0.25880792734E+03  0.41800000000E+01 0.  1.
        -11    1    1    2    0    0  0.60052087134E+02 -0.26566935310E+02 -0.11964113594E+02  0.66747248895E+02  0.00000000000E+00 0. -1.
         11    1    1    2    0    0  0.14759855153E+02  0.29264250275E+02 -0.68562104867E+02  0.75993499012E+02  0.00000000000E+00 0.  1.
</event>
<event>
 6    1  0.6981059E-006  0.1044858E+03  0.7561462E-02  0.1271136E+00
          2   -1    0    0  501    0  0.00000000000E+00  0.00000000000E+00  0.49935806695E+02  0.49935806695E+02  0.00000000000E+00 0. -1.
         -2   -1    0    0    0  501 -0.00000000000E+00 -0.00000000000E+00 -0.59502875648E+03  0.59502875648E+03  0.00000000000E+00 0.  1.
          5    1    1    2  502    0  0.39405118908E+02  0.17063331344E+02 -0.98222658498E+02  0.10728039763E+03  0.41800000000E+01 0. -1.
         -5    1    1    2    0  502 -0.57284413874E+02 -0.38556089603E+02 -0.43478134206E+03  0.44025034233E+03  0.41800000000E+01 0.  1.
        -11    1    1    2    0    0 -0.29403015244E+02  0.36660027066E+02 -0.46472862018E+01  0.47223851590E+02  0.00000000000E+00 0.  1.
         11    1    1    2    0    0  0.47282310211E+02 -0.15167268807E+02 -0.74416630224E+01  0.50209971624E+02  0.00000000000E+00 0. -1.
</event>
<event>
 6    1  0.6981059E-006  0.7909482E+02  0.7561462E-02  0.1331640E+00
          1   -1    0    0  501    0  0.00000000000E+00  0.00000000000E+00  0.64325884993E+02  0.64325884993E+02  0.00000000000E+00 0. -1.
         -1   -1    0    0    0  501 -0.00000000000E+00 -0.00000000000E+00 -0.25725637188E+03  0.25725637188E+03  0.00000000000E+00 0.  1.
          5    1    1    2  502    0 -0.39291150608E+01  0.59640659030E+02 -0.63732949744E+02  0.87474610247E+02  0.41800000000E+01 0.  1.
         -5    1    1    2    0  502 -0.17164782813E+02 -0.60502324126E+02 -0.12400496105E+03  0.13910378772E+03  0.41800000000E+01 0.  1.
        -11    1    1    2    0    0  0.71007778453E+01 -0.13462370616E+02  0.41497583071E+02  0.44200745122E+02  0.00000000000E+00 0. -1.
         11    1    1    2    0    0  0.13993120029E+02  0.14324035712E+02 -0.46690159165E+02  0.50803113783E+02  0.00000000000E+00 0.  1.
</event>
<event>
 6    1  0.6981059E-006  0.1085915E+03  0.7561462E-02  0.1263201E+00
          1   -1    0    0  501    0  0.00000000000E+00  0.00000000000E+00  0.10295840915E+04  0.10295840915E+04  0.00000000000E+00 0. -1.
         -1   -1    0    0    0  501 -0.00000000000E+00 -0.00000000000E+00 -0.15231503280E+02  0.15231503280E+02  0.00000000000E+00 0.  1.
          5    1    1    2  502    0 -0.22611587176E+02  0.70084514638E+01  0.35229093530E+03  0.35311014961E+03  0.41800000000E+01 0. -1.
         -5    1    1    2    0  502  0.73118153659E+02 -0.46289416254E+02  0.22686204757E+03  0.24284323232E+03  0.41800000000E+01 0. -1.
        -11    1    1    2    0    0 -0.70458716917E+02  0.10135915565E+02  0.23406484070E+03  0.24464978485E+03  0.00000000000E+00 0.  1.
         11    1    1    2    0    0  0.19952150434E+02  0.29145049226E+02  0.20113476465E+03  0.20421242800E+03  0.00000000000E+00 0. -1.
</event>
<event>
 6    1  0.6981059E-006  0.2645270E+03  0.7561462E-02  0.1104453E+00
          2   -1    0    0  501    0  0.00000000000E+00  0.00000000000E+00  0.68951724174E+03  0.68951724174E+03  0.00000000000E+00 0. -1.
         -2   -1    0    0    0  501 -0.00000000000E+00 -0.00000000000E+00 -0.12217972064E+03  0.12217972064E+03  0.00000000000E+00 0.  1.
          5    1    1    2  502    0 -0.22515133871E+03  0.26220564387E+02  0.10028022784E+03  0.24789965675E+03  0.41800000000E+01 0.  1.
         -5    1    1    2    0  502 -0.22048265642E+02  0.38341321842E+02  0.72204139707E+02  0.84776725399E+02  0.41800000000E+01 0.  1.
        -11    1    1    2    0    0  0.11295203572E+03 -0.47712540297E+02  0.11467555598E+03  0.16788428162E+03  0.00000000000E+00 0.  1.
         11    1    1    2    0    0  0.13424756863E+03 -0.16849345932E+02  0.28017759757E+03  0.31113629862E+03  0.00000000000E+00 0. -1.
</event>
<event>
 6    1  0.6981059E-006  0.1012611E+03  0.7561462E-02  0.1277666E+00
         -4   -1    0    0    0  501 -0.00000000000E+00  0.00000000000E+00  0.79499448481E+02  0.79499448481E+02  0.00000000000E+00 0. -1.
          4   -1    0    0  501    0  0.00000000000E+00 -0.00000000000E+00 -0.17141779017E+03  0.17141779017E+03  0.00000000000E+00 0.  1.
          5    1    1    2  502    0  0.78021006785E+02 -0.29008157409E+02 -0.72221664270E+01  0.83656337380E+02  0.41800000000E+01 0. -1.
         -5    1    1    2    0  502 -0.35800407656E+02  0.11410395187E+02 -0.46572233639E+02  0.59985928790E+02  0.41800000000E+01 0. -1.
        -11    1    1    2    0    0 -0.13334680696E+02  0.41681632988E+02 -0.51294829785E+02  0.67426491830E+02  0.00000000000E+00 0.  1.
         11    1    1    2    0    0 -0.28885918433E+02 -0.24083870766E+02  0.13170888166E+02  0.39848480647E+02  0.00000000000E+00 0. -1.
</event>
<event>
 6    1  0.6981059E-006  0.1285591E+03  0.7561462E-02  0.1229610E+00
         -2   -1    0    0    0  501 -0.00000000000E+00  0.00000000000E+00  0.69139496600E+02  0.69139496600E+02  0.00000000000E+00 0. -1.
          2   -1    0    0  501    0  0.00000000000E+00 -0.00000000000E+00 -0.48558208095E+03  0.48558208095E+03  0.00000000000E+00 0.  1.
          5    1    1    2  502    0  0.95877083848E+02  0.52215837789E+02 -0.82370365911E+01  0.10956381745E+03  0.41800000000E+01 0.  1.
         -5    1    1    2    0  502 -0.28563065687E+02 -0.17709635263E+02 -0.19965830163E+02  0.39313950154E+02  0.41800000000E+01 0.  1.
        -11    1    1    2    0    0 -0.41829369448E+01  0.26130381265E+02 -0.14353271833E+03  0.14595182430E+03  0.00000000000E+00 0.  1.
         11    1    1    2    0    0 -0.63131081215E+02 -0.60636583792E+02 -0.24470699927E+03  0.25989198564E+03  0.00000000000E+00 0. -1.
</event>
<event>
 6    1  0.6981059E-006  0.1590768E+03  0.7561462E-02  0.1189743E+00
         -1   -1    0    0    0  501 -0.00000000000E+00  0.00000000000E+00  0.25870746061E+02  0.25870746061E+02  0.00000000000E+00 0.  1.
          1   -1    0    0  501    0  0.00000000000E+00 -0.00000000000E+00 -0.10953665398E+04  0.10953665398E+04  0.00000000000E+00 0. -1.
          5    1    1    2  502    0 -0.52252123626E+02  0.12888852892E+03 -0.37781061142E+03  0.40261752050E+03  0.41800000000E+01 0. -1.
         -5    1    1    2    0  502  0.46986422695E+02 -0.25206470990E+02 -0.13615760036E+03  0.14628552435E+03  0.41800000000E+01 0.  1.
        -11    1    1    2    0    0 -0.31509559213E+02 -0.64541602235E+02 -0.42760682647E+03  0.43359666602E+03  0.00000000000E+00 0. -1.
         11    1    1    2    0    0  0.36775260144E+02 -0.39140455691E+02 -0.12792075545E+03  0.13873757496E+03  0.00000000000E+00 0.  1.
</event>
<event>
 6    1  0.6981059E-006  0.9277448E+02  0.7561462E-02  0.1296269E+00
         -1   -1    0    0    0  501 -0.00000000000E+00  0.00000000000E+00  0.45762724280E+02  0.45762724280E+02  0.00000000000E+00 0.  1.
          1   -1    0    0  501    0  0.00000000000E+00 -0.00000000000E+00 -0.36111127567E+03  0.36111127567E+03  0.00000000000E+00 0. -1.
          5    1    1    2  502    0  0.19418653418E+01 -0.46021031001E+02 -0.54324882761E+01  0.46569200812E+02  0.41800000000E+01 0. -1.
         -5    1    1    2    0  502  0.22455656078E+02  0.65702317416E+02 -0.57260911998E+02  0.90096256562E+02  0.41800000000E+01 0.  1.
        -11    1    1    2    0    0  0.75735111838E+01  0.18469762259E+02 -0.96766652860E+01  0.22183959083E+02  0.00000000000E+00 0.  1.
         11    1    1    2    0    0 -0.31971032603E+02 -0.38151048673E+02 -0.24297848583E+03  0.24802458349E+03  0.00000000000E+00 0. -1.
</event>
<event>
 6    1  0.6981059E-006  0.1216907E+03  0.7561462E-02  0.1240334E+00
         -2   -1    0    0    0  501 -0.00000000000E+00  0.00000000000E+00  0.60779168864E+03  0.60779168864E+03  0.00000000000E+00 0.  1.
          2   -1    0    0  501    0  0.00000000000E+00 -0.00000000000E+00 -0.25128582982E+02  0.25128582982E+02  0.00000000000E+00 0. -1.
          5    1    1    2  502    0 -0.28934468769E+02 -0.29167177767E+02  0.11350915965E+03  0.12078795249E+03  0.41800000000E+01 0.  1.
         -5    1    1    2    0  502  0.43286198437E+02  0.86232889000E+02  0.22363389221E+03  0.24359679034E+03  0.41800000000E+01 0.  1.
        -11    1    1    2    0    0 -0.46446307172E+02 -0.56851027910E+02  0.19819077071E+03  0.21135013702E+03  0.00000000000E+00 0.  1.
         11    1    1    2    0    0  0.32094577505E+02 -0.21468332326E+00  0.47329283088E+02  0.57185391769E+02  0.00000000000E+00 0. -1.
</event>
<event>
 6    1  0.6981059E-006  0.2613637E+03  0.7561462E-02  0.1106327E+00
         -2   -1    0    0    0  501 -0.00000000000E+00  0.00000000000E+00  0.31632810583E+03  0.31632810583E+03  0.00000000000E+00 0.  1.
          2   -1    0    0  501    0  0.00000000000E+00 -0.00000000000E+00 -0.22487361745E+03  0.22487361745E+03  0.00000000000E+00 0. -1.
          5    1    1    2  502    0  0.40039193816E+02  0.58966714247E+02 -0.26631721506E+01  0.71447710365E+02  0.41800000000E+01 0.  1.
         -5    1    1    2    0  502  0.15974314624E+03 -0.20418821957E+02  0.78065526767E+02  0.17901536228E+03  0.41800000000E+01 0.  1.
        -11    1    1    2    0    0 -0.92873387543E+02 -0.12290563985E+03  0.55011052032E+01  0.15414773621E+03  0.00000000000E+00 0.  1.
         11    1    1    2    0    0 -0.10690895251E+03  0.84357747563E+02  0.10551028564E+02  0.13659091443E+03  0.00000000000E+00 0. -1.
</event>
<event>
 6    1  0.6981059E-006  0.1943823E+03  0.7561462E-02  0.1154567E+00
         -1   -1    0    0    0  501 -0.00000000000E+00  0.00000000000E+00  0.26404662018E+03  0.26404662018E+03  0.00000000000E+00 0.  1.
          1   -1    0    0  501    0  0.00000000000E+00 -0.00000000000E+00 -0.25442425409E+03  0.25442425409E+03  0.00000000000E+00 0. -1.
          5    1    1    2  502    0 -0.10762578162E+03 -0.89804604947E+02  0.16769407567E+03  0.21860226750E+03  0.41800000000E+01 0. -1.
         -5    1    1    2    0  502 -0.20635143168E+02 -0.42329842068E+02 -0.16980586428E+02  0.50233827035E+02  0.41800000000E+01 0. -1.
        -11    1    1    2    0    0  0.53288183872E+02  0.11136414591E+03 -0.11164524186E+03  0.16645198576E+03  0.00000000000E+00 0.  1.
         11    1    1    2    0    0  0.74972740917E+02  0.20770301108E+02 -0.29445881292E+02  0.83182793977E+02  0.00000000000E+00 0. -1.
</event>
<event>
 6    1  0.6981059E-006  0.9086750E+02  0.7561462E-02  0.1300764E+00
         -3   -1    0    0    0  501 -0.00000000000E+00  0.00000000000E+00  0.51811088761E+02  0.51811088761E+02  0.00000000000E+00 0.  1.
          3   -1    0    0  501    0  0.00000000000E+00 -0.00000000000E+00 -0.48606855894E+03  0.48606855894E+03  0.00000000000E+00 0. -1.
          5    1    1    2  502    0  0.58628304049E+02 -0.62906556386E+02 -0.11564269293E+03  0.14417079350E+03  0.41800000000E+01 0. -1.
         -5    1    1    2    0  502  0.19700719132E+01  0.13141784182E+02  0.25302884509E+02  0.28884183203E+02  0.41800000000E+01 0. -1.
        -11    1    1    2    0    0 -0.68694811280E+01  0.18068023299E+02 -0.46656488991E+01  0.19884957041E+02  0.00000000000E+00 0.  1.
         11    1    1    2    0    0 -0.53728894834E+02  0.31696748905E+02 -0.33925201287E+03  0.34493971396E+03  0.00000000000E+00 0. -1.
</event>
<event>
 6    1  0.6981059E-006  0.1100028E+03  0.7561462E-02  0.1260565E+00
         -2   -1    0    0    0  501 -0.00000000000E+00  0.00000000000E+00  0.84643952247E+02  0.84643952247E+02  0.00000000000E+00 0.  1.
          2   -1    0    0  501    0  0.00000000000E+00 -0.00000000000E+00 -0.21099088370E+03  0.21099088370E+03  0.00000000000E+00 0. -1.
          5    1    1    2  502    0 -0.61701771467E+01 -0.30972813632E+02  0.34876320875E+02  0.47235753705E+02  0.41800000000E+01 0.  1.
         -5    1    1    2    0  502 -0.56902518712E+02  0.53705027182E+02 -0.55865697316E+02  0.96231882019E+02  0.41800000000E+01 0.  1.
        -11    1    1    2    0    0 -0.22170356199E+02 -0.45339822787E+01 -0.21535694577E+02  0.31238883307E+02  0.00000000000E+00 0.  1.
         11    1    1    2    0    0  0.85243052058E+02 -0.18198231271E+02 -0.83821860439E+02  0.12092831692E+03  0.00000000000E+00 0. -1.
</event>
<event>
 6    1  0.6981059E-006  0.1049472E+03  0.7561462E-02  0.1270224E+00
          2   -1    0    0  501    0  0.00000000000E+00  0.00000000000E+00  0.62820264072E+03  0.62820264072E+03  0.00000000000E+00 0. -1.
         -2   -1    0    0    0  501 -0.00000000000E+00 -0.00000000000E+00 -0.20725300221E+02  0.20725300221E+02  0.00000000000E+00 0.  1.
          5    1    1    2  502    0  0.43809504340E+02 -0.82536133137E+01  0.53404290714E+02  0.69691358646E+02  0.41800000000E+01 0. -1.
         -5    1    1    2    0  502 -0.51686184953E+02  0.42903193233E+02  0.28315852864E+03  0.29104702446E+03  0.41800000000E+01 0. -1.
        -11    1    1    2    0    0  0.17746882679E+02 -0.64227792396E+02  0.17108025271E+03  0.18359905781E+03  0.00000000000E+00 0.  1.
         11    1    1    2    0    0 -0.98702020660E+01  0.29578212476E+02  0.99834268433E+02  0.10459050003E+03  0.00000000000E+00 0. -1.
</event>
<event>
 6    1  0.6981059E-006  0.1683540E+03  0.7561462E-02  0.1179575E+00
         -4   -1    0    0    0  501 -0.00000000000E+00  0.00000000000E+00  0.17879582927E+03  0.17879582927E+03  0.00000000000E+00 0.  1.
          4   -1    0    0  501    0  0.00000000000E+00 -0.00000000000E+00 -0.18425161737E+03  0.18425161737E+03  0.00000000000E+00 0. -1.
          5    1    1    2  502    0  0.21749255647E+01  0.22109060246E+02 -0.13347723290E+02  0.26252142069E+02  0.41800000000E+01 0. -1.
         -5    1    1    2    0  502  0.85229371816E+02 -0.13012356278E+03  0.57157919180E+02  0.16577300002E+03  0.41800000000E+01 0. -1.
        -11    1    1    2    0    0 -0.45356727714E+01  0.64943505018E+02  0.69469866291E+00  0.65105405134E+02  0.00000000000E+00 0.  1.
         11    1    1    2    0    0 -0.82868624609E+02  0.43070997512E+02 -0.49960682660E+02  0.10591689942E+03  0.00000000000E+00 0. -1.
</event>
<event>
 6    1  0.6981059E-006  0.1007565E+03  0.7561462E-02  0.1278713E+00
         -3   -1    0    0    0  501 -0.00000000000E+00  0.00000000000E+00  0.93760821859E+02  0.93760821859E+02  0.00000000000E+00 0.  1.
          3   -1    0    0  501    0  0.00000000000E+00 -0.00000000000E+00 -0.14232728414E+03  0.14232728414E+03  0.00000000000E+00 0. -1.
          5    1    1    2  502    0 -0.42482362211E+02 -0.47085762771E+02  0.22216581002E+01  0.63594247534E+02  0.41800000000E+01 0.  1.
         -5    1    1    2    0  502  0.10717515471E+02  0.64645642156E+02 -0.14380733499E+02  0.67217572729E+02  0.41800000000E+01 0.  1.
        -11    1    1    2    0    0  0.27682961317E+02  0.20229814226E+02 -0.53545007614E+02  0.63581912296E+02  0.00000000000E+00 0. -1.
         11    1    1    2    0    0  0.40818854220E+01 -0.37789693610E+02  0.17137620734E+02  0.41694373436E+02  0.00000000000E+00 0.  1.
</event>
<event>
 6    1  0.6981059E-006  0.9997275E+02  0.7561462E-02  0.1280353E+00
         -2   -1    0    0    0  501 -0.00000000000E+00  0.00000000000E+00  0.97410973664E+02  0.97410973664E+02  0.00000000000E+00 0.  1.
          2   -1    0    0  501    0  0.00000000000E+00 -0.00000000000E+00 -0.14664530029E+03  0.14664530029E+03  0.00000000000E+00 0. -1.
          5    1    1    2  502    0 -0.16891182242E+02  0.40452008286E+02 -0.25549728396E+02  0.50911079669E+02  0.41800000000E+01 0. -1.
         -5    1    1    2    0  502  0.44080545103E+02 -0.50691694559E+02  0.40132449193E+02  0.78363436832E+02  0.41800000000E+01 0. -1.
        -11    1    1    2    0    0 -0.20998139606E+02  0.46919650769E+02 -0.57366416127E+02  0.77027794947E+02  0.00000000000E+00 0.  1.
         11    1    1    2    0    0 -0.61912232552E+01 -0.36679964496E+02 -0.64506312955E+01  0.37753962506E+02  0.00000000000E+00 0. -1.
</event>
<event>
 6    1  0.6981059E-006  0.9862628E+02  0.7561462E-02  0.1283211E+00
          2   -1    0    0  501    0  0.00000000000E+00  0.00000000000E+00  0.82107056426E+02  0.82107056426E+02  0.00000000000E+00 0. -1.
         -2   -1    0    0    0  501 -0.00000000000E+00 -0.00000000000E+00 -0.78883546505E+03  0.78883546505E+03  0.00000000000E+00 0.  1.
          5    1    1    2  502    0 -0.42668391803E+02 -0.58246449230E+02 -0.45877766713E+03  0.46444338812E+03  0.41800000000E+01 0. -1.
         -5    1    1    2    0  502  0.22376059473E+01  0.46376761431E+02 -0.29313805543E+03  0.29682183683E+03  0.41800000000E+01 0.  1.
        -11    1    1    2    0    0  0.20941483849E+02 -0.27390614919E+02 -0.12982746000E+02  0.36842139259E+02  0.00000000000E+00 0.  1.
         11    1    1    2    0    0  0.19489302006E+02  0.39260302719E+02  0.58170059931E+02  0.72835157271E+02  0.00000000000E+00 0. -1.
</event>
<event>
 6    1  0.6981059E-006  0.2876247E+03  0.7561462E-02  0.1091596E+00
         -1   -1    0    0    0  501 -0.00000000000E+00  0.00000000000E+00  0.10326293666E+03  0.10326293666E+03  0.00000000000E+00 0.  1.
          1   -1    0    0  501    0  0.00000000000E+00 -0.00000000000E+00 -0.11280057619E+04  0.11280057619E+04  0.00000000000E+00 0. -1.
          5    1    1    2  502    0 -0.91939282761E+02 -0.10095132334E+02 -0.10511209161E+03  0.14007415041E+03  0.41800000000E+01 0. -1.
         -5    1    1    2    0  502 -0.12402770428E+03 -0.16195109140E+03 -0.11161323197E+03  0.23256399847E+03  0.41800000000E+01 0. -1.
        -11    1    1    2    0    0  0.20073840086E+02  0.38522656478E+01 -0.17142409977E+02  0.26676979331E+02  0.00000000000E+00 0.  1.
         11    1    1    2    0    0  0.19589314696E+03  0.16819395808E+03 -0.79087509170E+03  0.83195357036E+03  0.00000000000E+00 0. -1.
</event>
<event>
 6    1  0.6981059E-006  0.8875680E+02  0.7561462E-02  0.1305891E+00
          1   -1    0    0  501    0  0.00000000000E+00  0.00000000000E+00  0.99038592164E+02  0.99038592164E+02  0.00000000000E+00 0. -1.
         -1   -1    0    0    0  501 -0.00000000000E+00 -0.00000000000E+00 -0.16399557647E+03  0.16399557647E+03  0.00000000000E+00 0.  1.
          5    1    1    2  502    0 -0.52955062508E+02 -0.15855270696E+02 -0.83503715557E+02  0.10022959227E+03  0.41800000000E+01 0. -1.
         -5    1    1    2    0  502  0.57792185989E+02  0.15879045993E+02 -0.23820809216E+02  0.64629592408E+02  0.41800000000E+01 0. -1.
        -11    1    1    2    0    0 -0.21178585835E+02  0.24590547250E+02 -0.13363216169E+02  0.35097051991E+02  0.00000000000E+00 0.  1.
         11    1    1    2    0    0  0.16341462354E+02 -0.24614322548E+02  0.55730756636E+02  0.63077931970E+02  0.00000000000E+00 0. -1.
</event>
<event>
 6    1  0.6981059E-006  0.1006270E+03  0.7561462E-02  0.1278983E+00
          3   -1    0    0  501    0  0.00000000000E+00  0.00000000000E+00  0.74622000456E+02  0.74622000456E+02  0.00000000000E+00 0. -1.
         -3   -1    0    0    0  501 -0.00000000000E+00 -0.00000000000E+00 -0.20457529976E+03  0.20457529976E+03  0.00000000000E+00 0.  1.
          5    1    1    2  502    0  0.71315747220E+02  0.16100943948E+02 -0.13022906255E+03  0.14940634970E+03  0.41800000000E+01 0. -1.
         -5    1    1    2    0  502 -0.27782553865E+02  0.13486837169E+02  0.91367247494E+01  0.32476410134E+02  0.41800000000E+01 0. -1.
        -11    1    1    2    0    0 -0.20315635865E+02 -0.57248222327E+02 -0.40274862825E+01  0.60879427281E+02  0.00000000000E+00 0.  1.
         11    1    1    2    0    0 -0.23217557490E+02  0.27660441211E+02 -0.48334752169E+01  0.36435113098E+02  0.00000000000E+00 0. -1.
</event>
<event>
 6    1  0.6981059E-006  0.1158824E+03  0.7561462E-02  0.1250049E+00
         -2   -1    0    0    0  501 -0.00000000000E+00  0.00000000000E+00  0.35344782843E+03  0.35344782843E+03  0.00000000000E+00 0.  1.
          2   -1    0    0  501    0  0.00000000000E+00 -0.00000000000E+00 -0.51029147260E+02  0.51029147260E+02  0.00000000000E+00 0. -1.
          5    1    1    2  502    0  0.35860378113E+02 -0.25248690295E+02  0.44529533867E+02  0.62640361321E+02  0.41800000000E+01 0. -1.
         -5    1    1    2    0  502 -0.28961346320E+02  0.77509277424E+02  0.21153767281E+03  0.22718298151E+03  0.41800000000E+01 0. -1.
        -11    1    1    2    0    0 -0.48043203179E+02 -0.17949478516E+02  0.22031197668E+02  0.55818516833E+02  0.00000000000E+00 0.  1.
         11    1    1    2    0    0  0.41144171387E+02 -0.34311108613E+02  0.24320276821E+02  0.58835116028E+02  0.00000000000E+00 0. -1.
</event>
<event>
 6    1  0.6981059E-006  0.1131879E+03  0.7561462E-02  0.1254778E+00
         -1   -1    0    0    0  501 -0.00000000000E+00  0.00000000000E+00  0.55017802519E+03  0.55017802519E+03  0.00000000000E+00 0.  1.
          1   -1    0    0  501    0  0.00000000000E+00 -0.00000000000E+00 -0.27108636238E+02  0.27108636238E+02  0.00000000000E+00 0. -1.
          5    1    1    2  502    0  0.33783571682E+02 -0.74998598149E+02  0.26203081339E+03  0.27467023684E+03  0.41800000000E+01 0. -1.
         -5    1    1    2    0  502  0.49451285416E+01  0.46718297551E+02  0.83143878707E+02  0.95589908404E+02  0.41800000000E+01 0. -1.
        -11    1    1    2    0    0  0.71491104228E+01  0.46822443022E+02  0.12917290862E+03  0.13758303410E+03  0.00000000000E+00 0.  1.
         11    1    1    2    0    0 -0.45877810647E+02 -0.18542142424E+02  0.48721788235E+02  0.69443482086E+02  0.00000000000E+00 0. -1.
</event>
<event>
 6    1  0.6981059E-006  0.1855872E+03  0.7561462E-02  0.1162503E+00
          2   -1    0    0  501    0  0.00000000000E+00  0.00000000000E+00  0.76811428297E+03  0.76811428297E+03  0.00000000000E+00 0. -1.
         -2   -1    0    0    0  501 -0.00000000000E+00 -0.00000000000E+00 -0.46485107740E+02  0.46485107740E+02  0.00000000000E+00 0.  1.
          5    1    1    2  502    0  0.10311503348E+03 -0.57821248281E+02  0.24406960084E+03  0.27122582719E+03  0.41800000000E+01 0. -1.
         -5    1    1    2    0  502 -0.25604181052E+02 -0.72494004414E+02  0.20507520296E+03  0.21905311235E+03  0.41800000000E+01 0. -1.
        -11    1    1    2    0    0 -0.37795409834E+02 -0.18895510210E+01  0.57935218315E+02  0.69199370870E+02  0.00000000000E+00 0. -1.
         11    1    1    2    0    0 -0.39715442599E+02  0.13220480372E+03  0.21454915312E+03  0.25512108030E+03  0.00000000000E+00 0.  1.
</event>
<event>
 6    1  0.6981059E-006  0.1538927E+03  0.7561462E-02  0.1195770E+00
         -2   -1    0    0    0  501 -0.00000000000E+00  0.00000000000E+00  0.88381324083E+02  0.88381324083E+02  0.00000000000E+00 0. -1.
          2   -1    0    0  501    0  0.00000000000E+00 -0.00000000000E+00 -0.35733948900E+03  0.35733948900E+03  0.00000000000E+00 0.  1.
          5    1    1    2  502    0 -0.11765599617E+03  0.10343052364E+02 -0.11830392376E+03  0.16722201693E+03  0.41800000000E+01 0.  1.
         -5    1    1    2    0  502 -0.10789463103E+02  0.34229422117E+02  0.20789924000E+02  0.41686438951E+02  0.41800000000E+01 0.  1.
        -11    1    1    2    0    0  0.90971596542E+02 -0.64029203643E+02 -0.15652486506E+03  0.19203021553E+03  0.00000000000E+00 0.  1.
         11    1    1    2    0    0  0.37473862731E+02  0.19456729162E+02 -0.14919300101E+02  0.44782141677E+02  0.00000000000E+00 0. -1.
</event>
<event>
 6    1  0.6981059E-006  0.1344776E+03  0.7561462E-02  0.1220959E+00
         -2   -1    0    0    0  501 -0.00000000000E+00  0.00000000000E+00  0.50694262264E+03  0.50694262264E+03  0.00000000000E+00 0.  1.
          2   -1    0    0  501    0  0.00000000000E+00 -0.00000000000E+00 -0.48555513996E+02  0.48555513996E+02  0.00000000000E+00 0. -1.
          5    1    1    2  502    0  0.64260835996E+01 -0.10333365973E+03  0.10692799360E+03  0.14889663528E+03  0.41800000000E+01 0. -1.
         -5    1    1    2    0  502 -0.47205709319E+02  0.54289551583E+02  0.22667396533E+03  0.23785351240E+03  0.41800000000E+01 0.  1.
        -11    1    1    2    0    0 -0.14701479489E+02 -0.52843147191E+01 -0.59283342398E+01  0.16709357500E+02  0.00000000000E+00 0. -1.
         11    1    1    2    0    0  0.55481105208E+02  0.54328422866E+02  0.13071348395E+03  0.15203863145E+03  0.00000000000E+00 0.  1.
</event>
<event>
 6    1  0.6981059E-006  0.4765212E+03  0.7561462E-02  0.1020096E+00
         -1   -1    0    0    0  501 -0.00000000000E+00  0.00000000000E+00  0.79404245838E+03  0.79404245838E+03  0.00000000000E+00 0.  1.
          1   -1    0    0  501    0  0.00000000000E+00 -0.00000000000E+00 -0.32953307052E+03  0.32953307052E+03  0.00000000000E+00 0. -1.
          5    1    1    2  502    0  0.10563563577E+03 -0.69307162128E+02  0.15504433509E+03  0.20004646588E+03  0.41800000000E+01 0.  1.
         -5    1    1    2    0  502  0.17266901706E+03 -0.30969811769E+03  0.26442526089E+03  0.44234116307E+03  0.41800000000E+01 0.  1.
        -11    1    1    2    0    0 -0.57277789067E+02  0.10861635689E+03 -0.24206806719E+02  0.12515681202E+03  0.00000000000E+00 0. -1.
         11    1    1    2    0    0 -0.22102686377E+03  0.27038892293E+03  0.69246598602E+02  0.35603108792E+03  0.00000000000E+00 0.  1.
</event>
<event>
 6    1  0.6981059E-006  0.1445973E+03  0.7561462E-02  0.1207273E+00
          2   -1    0    0  501    0  0.00000000000E+00  0.00000000000E+00  0.10775176802E+03  0.10775176802E+03  0.00000000000E+00 0. -1.
         -2   -1    0    0    0  501 -0.00000000000E+00 -0.00000000000E+00 -0.26726944833E+03  0.26726944833E+03  0.00000000000E+00 0.  1.
          5    1    1    2  502    0  0.40220790246E+02 -0.20039374107E+02  0.30805592462E+02  0.54641974796E+02  0.41800000000E+01 0.  1.
         -5    1    1    2    0  502  0.77455145311E+02 -0.34880762213E+02 -0.11856284267E+03  0.14591294381E+03  0.41800000000E+01 0.  1.
        -11    1    1    2    0    0 -0.14702382943E+02  0.54074379053E+02 -0.26244860553E+02  0.61878843231E+02  0.00000000000E+00 0.  1.
         11    1    1    2    0    0 -0.10297355261E+03  0.84575726707E+00 -0.45515569551E+02  0.11258745452E+03  0.00000000000E+00 0. -1.
</event>
<event>
 6    1  0.6981059E-006  0.1000557E+03  0.7561462E-02  0.1280179E+00
         -2   -1    0    0    0  501 -0.00000000000E+00  0.00000000000E+00  0.92879350279E+02  0.92879350279E+02  0.00000000000E+00 0. -1.
          2   -1    0    0  501    0  0.00000000000E+00 -0.00000000000E+00 -0.18503065071E+03  0.18503065071E+03  0.00000000000E+00 0.  1.
          5    1    1    2  502    0 -0.41503201374E+02 -0.44365087338E+02  0.29282892177E+02  0.67570236592E+02  0.41800000000E+01 0.  1.
         -5    1    1    2    0  502  0.23681116178E+02  0.55955260012E+02 -0.68168997646E+01  0.61284002063E+02  0.41800000000E+01 0.  1.
        -11    1    1    2    0    0 -0.15457879325E+02 -0.34570559338E+02 -0.98483239280E+02  0.10551311779E+03  0.00000000000E+00 0.  1.
         11    1    1    2    0    0  0.33279964521E+02  0.22980386663E+02 -0.16134053562E+02  0.43542644546E+02  0.00000000000E+00 0. -1.
</event>
<event>
 6    1  0.6981059E-006  0.1675468E+03  0.7561462E-02  0.1180431E+00
         -1   -1    0    0    0  501 -0.00000000000E+00  0.00000000000E+00  0.52134325282E+03  0.52134325282E+03  0.00000000000E+00 0.  1.
          1   -1    0    0  501    0  0.00000000000E+00 -0.00000000000E+00 -0.71683503916E+02  0.71683503916E+02  0.00000000000E+00 0. -1.
          5    1    1    2  502    0 -0.11484725110E+03 -0.89706711465E+01  0.16082232608E+03  0.19786777654E+03  0.41800000000E+01 0. -1.
         -5    1    1    2    0  502 -0.52989891900E+01 -0.68710932160E+02  0.17286883838E+03  0.18614612316E+03  0.41800000000E+01 0. -1.
        -11    1    1    2    0    0  0.24008546480E+02  0.41721361256E+02 -0.72109967967E+01  0.48673203757E+02  0.00000000000E+00 0. -1.
         11    1    1    2    0    0  0.96137693812E+02  0.35960242051E+02  0.12317958124E+03  0.16033965328E+03  0.00000000000E+00 0.  1.
</event>
<event>
 6    1  0.6981059E-006  0.3079807E+03  0.7561462E-02  0.1081318E+00
         -2   -1    0    0    0  501 -0.00000000000E+00  0.00000000000E+00  0.22919315408E+03  0.22919315408E+03  0.00000000000E+00 0.  1.
          2   -1    0    0  501    0  0.00000000000E+00 -0.00000000000E+00 -0.61210901953E+03  0.61210901953E+03  0.00000000000E+00 0. -1.
          5    1    1    2  502    0  0.52098431580E+01  0.10981063671E+02 -0.56989670190E+01  0.14059759961E+02  0.41800000000E+01 0. -1.
         -5    1    1    2    0  502  0.10765648512E+02 -0.30321423130E+03  0.40207684323E+02  0.30608642493E+03  0.41800000000E+01 0. -1.
        -11    1    1    2    0    0 -0.40537039999E+02  0.20890868943E+03 -0.35603100643E+03  0.41478207491E+03  0.00000000000E+00 0. -1.
         11    1    1    2    0    0  0.24561548329E+02  0.83324478198E+02 -0.61393576323E+02  0.10637391380E+03  0.00000000000E+00 0.  1.
</event>
<event>
 6    1  0.6981059E-006  0.1074904E+03  0.7561462E-02  0.1265289E+00
         -3   -1    0    0    0  501 -0.00000000000E+00  0.00000000000E+00  0.93584589769E+03  0.93584589769E+03  0.00000000000E+00 0.  1.
          3   -1    0    0  501    0  0.00000000000E+00 -0.00000000000E+00 -0.21156247310E+02  0.21156247310E+02  0.00000000000E+00 0. -1.
          5    1    1    2  502    0 -0.44643728093E+02 -0.10299126573E+02  0.58488859828E+02  0.74414740409E+02  0.41800000000E+01 0.  1.
         -5    1    1    2    0  502 -0.24204824444E+02  0.63666587596E+02  0.49504537168E+03  0.49972662559E+03  0.41800000000E+01 0.  1.
        -11    1    1    2    0    0  0.18876637843E+02 -0.46634650877E+02  0.63747908840E+02  0.81209075849E+02  0.00000000000E+00 0.  1.
         11    1    1    2    0    0  0.49971914694E+02 -0.67328101458E+01  0.29740751003E+03  0.30165170315E+03  0.00000000000E+00 0. -1.
</event>
<event>
 6    1  0.6981059E-006  0.9372299E+02  0.7561462E-02  0.1294078E+00
          3   -1    0    0  501    0  0.00000000000E+00  0.00000000000E+00  0.11414705014E+03  0.11414705014E+03  0.00000000000E+00 0. -1.
         -3   -1    0    0    0  501 -0.00000000000E+00 -0.00000000000E+00 -0.16970825649E+03  0.16970825649E+03  0.00000000000E+00 0.  1.
          5    1    1    2  502    0 -0.68772082819E+02 -0.44606467228E+02 -0.10503861434E+03  0.13330386040E+03  0.41800000000E+01 0.  1.
         -5    1    1    2    0  502  0.33736913815E+02  0.75941042711E+00  0.76615137781E+01  0.34855806565E+02  0.41800000000E+01 0.  1.
        -11    1    1    2    0    0  0.18886726802E+02 -0.53132975722E+01 -0.24622959089E+02  0.31483800512E+02  0.00000000000E+00 0.  1.
         11    1    1    2    0    0  0.16148442202E+02  0.49160354373E+02  0.66438853301E+02  0.84211839165E+02  0.00000000000E+00 0. -1.
</event>
<event>
 6    1  0.6981059E-006  0.6853048E+02  0.7561462E-02  0.1365163E+00
         -1   -1    0    0    0  501 -0.00000000000E+00  0.00000000000E+00  0.21545846108E+02  0.21545846108E+02  0.00000000000E+00 0.  1.
          1   -1    0    0  501    0  0.00000000000E+00 -0.00000000000E+00 -0.57880078288E+03  0.57880078288E+03  0.00000000000E+00 0. -1.
          5    1    1    2  502    0  0.23753607303E+02 -0.30189696647E+02 -0.15606857289E+02  0.41673709194E+02  0.41800000000E+01 0. -1.
         -5    1    1    2    0  502 -0.45987610595E+01 -0.15089475618E+02 -0.31205576630E+03  0.31248218279E+03  0.41800000000E+01 0. -1.
        -11    1    1    2    0    0 -0.14063154233E+02  0.62541587727E+02 -0.12954663148E+03  0.14453910277E+03  0.00000000000E+00 0.  1.
         11    1    1    2    0    0 -0.50916920100E+01 -0.17262415462E+02 -0.10004568170E+03  0.10165163424E+03  0.00000000000E+00 0. -1.
</event>
<event>
 6    1  0.6981059E-006  0.1570759E+03  0.7561462E-02  0.1192038E+00
          4   -1    0    0  501    0  0.00000000000E+00  0.00000000000E+00  0.52232284191E+03  0.52232284191E+03  0.00000000000E+00 0. -1.
         -4   -1    0    0    0  501 -0.00000000000E+00 -0.00000000000E+00 -0.77617220283E+02  0.77617220283E+02  0.00000000000E+00 0.  1.
          5    1    1    2  502    0 -0.97698971341E+02  0.18154561814E+02  0.13289612661E+03  0.16599256003E+03  0.41800000000E+01 0. -1.
         -5    1    1    2    0  502 -0.50162233527E+02 -0.11357918637E+02 -0.23331223655E+02  0.56631001982E+02  0.41800000000E+01 0. -1.
        -11    1    1    2    0    0  0.12072867738E+02 -0.23360742873E+02  0.17818424853E+02  0.31764362220E+02  0.00000000000E+00 0.  1.
         11    1    1    2    0    0  0.13578833713E+03  0.16564099695E+02  0.31732229382E+03  0.34555213796E+03  0.00000000000E+00 0. -1.
</event>
<event>
 6    1  0.6981059E-006  0.1691532E+03  0.7561462E-02  0.1178734E+00
          2   -1    0    0  501    0  0.00000000000E+00  0.00000000000E+00  0.13822483678E+03  0.13822483678E+03  0.00000000000E+00 0. -1.
         -2   -1    0    0    0  501 -0.00000000000E+00 -0.00000000000E+00 -0.24674686649E+03  0.24674686649E+03  0.00000000000E+00 0.  1.
          5    1    1    2  502    0 -0.13452976113E+02  0.11503383954E+03 -0.61634165573E+01  0.11605699854E+03  0.41800000000E+01 0. -1.
         -5    1    1    2    0  502 -0.69769335464E+02  0.82337542423E+01 -0.49686531265E+02  0.86149745613E+02  0.41800000000E+01 0. -1.
        -11    1    1    2    0    0  0.32478292361E+02 -0.76160332943E+02 -0.73234138771E+02  0.11053721034E+03  0.00000000000E+00 0.  1.
         11    1    1    2    0    0  0.50744019216E+02 -0.47107260843E+02  0.20562056874E+02  0.72227748776E+02  0.00000000000E+00 0. -1.
</event>
<event>
 6    1  0.6981059E-006  0.1317902E+03  0.7561462E-02  0.1224823E+00
         -1   -1    0    0    0  501 -0.00000000000E+00  0.00000000000E+00  0.13295560507E+03  0.13295560507E+03  0.00000000000E+00 0.  1.
          1   -1    0    0  501    0  0.00000000000E+00 -0.00000000000E+00 -0.23252386349E+03  0.23252386349E+03  0.00000000000E+00 0. -1.
          5    1    1    2  502    0 -0.23945172060E+02  0.39422907475E+02  0.47561345343E+02  0.66385923731E+02  0.41800000000E+01 0.  1.
         -5    1    1    2    0  502 -0.49395119064E+02 -0.81576104339E+02  0.13113914810E+02  0.96353441808E+02  0.41800000000E+01 0.  1.
        -11    1    1    2    0    0  0.71613602140E+02  0.66305233035E+02 -0.14251816808E+03  0.17273193154E+03  0.00000000000E+00 0. -1.
         11    1    1    2    0    0  0.17266889840E+01 -0.24152036170E+02 -0.17725350491E+02  0.30008171488E+02  0.00000000000E+00 0.  1.
</event>
<event>
 6    1  0.6981059E-006  0.1615855E+03  0.7561462E-02  0.1186918E+00
          1   -1    0    0  501    0  0.00000000000E+00  0.00000000000E+00  0.76899557003E+03  0.76899557003E+03  0.00000000000E+00 0. -1.
         -1   -1    0    0    0  501 -0.00000000000E+00 -0.00000000000E+00 -0.43227699519E+02  0.43227699519E+02  0.00000000000E+00 0.  1.
          5    1    1    2  502    0  0.51345529545E+02 -0.36889827560E+02  0.35064915177E+02  0.72417148922E+02  0.41800000000E+01 0. -1.
         -5    1    1    2    0  502 -0.32481113962E+02 -0.93002596114E+02  0.21432708146E+03  0.23591963864E+03  0.41800000000E+01 0. -1.
        -11    1    1    2    0    0 -0.40640453679E+02  0.13540086735E+02  0.17326364837E+03  0.17848045347E+03  0.00000000000E+00 0. -1.
         11    1    1    2    0    0  0.21776038096E+02  0.11635233694E+03  0.30311222551E+03  0.32540602852E+03  0.00000000000E+00 0.  1.
</event>
<event>
 6    1  0.6981059E-006  0.1111581E+03  0.7561462E-02  0.1258440E+00
          4   -1    0    0  501    0  0.00000000000E+00  0.00000000000E+00  0.15522888890E+03  0.15522888890E+03  0.00000000000E+00 0. -1.
         -4   -1    0    0    0  501 -0.00000000000E+00 -0.00000000000E+00 -0.24839700326E+03  0.24839700326E+03  0.00000000000E+00 0.  1.
          5    1    1    2  502    0  0.51577667131E+01  0.23150437056E+02 -0.49952732751E+01  0.24596147025E+02  0.41800000000E+01 0. -1.
         -5    1    1    2    0  502 -0.46939182090E+02 -0.77716823218E+02 -0.20025197500E+03  0.21991252196E+03  0.41800000000E+01 0.  1.
        -11    1    1    2    0    0  0.24064843419E+02  0.75894106194E+02  0.10248579672E+03  0.12977815907E+03  0.00000000000E+00 0. -1.
         11    1    1    2    0    0  0.17716571958E+02 -0.21327720033E+02  0.95933371856E+01  0.29339064098E+02  0.00000000000E+00 0.  1.
</event>
<event>
 6    1  0.6981059E-006  0.9698884E+02  0.7561462E-02  0.1286759E+00
          3   -1    0    0  501    0  0.00000000000E+00  0.00000000000E+00  0.10074494528E+04  0.10074494528E+04  0.00000000000E+00 0. -1.
         -3   -1    0    0    0  501 -0.00000000000E+00 -0.00000000000E+00 -0.15104026847E+02  0.15104026847E+02  0.00000000000E+00 0.  1.
          5    1    1    2  502    0 -0.27571407588E+01 -0.29209965045E+02  0.18903552226E+02  0.35151679474E+02  0.41800000000E+01 0.  1.
         -5    1    1    2    0  502 -0.49086907140E+02  0.35656071620E+02  0.41509096360E+03  0.41952218101E+03  0.41800000000E+01 0.  1.
        -11    1    1    2    0    0 -0.61093818920E+01  0.32911100785E+02  0.17120838483E+03  0.17444992445E+03  0.00000000000E+00 0.  1.
         11    1    1    2    0    0  0.57953429791E+02 -0.39357207360E+02  0.38714252533E+03  0.39342969476E+03  0.00000000000E+00 0. -1.
</event>
<event>
 6    1  0.6981059E-006  0.3334399E+03  0.7561462E-02  0.1069625E+00
         -2   -1    0    0    0  501 -0.00000000000E+00  0.00000000000E+00  0.18334340463E+03  0.18334340463E+03  0.00000000000E+00 0.  1.
          2   -1    0    0  501    0  0.00000000000E+00 -0.00000000000E+00 -0.62978667342E+03  0.62978667342E+03  0.00000000000E+00 0. -1.
          5    1    1    2  502    0 -0.64822363998E+01 -0.11828674051E+03 -0.81889336408E+02  0.14407327367E+03  0.41800000000E+01 0. -1.
         -5    1    1    2    0  502  0.15043104303E+03 -0.16930356551E+03 -0.15570267640E+03  0.27487086394E+03  0.41800000000E+01 0. -1.
        -11    1    1    2    0    0 -0.10826468561E+03  0.20438243678E+03 -0.98343217316E+02  0.25132610490E+03  0.00000000000E+00 0.  1.
         11    1    1    2    0    0 -0.35684121021E+02  0.83207869247E+02 -0.11050803867E+03  0.14285983553E+03  0.00000000000E+00 0. -1.
</event>
<event>
 6    1  0.6981059E-006  0.1786875E+03  0.7561462E-02  0.1169079E+00
         -1   -1    0    0    0  501 -0.00000000000E+00  0.00000000000E+00  0.11659172634E+03  0.11659172634E+03  0.00000000000E+00 0.  1.
          1   -1    0    0  501    0  0.00000000000E+00 -0.00000000000E+00 -0.28743928874E+03  0.28743928874E+03  0.00000000000E+00 0. -1.
          5    1    1    2  502    0  0.19229445816E+02 -0.11066916739E+02 -0.24626606859E+02  0.33409435761E+02  0.41800000000E+01 0.  1.
         -5    1    1    2    0  502 -0.10620083258E+03  0.12974760514E+03 -0.71971631336E+02  0.18251149552E+03  0.41800000000E+01 0.  1.
        -11    1    1    2    0    0  0.38568449802E+02  0.36135814803E+00 -0.39013088658E+02  0.54860523024E+02  0.00000000000E+00 0.  1.
         11    1    1    2    0    0  0.48402936958E+02 -0.11904204655E+03 -0.35236235545E+02  0.13324956078E+03  0.00000000000E+00 0. -1.
</event>
<event>
 6    1  0.6981059E-006  0.1050258E+03  0.7561462E-02  0.1270069E+00
         -2   -1    0    0    0  501 -0.00000000000E+00  0.00000000000E+00  0.33269836173E+02  0.33269836173E+02  0.00000000000E+00 0.  1.
          2   -1    0    0  501    0  0.00000000000E+00 -0.00000000000E+00 -0.51333727417E+03  0.51333727417E+03  0.00000000000E+00 0. -1.
          5    1    1    2  502    0 -0.24055719299E+02  0.83014809060E+02 -0.11183589197E+03  0.14140323648E+03  0.41800000000E+01 0.  1.
         -5    1    1    2    0  502  0.18573033828E+02 -0.36249529361E+02 -0.17307157673E+02  0.44452177350E+02  0.41800000000E+01 0.  1.
        -11    1    1    2    0    0  0.36577270354E+02 -0.29630645501E+02 -0.17116985814E+03  0.17752462420E+03  0.00000000000E+00 0.  1.
         11    1    1    2    0    0 -0.31094584882E+02 -0.17134634198E+02 -0.17975453021E+03  0.18322707232E+03  0.00000000000E+00 0. -1.
</event>
<event>
 6    1  0.6981059E-006  0.1280766E+03  0.7561462E-02  0.1230338E+00
         -2   -1    0    0    0  501 -0.00000000000E+00  0.00000000000E+00  0.58850973902E+02  0.58850973902E+02  0.00000000000E+00 0.  1.
          2   -1    0    0  501    0  0.00000000000E+00 -0.00000000000E+00 -0.43675350203E+03  0.43675350203E+03  0.00000000000E+00 0. -1.
          5    1    1    2  502    0 -0.10721048752E+02  0.28656252097E+01 -0.90827472846E+02  0.91598334689E+02  0.41800000000E+01 0. -1.
         -5    1    1    2    0  502  0.11272190099E+03 -0.58477296258E+02 -0.81337277771E+02  0.15086101649E+03  0.41800000000E+01 0. -1.
        -11    1    1    2    0    0 -0.27640394713E+02  0.73903894394E+01  0.55860728441E+00  0.28616801325E+02  0.00000000000E+00 0.  1.
         11    1    1    2    0    0 -0.74360457523E+02  0.48221281609E+02 -0.20629638479E+03  0.22452832343E+03  0.00000000000E+00 0. -1.
</event>
<event>
 6    1  0.6981059E-006  0.1031797E+03  0.7561462E-02  0.1273748E+00
          2   -1    0    0  501    0  0.00000000000E+00  0.00000000000E+00  0.60205366461E+02  0.60205366461E+02  0.00000000000E+00 0. -1.
         -2   -1    0    0    0  501 -0.00000000000E+00 -0.00000000000E+00 -0.25655988092E+03  0.25655988092E+03  0.00000000000E+00 0.  1.
          5    1    1    2  502    0 -0.76748034203E+02  0.39124137048E+02 -0.20504971823E+02  0.88650353204E+02  0.41800000000E+01 0. -1.
         -5    1    1    2    0  502  0.27967712119E+02 -0.54571985355E+01 -0.72777752454E+02  0.78269071728E+02  0.41800000000E+01 0. -1.
        -11    1    1    2    0    0  0.46631362073E+02  0.99184987137E+01 -0.12463767841E+02  0.49276830806E+02  0.00000000000E+00 0.  1.
         11    1    1    2    0    0  0.21489600114E+01 -0.43585437226E+02 -0.90608022339E+02  0.10056899164E+03  0.00000000000E+00 0. -1.
</event>
<event>
 6    1  0.6981059E-006  0.1819304E+03  0.7561462E-02  0.1165948E+00
          1   -1    0    0  501    0  0.00000000000E+00  0.00000000000E+00  0.38858502346E+03  0.38858502346E+03  0.00000000000E+00 0. -1.
         -1   -1    0    0    0  501 -0.00000000000E+00 -0.00000000000E+00 -0.33907060472E+03  0.33907060472E+03  0.00000000000E+00 0.  1.
          5    1    1    2  502    0 -0.24512616991E+02  0.71709543012E+02 -0.42285346756E+02  0.86882966691E+02  0.41800000000E+01 0.  1.
         -5    1    1    2    0  502 -0.10285539023E+03  0.32167252265E+02 -0.23786381804E+03  0.26117165189E+03  0.41800000000E+01 0.  1.
        -11    1    1    2    0    0  0.10377962292E+03 -0.11424709533E+03  0.31279648804E+03  0.34880403073E+03  0.00000000000E+00 0. -1.
         11    1    1    2    0    0  0.23588384304E+02  0.10370300054E+02  0.16867095501E+02  0.30796978877E+02  0.00000000000E+00 0.  1.
</event>
<event>
 6    1  0.6981059E-006  0.1262901E+03  0.7561462E-02  0.1233067E+00
         -1   -1    0    0    0  501 -0.00000000000E+00  0.00000000000E+00  0.12539327287E+04  0.12539327287E+04  0.00000000000E+00 0.  1.
          1   -1    0    0  501    0  0.00000000000E+00 -0.00000000000E+00 -0.19617652878E+02  0.19617652878E+02  0.00000000000E+00 0. -1.
          5    1    1    2  502    0 -0.86738015709E+02  0.57137716050E+02  0.51491410233E+03  0.52530201517E+03  0.41800000000E+01 0. -1.
         -5    1    1    2    0  502  0.97243950530E+01 -0.27324173575E+02  0.47423545989E+03  0.47513989322E+03  0.41800000000E+01 0. -1.
        -11    1    1    2    0    0  0.40535341213E+01 -0.44683690586E+02  0.75542975091E+02  0.87862417613E+02  0.00000000000E+00 0. -1.
         11    1    1    2    0    0  0.72960086535E+02  0.14870148111E+02  0.16962253853E+03  0.18524605558E+03  0.00000000000E+00 0.  1.
</event>
<event>
 6    1  0.6981059E-006  0.1091739E+03  0.7561462E-02  0.1262107E+00
         -2   -1    0    0    0  501 -0.00000000000E+00  0.00000000000E+00  0.69888322684E+03  0.69888322684E+03  0.00000000000E+00 0.  1.
          2   -1    0    0  501    0  0.00000000000E+00 -0.00000000000E+00 -0.30415832136E+02  0.30415832136E+02  0.00000000000E+00 0. -1.
          5    1    1    2  502    0  0.71951754282E+02 -0.58707806042E+02  0.20825750737E+03  0.22806210385E+03  0.41800000000E+01 0.  1.
         -5    1    1    2    0  502 -0.35670905546E+02 -0.16328871469E+02  0.28127562529E+03  0.28402903959E+03  0.41800000000E+01 0.  1.
        -11    1    1    2    0    0 -0.73897185719E+01  0.39272249790E+02  0.16410360848E+03  0.16889911741E+03  0.00000000000E+00 0.  1.
         11    1    1    2    0    0 -0.28891130163E+02  0.35764427722E+02  0.14830653562E+02  0.48308798137E+02  0.00000000000E+00 0. -1.
</event>
<event>
 6    1  0.6981059E-006  0.8659291E+02  0.7561462E-02  0.1311319E+00
         -2   -1    0    0    0  501 -0.00000000000E+00  0.00000000000E+00  0.23277093592E+02  0.23277093592E+02  0.00000000000E+00 0.  1.
          2   -1    0    0  501    0  0.00000000000E+00 -0.00000000000E+00 -0.52969639725E+03  0.52969639725E+03  0.00000000000E+00 0. -1.
          5    1    1    2  502    0  0.12547061086E+02 -0.58101784955E+02 -0.57216033836E+02  0.82609884910E+02  0.41800000000E+01 0.  1.
         -5    1    1    2    0  502  0.32622453572E-01  0.25526995856E+02 -0.24457660435E+03  0.24594067655E+03  0.41800000000E+01 0.  1.
        -11    1    1    2    0    0  0.16457474172E+02  0.50832859252E+02 -0.88908554147E+02  0.10372829429E+03  0.00000000000E+00 0.  1.
         11    1    1    2    0    0 -0.29037157711E+02 -0.18258070152E+02 -0.11571811132E+03  0.12069463510E+03  0.00000000000E+00 0. -1.
</event>
<event>
 6    1  0.6981059E-006  0.8083599E+02  0.7561462E-02  0.1326696E+00
          2   -1    0    0  501    0  0.00000000000E+00  0.00000000000E+00  0.41047518274E+03  0.41047518274E+03  0.00000000000E+00 0. -1.
         -2   -1    0    0    0  501 -0.00000000000E+00 -0.00000000000E+00 -0.39901797754E+02  0.39901797754E+02  0.00000000000E+00 0.  1.
          5    1    1    2  502    0 -0.70773545473E+01 -0.29034763520E+01 -0.21777278877E+02  0.23457224849E+02  0.41800000000E+01 0. -1.
         -5    1    1    2    0  502  0.10403111094E+02 -0.54428094951E+02  0.16984731615E+03  0.17870709399E+03  0.41800000000E+01 0. -1.
        -11    1    1    2    0    0 -0.16794555401E+01 -0.19982152612E+02  0.10925642912E+03  0.11108138592E+03  0.00000000000E+00 0. -1.
         11    1    1    2    0    0 -0.16463010067E+01  0.77313723915E+02  0.11324691859E+03  0.13713127573E+03  0.00000000000E+00 0.  1.
</event>
<event>
 6    1  0.6981059E-006  0.1716184E+03  0.7561462E-02  0.1176171E+00
          1   -1    0    0  501    0  0.00000000000E+00  0.00000000000E+00  0.26958095526E+03  0.26958095526E+03  0.00000000000E+00 0. -1.
         -1   -1    0    0    0  501 -0.00000000000E+00 -0.00000000000E+00 -0.12381978458E+03  0.12381978458E+03  0.00000000000E+00 0.  1.
          5    1    1    2  502    0 -0.14563802388E+02  0.96990383092E+01 -0.12981270035E+02  0.22184712210E+02  0.41800000000E+01 0. -1.
         -5    1    1    2    0  502  0.22009476663E+02 -0.15625641448E+03  0.44240480984E+02  0.16393650200E+03  0.41800000000E+01 0.  1.
        -11    1    1    2    0    0 -0.16872238033E+02  0.15428401791E+03  0.11757406658E+03  0.19470976281E+03  0.00000000000E+00 0. -1.
         11    1    1    2    0    0  0.94265637572E+01 -0.77266417427E+01 -0.30721068454E+01  0.12569762820E+02  0.00000000000E+00 0.  1.
</event>
<event>
 6    1  0.6981059E-006  0.9233229E+02  0.7561462E-02  0.1297300E+00
         -1   -1    0    0    0  501 -0.00000000000E+00  0.00000000000E+00  0.82243672055E+02  0.82243672055E+02  0.00000000000E+00 0.  1.
          1   -1    0    0  501    0  0.00000000000E+00 -0.00000000000E+00 -0.27817565973E+03  0.27817565973E+03  0.00000000000E+00 0. -1.
          5    1    1    2  502    0  0.46889954065E+02  0.25039062243E+02  0.36060795668E+01  0.53442479734E+02  0.41800000000E+01 0. -1.
         -5    1    1    2    0  502 -0.46951422753E+02 -0.31270361495E+02  0.27450038113E+02  0.62874864604E+02  0.41800000000E+01 0.  1.
        -11    1    1    2    0    0  0.36989484230E+02 -0.16170249964E+01 -0.18028810321E+03  0.18405063670E+03  0.00000000000E+00 0. -1.
         11    1    1    2    0    0 -0.36928015542E+02  0.78483242486E+01 -0.46700002151E+02  0.60051350745E+02  0.00000000000E+00 0.  1.
</event>
<event>
 6    1  0.6981059E-006  0.2079643E+03  0.7561462E-02  0.1143188E+00
         -1   -1    0    0    0  501 -0.00000000000E+00  0.00000000000E+00  0.11836053153E+03  0.11836053153E+03  0.00000000000E+00 0.  1.
          1   -1    0    0  501    0  0.00000000000E+00 -0.00000000000E+00 -0.44007422420E+03  0.44007422420E+03  0.00000000000E+00 0. -1.
          5    1    1    2  502    0  0.27069482535E+02  0.11043458784E+01  0.83576220736E+01  0.28658309637E+02  0.41800000000E+01 0. -1.
         -5    1    1    2    0  502 -0.65548528825E+02 -0.16268964327E+03 -0.62084818570E+02  0.18610891101E+03  0.41800000000E+01 0. -1.
        -11    1    1    2    0    0  0.70666761490E+02  0.28586636460E+02 -0.11950825453E+03  0.14175051981E+03  0.00000000000E+00 0.  1.
         11    1    1    2    0    0 -0.32187715200E+02  0.13299866093E+03 -0.14847824163E+03  0.20191701528E+03  0.00000000000E+00 0. -1.
</event>
<event>
 6    1  0.6981059E-006  0.1482085E+03  0.7561462E-02  0.1202692E+00
         -2   -1    0    0    0  501 -0.00000000000E+00  0.00000000000E+00  0.65109494999E+02  0.65109494999E+02  0.00000000000E+00 0.  1.
          2   -1    0    0  501    0  0.00000000000E+00 -0.00000000000E+00 -0.72529792833E+03  0.72529792833E+03  0.00000000000E+00 0. -1.
          5    1    1    2  502    0  0.41683394537E+02  0.16962962272E+02 -0.43358906170E+02  0.62631578404E+02  0.41800000000E+01 0. -1.
         -5    1    1    2    0  502  0.12355683218E+02 -0.11601044414E+03 -0.26342494960E+02  0.11967658709E+03  0.41800000000E+01 0. -1.
        -11    1    1    2    0    0 -0.71164721745E+02  0.65065844701E+02 -0.51043558997E+03  0.51946363999E+03  0.00000000000E+00 0. -1.
         11    1    1    2    0    0  0.17125643991E+02  0.33981637167E+02 -0.80051442236E+02  0.88635617845E+02  0.00000000000E+00 0.  1.
</event>
<event>
 6    1  0.6981059E-006  0.1878269E+03  0.7561462E-02  0.1160436E+00
         -2   -1    0    0    0  501 -0.00000000000E+00  0.00000000000E+00  0.28829422916E+02  0.28829422916E+02  0.00000000000E+00 0.  1.
          2   -1    0    0  501    0  0.00000000000E+00 -0.00000000000E+00 -0.13461889356E+04  0.13461889356E+04  0.00000000000E+00 0. -1.
          5    1    1    2  502    0 -0.50334107088E+02 -0.10041441548E+03 -0.45027333156E+03  0.46409064059E+03  0.41800000000E+01 0.  1.
         -5    1    1    2    0  502 -0.80301370498E+02  0.51569188115E+01 -0.15371852417E+03  0.17355621853E+03  0.41800000000E+01 0.  1.
        -11    1    1    2    0    0  0.34009591447E+02  0.77226349624E+02 -0.25557269405E+03  0.26914301650E+03  0.00000000000E+00 0.  1.
         11    1    1    2    0    0  0.96625886139E+02  0.18031147047E+02 -0.45779496291E+03  0.46822848290E+03  0.00000000000E+00 0. -1.
</event>
<event>
 6    1  0.6981059E-006  0.1088691E+03  0.7561462E-02  0.1262679E+00
         -2   -1    0    0    0  501 -0.00000000000E+00  0.00000000000E+00  0.22759520366E+03  0.22759520366E+03  0.00000000000E+00 0.  1.
          2   -1    0    0  501    0  0.00000000000E+00 -0.00000000000E+00 -0.55588275726E+02  0.55588275726E+02  0.00000000000E+00 0. -1.
          5    1    1    2  502    0 -0.74370694980E+02 -0.13743203723E+02  0.83026198857E+02  0.11238637825E+03  0.41800000000E+01 0.  1.
         -5    1    1    2    0  502  0.50782745650E+02  0.45690689646E+01  0.40778276759E+02  0.65422503027E+02  0.41800000000E+01 0.  1.
        -11    1    1    2    0    0 -0.22995181817E+02  0.31642408076E+02  0.33779849977E+02  0.51682672533E+02  0.00000000000E+00 0.  1.
         11    1    1    2    0    0  0.46583131147E+02 -0.22468273318E+02  0.14422602343E+02  0.53691925573E+02  0.00000000000E+00 0. -1.
</event>
<event>
 6    1  0.6981059E-006  0.1484170E+03  0.7561462E-02  0.1202432E+00
         -3   -1    0    0    0  501 -0.00000000000E+00  0.00000000000E+00  0.89865013771E+03  0.89865013771E+03  0.00000000000E+00 0.  1.
          3   -1    0    0  501    0  0.00000000000E+00 -0.00000000000E+00 -0.35110796231E+02  0.35110796231E+02  0.00000000000E+00 0. -1.
          5    1    1    2  502    0 -0.14968961721E+02 -0.14465012039E+02 -0.31450968316E+01  0.21463234201E+02  0.41800000000E+01 0.  1.
         -5    1    1    2    0  502 -0.11162616284E+03 -0.39885966092E+02  0.39330726688E+03  0.41080332168E+03  0.41800000000E+01 0.  1.
        -11    1    1    2    0    0  0.93223609538E+02  0.13468300778E-01  0.19825723586E+03  0.21908120213E+03  0.00000000000E+00 0. -1.
         11    1    1    2    0    0  0.33371515027E+02  0.54337509830E+02  0.27511993557E+03  0.28241317593E+03  0.00000000000E+00 0.  1.
</event>
<event>
 6    1  0.6981059E-006  0.6546881E+02  0.7561462E-02  0.1376217E+00
         -2   -1    0    0    0  501 -0.00000000000E+00  0.00000000000E+00  0.49413504160E+02  0.49413504160E+02  0.00000000000E+00 0.  1.
          2   -1    0    0  501    0  0.00000000000E+00 -0.00000000000E+00 -0.30889809263E+03  0.30889809263E+03  0.00000000000E+00 0. -1.
          5    1    1    2  502    0  0.48343936034E+01  0.17317192742E+02 -0.11134888327E+03  0.11286851966E+03  0.41800000000E+01 0.  1.
         -5    1    1    2    0  502  0.35192187066E+02 -0.71187041376E+01  0.25620436588E+02  0.44306265358E+02  0.41800000000E+01 0.  1.
        -11    1    1    2    0    0 -0.57836654035E+02 -0.77176037862E+01 -0.17361111394E+03  0.18315419417E+03  0.00000000000E+00 0. -1.
         11    1    1    2    0    0  0.17810073366E+02 -0.24808848181E+01 -0.14502785354E+00  0.17982617603E+02  0.00000000000E+00 0.  1.
</event>
<event>
 6    1  0.1057381E-005  0.4605498E+03  0.7561462E-02  0.1024622E+00
         -3   -1    0    0    0  501 -0.00000000000E+00  0.00000000000E+00  0.61090654284E+03  0.61090654284E+03  0.00000000000E+00 0.  1.
          3   -1    0    0  501    0  0.00000000000E+00 -0.00000000000E+00 -0.36373060961E+03  0.36373060961E+03  0.00000000000E+00 0. -1.
          5    1    1    2  502    0 -0.30087805055E+03 -0.25569446215E+03  0.10912287431E+03  0.40967369134E+03  0.41800000000E+01 0. -1.
         -5    1    1    2    0  502 -0.25599733150E+02 -0.62475781180E+02  0.65816853314E+02  0.94381672752E+02  0.41800000000E+01 0. -1.
        -11    1    1    2    0    0  0.12506125110E+03  0.89114131658E+02 -0.12334281299E+02  0.15405771478E+03  0.00000000000E+00 0.  1.
         11    1    1    2    0    0  0.20141653260E+03  0.22905611168E+03  0.84570486900E+02  0.31652407358E+03  0.00000000000E+00 0. -1.
</event>
<event>
 6    1  0.1968701E-005  0.1776922E+03  0.7561462E-02  0.1170055E+00
         -1   -1    0    0    0  501 -0.00000000000E+00  0.00000000000E+00  0.65548781019E+02  0.65548781019E+02  0.00000000000E+00 0.  1.
          1   -1    0    0  501    0  0.00000000000E+00 -0.00000000000E+00 -0.66282280899E+03  0.66282280899E+03  0.00000000000E+00 0. -1.
          5    1    1    2  502    0  0.66575365160E+02 -0.33179019498E+02 -0.20675519580E+02  0.77318019187E+02  0.41800000000E+01 0.  1.
         -5    1    1    2    0  502  0.32616215710E+02 -0.10451798015E+03 -0.19891258388E+03  0.22709362415E+03  0.41800000000E+01 0.  1.
        -11    1    1    2    0    0 -0.50165463598E+02  0.49909883642E+02 -0.67159054021E+02  0.97559770193E+02  0.00000000000E+00 0.  1.
         11    1    1    2    0    0 -0.49026117272E+02  0.87787116008E+02 -0.31052687049E+03  0.32640017648E+03  0.00000000000E+00 0. -1.
</event>
<event>
 6    1  0.6981059E-006  0.1307081E+03  0.7561462E-02  0.1226409E+00
          2   -1    0    0  501    0  0.00000000000E+00  0.00000000000E+00  0.74545814228E+03  0.74545814228E+03  0.00000000000E+00 0. -1.
         -2   -1    0    0    0  501 -0.00000000000E+00 -0.00000000000E+00 -0.26204716036E+02  0.26204716036E+02  0.00000000000E+00 0.  1.
          5    1    1    2  502    0  0.43219455020E+02 -0.31413231244E+02  0.11552077382E+03  0.12734690406E+03  0.41800000000E+01 0.  1.
         -5    1    1    2    0  502 -0.85628237436E+02 -0.28299002287E+02  0.14560073920E+03  0.17131863948E+03  0.41800000000E+01 0.  1.
        -11    1    1    2    0    0  0.44126238657E+02 -0.12064725437E+02  0.16855458308E+03  0.17465202551E+03  0.00000000000E+00 0.  1.
         11    1    1    2    0    0 -0.17174562415E+01  0.71776958968E+02  0.28957733015E+03  0.29834528927E+03  0.00000000000E+00 0. -1.
</event>
<event>
 6    1  0.6981059E-006  0.2196880E+03  0.7561462E-02  0.1134116E+00
         -2   -1    0    0    0  501 -0.00000000000E+00  0.00000000000E+00  0.44113059025E+02  0.44113059025E+02  0.00000000000E+00 0.  1.
          2   -1    0    0  501    0  0.00000000000E+00 -0.00000000000E+00 -0.11509596363E+04  0.11509596363E+04  0.00000000000E+00 0. -1.
          5    1    1    2  502    0  0.18400417937E+02  0.29430086421E+02 -0.68588474862E+02  0.76984132462E+02  0.41800000000E+01 0.  1.
         -5    1    1    2    0  502  0.15237942039E+03 -0.12470238775E+03 -0.44463400061E+03  0.48629933186E+03  0.41800000000E+01 0.  1.
        -11    1    1    2    0    0 -0.12790499947E+03  0.10260391690E+03 -0.38141677854E+03  0.41516985874E+03  0.00000000000E+00 0.  1.
         11    1    1    2    0    0 -0.42874838861E+02 -0.73316155762E+01 -0.21220732324E+03  0.21661937224E+03  0.00000000000E+00 0. -1.
</event>
<event>
 6    1  0.6981059E-006  0.1424459E+03  0.7561462E-02  0.1210075E+00
          1   -1    0    0  501    0  0.00000000000E+00  0.00000000000E+00  0.95395979508E+02  0.95395979508E+02  0.00000000000E+00 0. -1.
         -1   -1    0    0    0  501 -0.00000000000E+00 -0.00000000000E+00 -0.33524522902E+03  0.33524522902E+03  0.00000000000E+00 0.  1.
          5    1    1    2  502    0  0.11269597139E+03  0.67929665834E+02 -0.20598408843E+03  0.24446214135E+03  0.41800000000E+01 0.  1.
         -5    1    1    2    0  502 -0.46301517842E+01 -0.31891721779E+02 -0.21204063093E+02  0.38802125138E+02  0.41800000000E+01 0.  1.
        -11    1    1    2    0    0 -0.61874274677E+02 -0.41091927002E+02 -0.48487788709E+02  0.88701961565E+02  0.00000000000E+00 0.  1.
         11    1    1    2    0    0 -0.46191544925E+02  0.50539829472E+01  0.35826690719E+02  0.58674980477E+02  0.00000000000E+00 0. -1.
</event>
<event>
 6    1  0.6981059E-006  0.1465718E+03  0.7561462E-02  0.1204750E+00
         -1   -1    0    0    0  501 -0.00000000000E+00  0.00000000000E+00  0.31814423635E+02  0.31814423635E+02  0.00000000000E+00 0.  1.
          1   -1    0    0  501    0  0.00000000000E+00 -0.00000000000E+00 -0.87051901136E+03  0.87051901136E+03  0.00000000000E+00 0. -1.
          5    1    1    2  502    0 -0.13068221810E+03  0.15815824207E+02 -0.44866067265E+03  0.46759154612E+03  0.41800000000E+01 0.  1.
         -5    1    1    2    0  502  0.72239193317E+01  0.94789904219E+01  0.22579405779E+01  0.12829924613E+02  0.41800000000E+01 0.  1.
        -11    1    1    2    0    0  0.65251296049E+02 -0.53266961217E+02 -0.27967208241E+03  0.29208145178E+03  0.00000000000E+00 0. -1.
         11    1    1    2    0    0  0.58207002720E+02  0.27972146587E+02 -0.11262977325E+03  0.12983051248E+03  0.00000000000E+00 0.  1.
</event>
<event>
 6    1  0.6981059E-006  0.8934682E+02  0.7561462E-02  0.1304441E+00
         -2   -1    0    0    0  501 -0.00000000000E+00  0.00000000000E+00  0.13953424622E+03  0.13953424622E+03  0.00000000000E+00 0.  1.
          2   -1    0    0  501    0  0.00000000000E+00 -0.00000000000E+00 -0.12194929222E+03  0.12194929222E+03  0.00000000000E+00 0. -1.
          5    1    1    2  502    0 -0.13910065762E+02  0.15357070374E+02 -0.48510522450E+02  0.52915713435E+02  0.41800000000E+01 0.  1.
         -5    1    1    2    0  502 -0.53583388615E+02  0.77745414414E+01  0.76451228722E+02  0.93775720755E+02  0.41800000000E+01 0.  1.
        -11    1    1    2    0    0  0.43064139606E+02 -0.50630304337E+02 -0.30189909657E+02  0.73002592299E+02  0.00000000000E+00 0. -1.
         11    1    1    2    0    0  0.24429314770E+02  0.27498692521E+02  0.19834157384E+02  0.41789511957E+02  0.00000000000E+00 0.  1.
</event>
<event>
 6    1  0.6981059E-006  0.1107006E+03  0.7561462E-02  0.1259278E+00
         -2   -1    0    0    0  501 -0.00000000000E+00  0.00000000000E+00  0.98389071094E+02  0.98389071094E+02  0.00000000000E+00 0.  1.
          2   -1    0    0  501    0  0.00000000000E+00 -0.00000000000E+00 -0.14434607958E+03  0.14434607958E+03  0.00000000000E+00 0. -1.
          5    1    1    2  502    0 -0.65132924306E+02  0.31611771287E+02  0.22753167578E+02  0.76005137638E+02  0.41800000000E+01 0.  1.
         -5    1    1    2    0  502  0.30300096407E+02 -0.40616183775E+02 -0.18807305790E+02  0.54212151570E+02  0.41800000000E+01 0.  1.
        -11    1    1    2    0    0  0.22178990200E+02  0.50232095331E+02 -0.40883349313E+02  0.68458887361E+02  0.00000000000E+00 0. -1.
         11    1    1    2    0    0  0.12653837699E+02 -0.41227682843E+02 -0.90195209646E+01  0.44058974109E+02  0.00000000000E+00 0.  1.
</event>
<event>
 6    1  0.6981059E-006  0.2285393E+03  0.7561462E-02  0.1127672E+00
          2   -1    0    0  501    0  0.00000000000E+00  0.00000000000E+00  0.13767143989E+04  0.13767143989E+04  0.00000000000E+00 0. -1.
         -2   -1    0    0    0  501 -0.00000000000E+00 -0.00000000000E+00 -0.48618751940E+02  0.48618751940E+02  0.00000000000E+00 0.  1.
          5    1    1    2  502    0  0.32459864055E+02 -0.41697490373E+02  0.48666392817E+02  0.71959805917E+02  0.41800000000E+01 0. -1.
         -5    1    1    2    0  502  0.18012429149E+03  0.47540273496E+02  0.36131165617E+03  0.40653219217E+03  0.41800000000E+01 0. -1.
        -11    1    1    2    0    0 -0.11902646581E+03  0.19943090443E+02  0.34345215041E+03  0.36403901720E+03  0.00000000000E+00 0.  1.
         11    1    1    2    0    0 -0.93557689731E+02 -0.25785873566E+02  0.57466544758E+03  0.58280213557E+03  0.00000000000E+00 0. -1.
</event>
<event>
 6    1  0.6981059E-006  0.1132110E+03  0.7561462E-02  0.1254737E+00
         -2   -1    0    0    0  501 -0.00000000000E+00  0.00000000000E+00  0.73552706780E+02  0.73552706780E+02  0.00000000000E+00 0. -1.
          2   -1    0    0  501    0  0.00000000000E+00 -0.00000000000E+00 -0.24245095238E+03  0.24245095238E+03  0.00000000000E+00 0.  1.
          5    1    1    2  502    0  0.59498391284E+02  0.77140214003E+02 -0.27292546850E+02  0.10125723034E+03  0.41800000000E+01 0. -1.
         -5    1    1    2    0  502 -0.34841031429E+02 -0.21403492475E+02 -0.19972025320E+02  0.45698590312E+02  0.41800000000E+01 0. -1.
        -11    1    1    2    0    0 -0.45751185647E+02 -0.44864568391E+02 -0.12913543219E+03  0.14415949616E+03  0.00000000000E+00 0.  1.
         11    1    1    2    0    0  0.21093825792E+02 -0.10872153137E+02  0.75017587662E+01  0.24888342350E+02  0.00000000000E+00 0. -1.
</event>
<event>
 6    1  0.6981059E-006  0.8242303E+02  0.7561462E-02  0.1322313E+00
         -2   -1    0    0    0  501 -0.00000000000E+00  0.00000000000E+00  0.12929239487E+02  0.12929239487E+02  0.00000000000E+00 0.  1.
          2   -1    0    0  501    0  0.00000000000E+00 -0.00000000000E+00 -0.89315251837E+03  0.89315251837E+03  0.00000000000E+00 0. -1.
          5    1    1    2  502    0 -0.98480273580E+01 -0.31419312144E+02 -0.35652425062E+02  0.48710621339E+02  0.41800000000E+01 0.  1.
         -5    1    1    2    0  502  0.87531919656E+01  0.41309941035E+02 -0.48482173545E+03  0.48667516596E+03  0.41800000000E+01 0.  1.
        -11    1    1    2    0    0  0.19805784045E+02  0.35207581512E+02 -0.15065198909E+03  0.15597392312E+03  0.00000000000E+00 0.  1.
         11    1    1    2    0    0 -0.18710948652E+02 -0.45098210402E+02 -0.20909712928E+03  0.21472204744E+03  0.00000000000E+00 0. -1.
</event>
<event>
 6    1  0.6981059E-006  0.1355813E+03  0.7561462E-02  0.1219401E+00
          2   -1    0    0  501    0  0.00000000000E+00  0.00000000000E+00  0.42893666205E+03  0.42893666205E+03  0.00000000000E+00 0. -1.
         -2   -1    0    0    0  501 -0.00000000000E+00 -0.00000000000E+00 -0.46230004405E+02  0.46230004405E+02  0.00000000000E+00 0.  1.
          5    1    1    2  502    0 -0.23565282663E+02 -0.27246015337E+02  0.62563958586E+02  0.72314515919E+02  0.41800000000E+01 0. -1.
         -5    1    1    2    0  502 -0.35772368872E+02  0.10152942171E+03  0.93642472198E+02  0.14273847010E+03  0.41800000000E+01 0.  1.
        -11    1    1    2    0    0  0.57938573298E+02 -0.53092848031E+01  0.89965372398E+02  0.10713932523E+03  0.00000000000E+00 0.  1.
         11    1    1    2    0    0  0.13990782371E+01 -0.68974121569E+02  0.13653485446E+03  0.15297435520E+03  0.00000000000E+00 0. -1.
</event>
<event>
 6    1  0.6981059E-006  0.9460640E+02  0.7561462E-02  0.1292065E+00
          3   -1    0    0  501    0  0.00000000000E+00  0.00000000000E+00  0.49235036403E+02  0.49235036403E+02  0.00000000000E+00 0. -1.
         -3   -1    0    0    0  501 -0.00000000000E+00 -0.00000000000E+00 -0.28509508686E+03  0.28509508686E+03  0.00000000000E+00 0.  1.
          5    1    1    2  502    0  0.46616983737E+02 -0.47509426891E+02 -0.82381625015E+02  0.10599289295E+03  0.41800000000E+01 0. -1.
         -5    1    1    2    0  502 -0.24200876438E+02  0.53395366791E+02 -0.10854336447E+03  0.12343371495E+03  0.41800000000E+01 0. -1.
        -11    1    1    2    0    0 -0.16474776198E+02  0.26291780345E+02 -0.61010203293E+02  0.68446481796E+02  0.00000000000E+00 0.  1.
         11    1    1    2    0    0 -0.59413311013E+01 -0.32177720245E+02  0.16075142326E+02  0.36457033563E+02  0.00000000000E+00 0. -1.
</event>
<event>
 6    1  0.6981059E-006  0.1412668E+03  0.7561462E-02  0.1211634E+00
         -2   -1    0    0    0  501 -0.00000000000E+00  0.00000000000E+00  0.89530216475E+03  0.89530216475E+03  0.00000000000E+00 0.  1.
          2   -1    0    0  501    0  0.00000000000E+00 -0.00000000000E+00 -0.30469359397E+02  0.30469359397E+02  0.00000000000E+00 0. -1.
          5    1    1    2  502    0  0.44577694262E+02  0.51797258827E+02  0.37830925718E+03  0.38445480010E+03  0.41800000000E+01 0. -1.
         -5    1    1    2    0  502 -0.50164192082E+02  0.68985133675E+02  0.16135071562E+03  0.18255662318E+03  0.41800000000E+01 0. -1.
        -11    1    1    2    0    0 -0.19230952134E+02 -0.45341206395E+02  0.42211774270E+02  0.64865155548E+02  0.00000000000E+00 0. -1.
         11    1    1    2    0    0  0.24817449953E+02 -0.75441186106E+02  0.28296105829E+03  0.29389494533E+03  0.00000000000E+00 0.  1.
</event>
<event>
 6    1  0.6981059E-006  0.1003797E+03  0.7561462E-02  0.1279499E+00
          4   -1    0    0  501    0  0.00000000000E+00  0.00000000000E+00  0.37533616698E+02  0.37533616698E+02  0.00000000000E+00 0. -1.
         -4   -1    0    0    0  501 -0.00000000000E+00 -0.00000000000E+00 -0.45602551806E+03  0.45602551806E+03  0.00000000000E+00 0.  1.
          5    1    1    2  502    0 -0.31683821536E+02 -0.49378202950E+02 -0.49484419151E+02  0.76865152133E+02  0.41800000000E+01 0. -1.
         -5    1    1    2    0  502  0.32953688077E+02 -0.10437690697E+02 -0.25925954324E+03  0.26158722084E+03  0.41800000000E+01 0. -1.
        -11    1    1    2    0    0  0.11888737132E+02  0.81172004482E+02 -0.96767139685E+02  0.12686258591E+03  0.00000000000E+00 0.  1.
         11    1    1    2    0    0 -0.13158603673E+02 -0.21356110834E+02 -0.12980799286E+02  0.28244175873E+02  0.00000000000E+00 0. -1.
</event>
<event>
 6    1  0.6981059E-006  0.6173226E+02  0.7561462E-02  0.1390703E+00
         -3   -1    0    0    0  501 -0.00000000000E+00  0.00000000000E+00  0.18957932455E+03  0.18957932455E+03  0.00000000000E+00 0.  1.
          3   -1    0    0  501    0  0.00000000000E+00 -0.00000000000E+00 -0.55093723899E+02  0.55093723899E+02  0.00000000000E+00 0. -1.
          5    1    1    2  502    0 -0.29027230849E+02 -0.11739976231E+01  0.11268334875E+03  0.11644298127E+03  0.41800000000E+01 0.  1.
         -5    1    1    2    0  502  0.44624336724E+02 -0.61186280485E+01 -0.99710601806E+01  0.46321306959E+02  0.41800000000E+01 0.  1.
        -11    1    1    2    0    0 -0.10214183631E+02 -0.19252146125E+02 -0.15969270910E+02  0.27018369511E+02  0.00000000000E+00 0. -1.
         11    1    1    2    0    0 -0.53829222444E+01  0.26544771797E+02  0.47742582992E+02  0.54890390711E+02  0.00000000000E+00 0.  1.
</event>
<event>
 6    1  0.6981059E-006  0.9869267E+02  0.7561462E-02  0.1283069E+00
         -1   -1    0    0    0  501 -0.00000000000E+00  0.00000000000E+00  0.16028833271E+03  0.16028833271E+03  0.00000000000E+00 0.  1.
          1   -1    0    0  501    0  0.00000000000E+00 -0.00000000000E+00 -0.88111007639E+02  0.88111007639E+02  0.00000000000E+00 0. -1.
          5    1    1    2  502    0  0.60643651640E+01 -0.40826042967E+02  0.61851975505E+02  0.74476047042E+02  0.41800000000E+01 0.  1.
         -5    1    1    2    0  502 -0.39917165723E+02  0.51360617715E+02 -0.91328114104E+01  0.65819251102E+02  0.41800000000E+01 0.  1.
        -11    1    1    2    0    0  0.39615079712E+02  0.30052048386E+02 -0.17695504289E+02  0.52778888060E+02  0.00000000000E+00 0. -1.
         11    1    1    2    0    0 -0.57622791528E+01 -0.40586623134E+02  0.37153665268E+02  0.55325154146E+02  0.00000000000E+00 0.  1.
</event>
<event>
 6    1  0.6981059E-006  0.1063515E+03  0.7561462E-02  0.1267479E+00
          1   -1    0    0  501    0  0.00000000000E+00  0.00000000000E+00  0.28649532784E+03  0.28649532784E+03  0.00000000000E+00 0. -1.
         -1   -1    0    0    0  501 -0.00000000000E+00 -0.00000000000E+00 -0.45076747956E+02  0.45076747956E+02  0.00000000000E+00 0.  1.
          5    1    1    2  502    0 -0.27951886268E+02  0.78383394778E+02  0.63071935270E+02  0.10450265997E+03  0.41800000000E+01 0. -1.
         -5    1    1    2    0  502  0.16973022369E+02 -0.35885143137E+02  0.40289855753E+02  0.56714829304E+02  0.41800000000E+01 0.  1.
        -11    1    1    2    0    0 -0.15530143570E+02  0.17783906488E+02  0.77046919622E+02  0.80583376155E+02  0.00000000000E+00 0.  1.
         11    1    1    2    0    0  0.26509007469E+02 -0.60282158128E+02  0.61009869237E+02  0.89771210362E+02  0.00000000000E+00 0. -1.
</event>
<event>
 6    1  0.6981059E-006  0.7679487E+02  0.7561462E-02  0.1338401E+00
          4   -1    0    0  501    0  0.00000000000E+00  0.00000000000E+00  0.17703887609E+03  0.17703887609E+03  0.00000000000E+00 0. -1.
         -4   -1    0    0    0  501 -0.00000000000E+00 -0.00000000000E+00 -0.64089743735E+02  0.64089743735E+02  0.00000000000E+00 0.  1.
          5    1    1    2  502    0  0.16324082125E+01 -0.27717011354E+02  0.74074523267E+02  0.79217453079E+02  0.41800000000E+01 0. -1.
         -5    1    1    2    0  502 -0.14591396712E+02  0.50806379704E+02 -0.12804049006E+02  0.54549180998E+02  0.41800000000E+01 0.  1.
        -11    1    1    2    0    0 -0.25650409612E+02  0.30939390987E+01 -0.11948472763E+02  0.28465452284E+02  0.00000000000E+00 0.  1.
         11    1    1    2    0    0  0.38609398111E+02 -0.26183307448E+02  0.63627130852E+02  0.78896533459E+02  0.00000000000E+00 0. -1.
</event>
<event>
 6    1  0.6981059E-006  0.2436965E+03  0.7561462E-02  0.1117355E+00
         -2   -1    0    0    0  501 -0.00000000000E+00  0.00000000000E+00  0.15673091938E+03  0.15673091938E+03  0.00000000000E+00 0.  1.
          2   -1    0    0  501    0  0.00000000000E+00 -0.00000000000E+00 -0.50249998563E+03  0.50249998563E+03  0.00000000000E+00 0. -1.
          5    1    1    2  502    0  0.14556354168E+02 -0.20418540057E+03  0.51391866047E+01  0.20481076361E+03  0.41800000000E+01 0. -1.
         -5    1    1    2    0  502 -0.90753129301E+01 -0.30995244593E+02 -0.58456043064E+02  0.66915228931E+02  0.41800000000E+01 0. -1.
        -11    1    1    2    0    0 -0.24569475493E+02  0.22856007049E+03 -0.24514856937E+03  0.33606723436E+03  0.00000000000E+00 0.  1.
         11    1    1    2    0    0  0.19088434255E+02  0.66205746749E+01 -0.47303640419E+02  0.51437678099E+02  0.00000000000E+00 0. -1.
</event>
<event>
 6    1  0.6981059E-006  0.1995876E+03  0.7561462E-02  0.1150087E+00
          1   -1    0    0  501    0  0.00000000000E+00  0.00000000000E+00  0.14925316067E+03  0.14925316067E+03  0.00000000000E+00 0. -1.
         -1   -1    0    0    0  501 -0.00000000000E+00 -0.00000000000E+00 -0.48727637602E+03  0.48727637602E+03  0.00000000000E+00 0.  1.
          5    1    1    2  502    0 -0.23126493759E+01 -0.44364552636E+02 -0.11106701706E+03  0.11969509829E+03  0.41800000000E+01 0. -1.
         -5    1    1    2    0  502 -0.16418425845E+03  0.79476340614E+01 -0.27213925171E+03  0.31795735616E+03  0.41800000000E+01 0. -1.
        -11    1    1    2    0    0  0.78761601075E+02  0.60302877988E+02  0.42477603028E+02  0.10790817233E+03  0.00000000000E+00 0. -1.
         11    1    1    2    0    0  0.87735306754E+02 -0.23885959413E+02  0.27054503897E+01  0.90968909909E+02  0.00000000000E+00 0.  1.
</event>
<event>
 6    1  0.6981059E-006  0.1057038E+03  0.7561462E-02  0.1268739E+00
          2   -1    0    0  501    0  0.00000000000E+00  0.00000000000E+00  0.62674399893E+03  0.62674399893E+03  0.00000000000E+00 0.  1.
         -2   -1    0    0    0  501 -0.00000000000E+00 -0.00000000000E+00 -0.30112693150E+02  0.30112693150E+02  0.00000000000E+00 0. -1.
          5    1    1    2  502    0 -0.20042407963E+02  0.27662715345E+02  0.89730956367E+01  0.35565612360E+02  0.41800000000E+01 0. -1.
         -5    1    1    2    0  502 -0.27041224313E+02 -0.80554620961E+02  0.20774115662E+03  0.22448638116E+03  0.41800000000E+01 0. -1.
        -11    1    1    2    0    0  0.61126361616E+02  0.42558750458E+02  0.36852838935E+03  0.37597985728E+03  0.00000000000E+00 0.  1.
         11    1    1    2    0    0 -0.14042729340E+02  0.10333155158E+02  0.11388664178E+02  0.20824841286E+02  0.00000000000E+00 0. -1.
</event>
<event>
 6    1  0.6981059E-006  0.1593626E+03  0.7561462E-02  0.1189418E+00
         -2   -1    0    0    0  501 -0.00000000000E+00  0.00000000000E+00  0.15781758460E+03  0.15781758460E+03  0.00000000000E+00 0.  1.
          2   -1    0    0  501    0  0.00000000000E+00 -0.00000000000E+00 -0.19614144500E+03  0.19614144500E+03  0.00000000000E+00 0. -1.
          5    1    1    2  502    0 -0.74155082202E+02  0.50234581541E+00  0.18984599169E+02  0.76662350430E+02  0.41800000000E+01 0. -1.
         -5    1    1    2    0  502 -0.15437748161E+02  0.10460506390E+03 -0.30043594976E+02  0.11000287933E+03  0.41800000000E+01 0. -1.
        -11    1    1    2    0    0  0.44688523718E+02 -0.61627024937E+02  0.30667683290E+02  0.82069855325E+02  0.00000000000E+00 0.  1.
         11    1    1    2    0    0  0.44904306646E+02 -0.43480384774E+02 -0.57932547878E+02  0.85223944517E+02  0.00000000000E+00 0. -1.
</event>
<event>
 6    1  0.6981059E-006  0.1426804E+03  0.7561462E-02  0.1209767E+00
         -2   -1    0    0    0  501 -0.00000000000E+00  0.00000000000E+00  0.31621089428E+02  0.31621089428E+02  0.00000000000E+00 0.  1.
          2   -1    0    0  501    0  0.00000000000E+00 -0.00000000000E+00 -0.68469477764E+03  0.68469477764E+03  0.00000000000E+00 0. -1.
          5    1    1    2  502    0  0.13069925129E+02 -0.28518053768E+02 -0.34459533806E+02  0.46787115787E+02  0.41800000000E+01 0. -1.
         -5    1    1    2    0  502 -0.10679467509E+03  0.56812929501E+02 -0.29892217446E+03  0.32249767499E+03  0.41800000000E+01 0. -1.
        -11    1    1    2    0    0  0.75238152540E+02 -0.59825596695E+02 -0.25799214461E+03  0.27531768614E+03  0.00000000000E+00 0. -1.
         11    1    1    2    0    0  0.18486597418E+02  0.31530720961E+02 -0.61699835336E+02  0.71713390165E+02  0.00000000000E+00 0.  1.
</event>
<event>
 6    1  0.6981059E-006  0.1746899E+03  0.7561462E-02  0.1173043E+00
          2   -1    0    0  501    0  0.00000000000E+00  0.00000000000E+00  0.47291416241E+02  0.47291416241E+02  0.00000000000E+00 0.  1.
         -2   -1    0    0    0  501 -0.00000000000E+00 -0.00000000000E+00 -0.91092658857E+03  0.91092658857E+03  0.00000000000E+00 0. -1.
          5    1    1    2  502    0  0.14990367778E+02 -0.17306556443E+02 -0.17874252167E+02  0.29346027202E+02  0.41800000000E+01 0.  1.
         -5    1    1    2    0  502  0.11453485800E+03  0.95744189147E+02 -0.64185000608E+03  0.65899475428E+03  0.41800000000E+01 0.  1.
        -11    1    1    2    0    0 -0.65328426892E+02 -0.90327749002E+02 -0.12646438492E+03  0.16858275788E+03  0.00000000000E+00 0.  1.
         11    1    1    2    0    0 -0.64196798889E+02  0.11890116298E+02 -0.77446529155E+02  0.10129446545E+03  0.00000000000E+00 0. -1.
</event>
<event>
 6    1  0.6981059E-006  0.1190396E+03  0.7561462E-02  0.1244690E+00
          2   -1    0    0  501    0  0.00000000000E+00  0.00000000000E+00  0.28773519612E+03  0.28773519612E+03  0.00000000000E+00 0. -1.
         -2   -1    0    0    0  501 -0.00000000000E+00 -0.00000000000E+00 -0.57105195338E+02  0.57105195338E+02  0.00000000000E+00 0.  1.
          5    1    1    2  502    0 -0.84339460056E+02  0.28554277562E+02  0.41298182808E+02  0.98242066310E+02  0.41800000000E+01 0. -1.
         -5    1    1    2    0  502  0.21636935106E+02 -0.40131937687E+02  0.57178980337E+02  0.73250512460E+02  0.41800000000E+01 0. -1.
        -11    1    1    2    0    0  0.73787055748E+02 -0.14158399510E+02  0.60675030686E+02  0.96573543072E+02  0.00000000000E+00 0.  1.
         11    1    1    2    0    0 -0.11084530798E+02  0.25736059635E+02  0.71477806955E+02  0.76774269620E+02  0.00000000000E+00 0. -1.
</event>
<event>
 6    1  0.6981059E-006  0.8573796E+02  0.7561462E-02  0.1313514E+00
         -2   -1    0    0    0  501 -0.00000000000E+00  0.00000000000E+00  0.17510713036E+03  0.17510713036E+03  0.00000000000E+00 0.  1.
          2   -1    0    0  501    0  0.00000000000E+00 -0.00000000000E+00 -0.75772520901E+02  0.75772520901E+02  0.00000000000E+00 0. -1.
          5    1    1    2  502    0  0.40582374806E+02  0.48472375694E+02  0.96254381184E+02  0.11523401688E+03  0.41800000000E+01 0.  1.
         -5    1    1    2    0  502 -0.26495218104E+02 -0.31044558740E+02 -0.48438734527E+01  0.41312186092E+02  0.41800000000E+01 0.  1.
        -11    1    1    2    0    0 -0.14166856648E+01  0.23861281677E+02 -0.28950837401E+02  0.37543558006E+02  0.00000000000E+00 0. -1.
         11    1    1    2    0    0 -0.12670471037E+02 -0.41289098631E+02  0.36874939127E+02  0.56789890277E+02  0.00000000000E+00 0.  1.
</event>
<event>
 6    1  0.6981059E-006  0.1607619E+03  0.7561462E-02  0.1187839E+00
          2   -1    0    0  501    0  0.00000000000E+00  0.00000000000E+00  0.40322778536E+03  0.40322778536E+03  0.00000000000E+00 0. -1.
         -2   -1    0    0    0  501 -0.00000000000E+00 -0.00000000000E+00 -0.76066679032E+02  0.76066679032E+02  0.00000000000E+00 0.  1.
          5    1    1    2  502    0 -0.68197660686E+01  0.68945250995E+02  0.74471711977E+02  0.10180110573E+03  0.41800000000E+01 0. -1.
         -5    1    1    2    0  502  0.11005600533E+03  0.10739849921E+02  0.14882408289E+03  0.18545551686E+03  0.41800000000E+01 0. -1.
        -11    1    1    2    0    0 -0.65281653653E+02 -0.15827697294E+02  0.96237142489E+02  0.11736182471E+03  0.00000000000E+00 0. -1.
         11    1    1    2    0    0 -0.37954585610E+02 -0.63857403622E+02  0.76281689756E+01  0.74676017088E+02  0.00000000000E+00 0.  1.
</event>
<event>
 6    1  0.6981059E-006  0.1091897E+03  0.7561462E-02  0.1262078E+00
         -1   -1    0    0    0  501 -0.00000000000E+00  0.00000000000E+00  0.90917810063E+02  0.90917810063E+02  0.00000000000E+00 0.  1.
          1   -1    0    0  501    0  0.00000000000E+00 -0.00000000000E+00 -0.18251327392E+03  0.18251327392E+03  0.00000000000E+00 0. -1.
          5    1    1    2  502    0 -0.31731841356E+02 -0.71044941665E+01  0.55120983472E+01  0.33245138312E+02  0.41800000000E+01 0. -1.
         -5    1    1    2    0  502  0.99144455503E+02 -0.97631997109E+01 -0.19627525981E+02  0.10162507221E+03  0.41800000000E+01 0.  1.
        -11    1    1    2    0    0 -0.93083375621E+01 -0.16452040751E+02  0.15168638267E+02  0.24236385455E+02  0.00000000000E+00 0.  1.
         11    1    1    2    0    0 -0.58104276585E+02  0.33319734629E+02 -0.92648674492E+02  0.11432448801E+03  0.00000000000E+00 0. -1.
</event>
<event>
 6    1  0.6981059E-006  0.7288050E+02  0.7561462E-02  0.1350563E+00
          1   -1    0    0  501    0  0.00000000000E+00  0.00000000000E+00  0.50685236601E+02  0.50685236601E+02  0.00000000000E+00 0.  1.
         -1   -1    0    0    0  501 -0.00000000000E+00 -0.00000000000E+00 -0.30843524384E+03  0.30843524384E+03  0.00000000000E+00 0. -1.
          5    1    1    2  502    0  0.79920574563E+00  0.97721070032E+01 -0.13467945218E+03  0.13510055531E+03  0.41800000000E+01 0.  1.
         -5    1    1    2    0  502  0.12345695504E+02  0.49124159504E+02  0.96912319611E+01  0.51739652312E+02  0.41800000000E+01 0.  1.
        -11    1    1    2    0    0 -0.16256103595E+02  0.74340286328E+01  0.56642640268E+01  0.18751255232E+02  0.00000000000E+00 0.  1.
         11    1    1    2    0    0  0.31112023460E+01 -0.66330295139E+02 -0.13842605104E+03  0.15352901758E+03  0.00000000000E+00 0. -1.
</event>
<event>
 6    1  0.6981059E-006  0.1258962E+03  0.7561462E-02  0.1233675E+00
          4   -1    0    0  501    0  0.00000000000E+00  0.00000000000E+00  0.50836533318E+02  0.50836533318E+02  0.00000000000E+00 0. -1.
         -4   -1    0    0    0  501 -0.00000000000E+00 -0.00000000000E+00 -0.32577920596E+03  0.32577920596E+03  0.00000000000E+00 0.  1.
          5    1    1    2  502    0 -0.68825136778E+02 -0.17977650464E+02 -0.10208660065E+03  0.12449595094E+03  0.41800000000E+01 0. -1.
         -5    1    1    2    0  502  0.18803052905E+02  0.69187721535E+02 -0.75205160198E+02  0.10398934623E+03  0.41800000000E+01 0. -1.
        -11    1    1    2    0    0  0.66216018829E+02 -0.13363897001E+02 -0.44453544200E+02  0.80865768311E+02  0.00000000000E+00 0. -1.
         11    1    1    2    0    0 -0.16193934957E+02 -0.37846174069E+02 -0.53197367592E+02  0.67264673788E+02  0.00000000000E+00 0.  1.
</event>
<event>
 6    1  0.6981059E-006  0.8234001E+02  0.7561462E-02  0.1322539E+00
          1   -1    0    0  501    0  0.00000000000E+00  0.00000000000E+00  0.16733479102E+03  0.16733479102E+03  0.00000000000E+00 0. -1.
         -1   -1    0    0    0  501 -0.00000000000E+00 -0.00000000000E+00 -0.72699547009E+02  0.72699547009E+02  0.00000000000E+00 0.  1.
          5    1    1    2  502    0 -0.43360477027E+02 -0.32051641021E+02 -0.41138178538E+01  0.54238681377E+02  0.41800000000E+01 0.  1.
         -5    1    1    2    0  502  0.38469373643E+02  0.54612336020E+02  0.39813968783E+02  0.77878266958E+02  0.41800000000E+01 0.  1.
        -11    1    1    2    0    0  0.10751158713E+02 -0.31327350911E+02  0.78772039295E+02  0.85451884142E+02  0.00000000000E+00 0. -1.
         11    1    1    2    0    0 -0.58600553290E+01  0.87666559123E+01 -0.19836946217E+02  0.22465505549E+02  0.00000000000E+00 0.  1.
</event>
<event>
 6    1  0.6981059E-006  0.1662317E+03  0.7561462E-02  0.1181835E+00
         -1   -1    0    0    0  501 -0.00000000000E+00  0.00000000000E+00  0.65204243355E+02  0.65204243355E+02  0.00000000000E+00 0.  1.
          1   -1    0    0  501    0  0.00000000000E+00 -0.00000000000E+00 -0.51877883665E+03  0.51877883665E+03  0.00000000000E+00 0. -1.
          5    1    1    2  502    0 -0.57977775682E+02  0.97511886650E+02 -0.20512855757E+03  0.23444655690E+03  0.41800000000E+01 0. -1.
         -5    1    1    2    0  502 -0.54683081312E+02 -0.46732787858E+01 -0.13483571749E+02  0.56668845263E+02  0.41800000000E+01 0. -1.
        -11    1    1    2    0    0  0.57664473829E+02 -0.19874610504E+01 -0.37968670777E+02  0.69070699316E+02  0.00000000000E+00 0.  1.
         11    1    1    2    0    0  0.54996383165E+02 -0.90851146814E+02 -0.19699379321E+03  0.22379697853E+03  0.00000000000E+00 0. -1.
</event>
<event>
 6    1  0.6981059E-006  0.7446529E+02  0.7561462E-02  0.1345535E+00
         -2   -1    0    0    0  501 -0.00000000000E+00  0.00000000000E+00  0.22454452969E+03  0.22454452969E+03  0.00000000000E+00 0.  1.
          2   -1    0    0  501    0  0.00000000000E+00 -0.00000000000E+00 -0.54994086640E+02  0.54994086640E+02  0.00000000000E+00 0. -1.
          5    1    1    2  502    0  0.14997030249E+02  0.18043366691E+02 -0.21263633920E+02  0.31938824733E+02  0.41800000000E+01 0. -1.
         -5    1    1    2    0  502  0.32117317969E+02 -0.27980886894E+02  0.14951508926E+03  0.15552069464E+03  0.41800000000E+01 0.  1.
        -11    1    1    2    0    0 -0.38859965046E+02  0.37210882315E+02  0.27001804694E+02  0.60198372925E+02  0.00000000000E+00 0. -1.
         11    1    1    2    0    0 -0.82543831718E+01 -0.27273362112E+02  0.14297183012E+02  0.31880724028E+02  0.00000000000E+00 0.  1.
</event>
<event>
 6    1  0.6981059E-006  0.7033987E+02  0.7561462E-02  0.1358941E+00
          3   -1    0    0  501    0  0.00000000000E+00  0.00000000000E+00  0.11336042473E+03  0.11336042473E+03  0.00000000000E+00 0. -1.
         -3   -1    0    0    0  501 -0.00000000000E+00 -0.00000000000E+00 -0.12506960121E+03  0.12506960121E+03  0.00000000000E+00 0.  1.
          5    1    1    2  502    0 -0.16805577186E+02  0.11841080623E+02  0.36222115253E+02  0.41858722487E+02  0.41800000000E+01 0.  1.
         -5    1    1    2    0  502  0.14663187879E+02 -0.25806025868E+02 -0.90312321829E+02  0.95156439214E+02  0.41800000000E+01 0.  1.
        -11    1    1    2    0    0 -0.30322686072E+01  0.51624589816E+02  0.12870551467E+02  0.53291125168E+02  0.00000000000E+00 0.  1.
         11    1    1    2    0    0  0.51746579144E+01 -0.37659644571E+02  0.29510478624E+02  0.48123739073E+02  0.00000000000E+00 0. -1.
</event>
<event>
 6    1  0.6981059E-006  0.1152510E+03  0.7561462E-02  0.1251144E+00
          2   -1    0    0  501    0  0.00000000000E+00  0.00000000000E+00  0.37571655279E+03  0.37571655279E+03  0.00000000000E+00 0. -1.
         -2   -1    0    0    0  501 -0.00000000000E+00 -0.00000000000E+00 -0.46763736871E+02  0.46763736871E+02  0.00000000000E+00 0.  1.
          5    1    1    2  502    0  0.38540265247E+02  0.31418096526E+02  0.10280392588E+02  0.50947106948E+02  0.41800000000E+01 0.  1.
         -5    1    1    2    0  502  0.36638421117E+00 -0.77985083897E+02  0.97773816695E+02  0.12513592282E+03  0.41800000000E+01 0.  1.
        -11    1    1    2    0    0 -0.55332131707E+02  0.59756080819E+02  0.20309903277E+03  0.21881876315E+03  0.00000000000E+00 0. -1.
         11    1    1    2    0    0  0.16425482249E+02 -0.13189093447E+02  0.17799573867E+02  0.27578496748E+02  0.00000000000E+00 0.  1.
</event>
<event>
 6    1  0.6981059E-006  0.1029040E+03  0.7561462E-02  0.1274305E+00
         -2   -1    0    0    0  501 -0.00000000000E+00  0.00000000000E+00  0.40971918109E+03  0.40971918109E+03  0.00000000000E+00 0.  1.
          2   -1    0    0  501    0  0.00000000000E+00 -0.00000000000E+00 -0.45608427548E+02  0.45608427548E+02  0.00000000000E+00 0. -1.
          5    1    1    2  502    0 -0.39359519171E+02  0.80304176652E+00  0.22873532142E+03  0.23213602972E+03  0.41800000000E+01 0. -1.
         -5    1    1    2    0  502  0.60561130522E+02  0.30195500089E+02  0.92936184242E+02  0.11503923460E+03  0.41800000000E+01 0. -1.
        -11    1    1    2    0    0  0.33138785939E+02  0.45993832508E+01  0.22035649583E+02  0.40061244518E+02  0.00000000000E+00 0.  1.
         11    1    1    2    0    0 -0.54340397290E+02 -0.35597925106E+02  0.20403598296E+02  0.68091099807E+02  0.00000000000E+00 0. -1.
</event>
<event>
 6    1  0.6981059E-006  0.7584551E+02  0.7561462E-02  0.1341273E+00
         -3   -1    0    0    0  501 -0.00000000000E+00  0.00000000000E+00  0.20047189860E+03  0.20047189860E+03  0.00000000000E+00 0.  1.
          3   -1    0    0  501    0  0.00000000000E+00 -0.00000000000E+00 -0.83028915980E+02  0.83028915980E+02  0.00000000000E+00 0. -1.
          5    1    1    2  502    0  0.16354547182E+02 -0.62330744196E+01 -0.20913936660E+02  0.27589628067E+02  0.41800000000E+01 0.  1.
         -5    1    1    2    0  502 -0.52533777464E+02  0.42660120239E+02  0.12817574243E+03  0.14500405850E+03  0.41800000000E+01 0.  1.
        -11    1    1    2    0    0  0.21971245350E+02  0.46253832364E+01  0.48203474299E+02  0.53176166906E+02  0.00000000000E+00 0.  1.
         11    1    1    2    0    0  0.14207984932E+02 -0.41052429055E+02 -0.38022297451E+02  0.57730961109E+02  0.00000000000E+00 0. -1.
</event>
<event>
 6    1  0.6981059E-006  0.1707958E+03  0.7561462E-02  0.1177021E+00
          1   -1    0    0  501    0  0.00000000000E+00  0.00000000000E+00  0.24209641057E+02  0.24209641057E+02  0.00000000000E+00 0. -1.
         -1   -1    0    0    0  501 -0.00000000000E+00 -0.00000000000E+00 -0.13126340496E+04  0.13126340496E+04  0.00000000000E+00 0.  1.
          5    1    1    2  502    0  0.72915239379E+02  0.77185551085E+02 -0.55866223514E+03  0.56867847401E+03  0.41800000000E+01 0. -1.
         -5    1    1    2    0  502  0.59171503493E+02 -0.45653904312E+02 -0.26109944815E+03  0.27161726755E+03  0.41800000000E+01 0. -1.
        -11    1    1    2    0    0 -0.10221302439E+02  0.24350416418E+02 -0.12285243577E+03  0.12565881894E+03  0.00000000000E+00 0. -1.
         11    1    1    2    0    0 -0.12186544043E+03 -0.55882063191E+02 -0.34581028948E+03  0.37088913015E+03  0.00000000000E+00 0.  1.
</event>
<event>
 6    1  0.6981059E-006  0.5486541E+02  0.7561462E-02  0.1420736E+00
          2   -1    0    0  501    0  0.00000000000E+00  0.00000000000E+00  0.75401558953E+03  0.75401558953E+03  0.00000000000E+00 0.  1.
         -2   -1    0    0    0  501 -0.00000000000E+00 -0.00000000000E+00 -0.17310102242E+02  0.17310102242E+02  0.00000000000E+00 0. -1.
          5    1    1    2  502    0 -0.20593334324E+00 -0.87556803127E+01  0.31371563503E+03  0.31386569804E+03  0.41800000000E+01 0.  1.
         -5    1    1    2    0  502 -0.50408706374E+01  0.45681534126E+01 -0.11090380466E+02  0.13665553090E+02  0.41800000000E+01 0.  1.
        -11    1    1    2    0    0  0.25602483018E+02  0.41948245780E+02  0.21370996634E+03  0.21928769271E+03  0.00000000000E+00 0.  1.
         11    1    1    2    0    0 -0.20355679037E+02 -0.37760718880E+02  0.22037026638E+03  0.22450674793E+03  0.00000000000E+00 0. -1.
</event>
<event>
 6    1  0.6981059E-006  0.1637160E+03  0.7561462E-02  0.1184564E+00
          3   -1    0    0  501    0  0.00000000000E+00  0.00000000000E+00  0.53423185764E+02  0.53423185764E+02  0.00000000000E+00 0. -1.
         -3   -1    0    0    0  501 -0.00000000000E+00 -0.00000000000E+00 -0.75322885311E+03  0.75322885311E+03  0.00000000000E+00 0.  1.
          5    1    1    2  502    0 -0.89454276210E+02  0.11735372225E+03 -0.47586124028E+03  0.49823223105E+03  0.41800000000E+01 0. -1.
         -5    1    1    2    0  502  0.28457329831E+02 -0.70164277782E+01 -0.11437793731E+03  0.11814751298E+03  0.41800000000E+01 0. -1.
        -11    1    1    2    0    0  0.73733745582E+02 -0.51332040924E+02 -0.89100988333E+02  0.12653311735E+03  0.00000000000E+00 0. -1.
         11    1    1    2    0    0 -0.12736799203E+02 -0.59005253543E+02 -0.20465501420E+02  0.63739177497E+02  0.00000000000E+00 0.  1.
</event>
<event>
 6    1  0.6981059E-006  0.9623620E+02  0.7561462E-02  0.1288416E+00
          1   -1    0    0  501    0  0.00000000000E+00  0.00000000000E+00  0.57985748749E+03  0.57985748749E+03  0.00000000000E+00 0. -1.
         -1   -1    0    0    0  501 -0.00000000000E+00 -0.00000000000E+00 -0.20968930206E+02  0.20968930206E+02  0.00000000000E+00 0.  1.
          5    1    1    2  502    0  0.37825723285E+02 -0.44845428287E+02  0.80675282815E+02  0.99839227950E+02  0.41800000000E+01 0. -1.
         -5    1    1    2    0  502 -0.46024743357E+02  0.37269928593E+01  0.19720439766E+03  0.20258137707E+03  0.41800000000E+01 0.  1.
        -11    1    1    2    0    0  0.41013015009E+01 -0.22838442943E+02  0.23436320969E+02  0.32979937699E+02  0.00000000000E+00 0.  1.
         11    1    1    2    0    0  0.40977185709E+01  0.63956878371E+02  0.25757255584E+03  0.26542587498E+03  0.00000000000E+00 0. -1.
</event>
<event>
 6    1  0.6981059E-006  0.9300890E+02  0.7561462E-02  0.1295725E+00
         -2   -1    0    0    0  501 -0.00000000000E+00  0.00000000000E+00  0.14681111938E+03  0.14681111938E+03  0.00000000000E+00 0.  1.
          2   -1    0    0  501    0  0.00000000000E+00 -0.00000000000E+00 -0.73937754917E+02  0.73937754917E+02  0.00000000000E+00 0. -1.
          5    1    1    2  502    0 -0.49477173845E+02  0.13598266035E+02  0.25446248587E+02  0.57427236901E+02  0.41800000000E+01 0. -1.
         -5    1    1    2    0  502  0.56006901274E+02 -0.14125908335E+02  0.48736876180E+02  0.75690618814E+02  0.41800000000E+01 0.  1.
        -11    1    1    2    0    0 -0.36861034379E+02 -0.18062989582E+02 -0.21901377894E+02  0.46526098072E+02  0.00000000000E+00 0. -1.
         11    1    1    2    0    0  0.30331306950E+02  0.18590631882E+02  0.20591617587E+02  0.41104920507E+02  0.00000000000E+00 0.  1.
</event>
<event>
 6    1  0.6981059E-006  0.1284405E+03  0.7561462E-02  0.1229788E+00
         -3   -1    0    0    0  501 -0.00000000000E+00  0.00000000000E+00  0.10938187638E+03  0.10938187638E+03  0.00000000000E+00 0.  1.
          3   -1    0    0  501    0  0.00000000000E+00 -0.00000000000E+00 -0.16111225014E+03  0.16111225014E+03  0.00000000000E+00 0. -1.
          5    1    1    2  502    0  0.32496674873E+02  0.46427155844E+02 -0.89273193336E+01  0.57521162263E+02  0.41800000000E+01 0.  1.
         -5    1    1    2    0  502  0.34393962974E+02 -0.81583344024E+02 -0.32171041766E+02  0.94293345680E+02  0.41800000000E+01 0.  1.
        -11    1    1    2    0    0  0.17503408298E+01  0.42366554321E+02 -0.23488610349E+02  0.48473739635E+02  0.00000000000E+00 0. -1.
         11    1    1    2    0    0 -0.68640978677E+02 -0.72103661417E+01  0.12856597693E+02  0.70205878941E+02  0.00000000000E+00 0.  1.
</event>
<event>
 6    1  0.6981059E-006  0.1966723E+03  0.7561462E-02  0.1152577E+00
          3   -1    0    0  501    0  0.00000000000E+00  0.00000000000E+00  0.29021890654E+03  0.29021890654E+03  0.00000000000E+00 0. -1.
         -3   -1    0    0    0  501 -0.00000000000E+00 -0.00000000000E+00 -0.14429703001E+03  0.14429703001E+03  0.00000000000E+00 0.  1.
          5    1    1    2  502    0  0.13904843420E+03 -0.98710889356E+02  0.69792333296E+02  0.18430070244E+03  0.41800000000E+01 0. -1.
         -5    1    1    2    0  502 -0.24274367378E+02 -0.37040582477E+02  0.37132549759E+02  0.57944355321E+02  0.41800000000E+01 0. -1.
        -11    1    1    2    0    0 -0.17207976973E+02  0.28542821463E+02 -0.16328508058E+02  0.37113707764E+02  0.00000000000E+00 0.  1.
         11    1    1    2    0    0 -0.97566089852E+02  0.10720865037E+03  0.55325501532E+02  0.15515717103E+03  0.00000000000E+00 0. -1.
</event>
<event>
 6    1  0.8667690E-006  0.1861807E+03  0.7561462E-02  0.1161952E+00
         -3   -1    0    0    0  501 -0.00000000000E+00  0.00000000000E+00  0.59835636340E+02  0.59835636340E+02  0.00000000000E+00 0.  1.
          3   -1    0    0  501    0  0.00000000000E+00 -0.00000000000E+00 -0.69928879629E+03  0.69928879629E+03  0.00000000000E+00 0. -1.
          5    1    1    2  502    0  0.29769092648E+01 -0.77965773819E+02 -0.23988762830E+03  0.25229163776E+03  0.41800000000E+01 0. -1.
         -5    1    1    2    0  502  0.58213553047E+02 -0.82735352036E+02 -0.68289594987E+02  0.12212656312E+03  0.41800000000E+01 0. -1.
        -11    1    1    2    0    0  0.16559251551E+02  0.76904321519E+02 -0.16665981645E+03  0.18429318462E+03  0.00000000000E+00 0. -1.
         11    1    1    2    0    0 -0.77749713863E+02  0.83796804337E+02 -0.16461612022E+03  0.20041304713E+03  0.00000000000E+00 0.  1.
</event>
<event>
 6    1  0.6981059E-006  0.1127273E+03  0.7561462E-02  0.1255601E+00
          1   -1    0    0  501    0  0.00000000000E+00  0.00000000000E+00  0.60966482865E+03  0.60966482865E+03  0.00000000000E+00 0. -1.
         -1   -1    0    0    0  501 -0.00000000000E+00 -0.00000000000E+00 -0.33097872767E+02  0.33097872767E+02  0.00000000000E+00 0.  1.
          5    1    1    2  502    0  0.19503461422E+02  0.24068350954E+02  0.36719906433E+01  0.31474218662E+02  0.41800000000E+01 0.  1.
         -5    1    1    2    0  502 -0.61755400313E+02 -0.64039839247E+02  0.15511478131E+03  0.17886558713E+03  0.41800000000E+01 0.  1.
        -11    1    1    2    0    0  0.57005557905E+02  0.58343217233E+02  0.37307741118E+03  0.38189045466E+03  0.00000000000E+00 0. -1.
         11    1    1    2    0    0 -0.14753619015E+02 -0.18371728940E+02  0.44702772748E+02  0.50532440962E+02  0.00000000000E+00 0.  1.
</event>
<event>
 6    1  0.6981059E-006  0.1069371E+03  0.7561462E-02  0.1266349E+00
          3   -1    0    0  501    0  0.00000000000E+00  0.00000000000E+00  0.40089049930E+03  0.40089049930E+03  0.00000000000E+00 0. -1.
         -3   -1    0    0    0  501 -0.00000000000E+00 -0.00000000000E+00 -0.38814466815E+02  0.38814466815E+02  0.00000000000E+00 0.  1.
          5    1    1    2  502    0 -0.42013198674E+02 -0.42726300317E+02  0.15730362410E+03  0.16838214916E+03  0.41800000000E+01 0.  1.
         -5    1    1    2    0  502 -0.18210585467E+02  0.53424501603E+02  0.27277836707E+02  0.62827983972E+02  0.41800000000E+01 0.  1.
        -11    1    1    2    0    0  0.29285449432E+02  0.32709759131E+02  0.34342279327E+02  0.55740093651E+02  0.00000000000E+00 0.  1.
         11    1    1    2    0    0  0.30938334709E+02 -0.43407960418E+02  0.14315229235E+03  0.15275473933E+03  0.00000000000E+00 0. -1.
</event>
<event>
 6    1  0.6981059E-006  0.1112269E+03  0.7561462E-02  0.1258315E+00
         -4   -1    0    0    0  501 -0.00000000000E+00  0.00000000000E+00  0.24104239332E+02  0.24104239332E+02  0.00000000000E+00 0. -1.
          4   -1    0    0  501    0  0.00000000000E+00 -0.00000000000E+00 -0.54348047918E+03  0.54348047918E+03  0.00000000000E+00 0.  1.
          5    1    1    2  502    0 -0.34708838090E+02 -0.36737676636E+02 -0.86370097699E+02  0.10015800768E+03  0.41800000000E+01 0.  1.
         -5    1    1    2    0  502  0.37087626303E+02  0.68321951172E+02 -0.16185013673E+03  0.17960044598E+03  0.41800000000E+01 0.  1.
        -11    1    1    2    0    0  0.42844807577E+02 -0.19532289684E+02 -0.10252368004E+03  0.11281973607E+03  0.00000000000E+00 0. -1.
         11    1    1    2    0    0 -0.45223595790E+02 -0.12051984851E+02 -0.16863232537E+03  0.17500652878E+03  0.00000000000E+00 0.  1.
</event>
<event>
 6    1  0.6981059E-006  0.9231747E+02  0.7561462E-02  0.1297335E+00
         -2   -1    0    0    0  501 -0.00000000000E+00  0.00000000000E+00  0.48729740459E+02  0.48729740459E+02  0.00000000000E+00 0.  1.
          2   -1    0    0  501    0  0.00000000000E+00 -0.00000000000E+00 -0.31015975858E+03  0.31015975858E+03  0.00000000000E+00 0. -1.
          5    1    1    2  502    0  0.19670868062E+02 -0.61823231549E+02 -0.18590644961E+03  0.19694602158E+03  0.41800000000E+01 0. -1.
         -5    1    1    2    0  502 -0.21852710888E+02  0.84115168762E+01  0.96766855799E+01  0.25678886913E+02  0.41800000000E+01 0. -1.
        -11    1    1    2    0    0 -0.37209322805E+02  0.38972551227E+02 -0.17564899229E+02  0.56673795864E+02  0.00000000000E+00 0.  1.
         11    1    1    2    0    0  0.39391165631E+02  0.14439163446E+02 -0.67635354860E+02  0.79590794680E+02  0.00000000000E+00 0. -1.
</event>
<event>
 6    1  0.6981059E-006  0.1063505E+03  0.7561462E-02  0.1267481E+00
          2   -1    0    0  501    0  0.00000000000E+00  0.00000000000E+00  0.40803521728E+02  0.40803521728E+02  0.00000000000E+00 0. -1.
         -2   -1    0    0    0  501 -0.00000000000E+00 -0.00000000000E+00 -0.46446848101E+03  0.46446848101E+03  0.00000000000E+00 0.  1.
          5    1    1    2  502    0  0.56291419301E+02  0.28317476173E+01 -0.25934350185E+02  0.62183644160E+02  0.41800000000E+01 0. -1.
         -5    1    1    2    0  502  0.11293365050E+02 -0.38283107826E+02 -0.22369408810E+03  0.22726560208E+03  0.41800000000E+01 0. -1.
        -11    1    1    2    0    0 -0.47776974706E+02  0.64882555724E+02 -0.15699758699E+03  0.17646707248E+03  0.00000000000E+00 0.  1.
         11    1    1    2    0    0 -0.19807809644E+02 -0.29431195515E+02 -0.17038934012E+02  0.39355684019E+02  0.00000000000E+00 0. -1.
</event>
<event>
 6    1  0.6981059E-006  0.3545698E+03  0.7561462E-02  0.1060755E+00
         -2   -1    0    0    0  501 -0.00000000000E+00  0.00000000000E+00  0.10499361064E+04  0.10499361064E+04  0.00000000000E+00 0.  1.
          2   -1    0    0  501    0  0.00000000000E+00 -0.00000000000E+00 -0.12786348258E+03  0.12786348258E+03  0.00000000000E+00 0. -1.
          5    1    1    2  502    0 -0.24893847237E+03 -0.61988537893E+02  0.46047563254E+03  0.52713207303E+03  0.41800000000E+01 0.  1.
         -5    1    1    2    0  502 -0.56381113853E+02 -0.86167379027E+02  0.13967248353E+03  0.17357857663E+03  0.41800000000E+01 0.  1.
        -11    1    1    2    0    0  0.22326921566E+03  0.64661570691E+02  0.24065349402E+03  0.33458088046E+03  0.00000000000E+00 0. -1.
         11    1    1    2    0    0  0.82050370566E+02  0.83494346229E+02  0.81271013674E+02  0.14250805881E+03  0.00000000000E+00 0.  1.
</event>
<event>
 6    1  0.6981059E-006  0.1050849E+03  0.7561462E-02  0.1269953E+00
          1   -1    0    0  501    0  0.00000000000E+00  0.00000000000E+00  0.43983302865E+02  0.43983302865E+02  0.00000000000E+00 0. -1.
         -1   -1    0    0    0  501 -0.00000000000E+00 -0.00000000000E+00 -0.36700548085E+03  0.36700548085E+03  0.00000000000E+00 0.  1.
          5    1    1    2  502    0  0.34991033884E+01 -0.31154409835E+02 -0.13561613005E+03  0.13925533422E+03  0.41800000000E+01 0.  1.
         -5    1    1    2    0  502 -0.52293858446E+02  0.66242026078E+02 -0.75036879749E+02  0.11300734212E+03  0.41800000000E+01 0.  1.
        -11    1    1    2    0    0  0.38085337867E+02  0.16390408672E+02 -0.85262149924E+01  0.42330069678E+02  0.00000000000E+00 0.  1.
         11    1    1    2    0    0  0.10709417190E+02 -0.51478024916E+02 -0.10384295319E+03  0.11639603770E+03  0.00000000000E+00 0. -1.
</event>
<event>
 6    1  0.6981059E-006  0.1066006E+03  0.7561462E-02  0.1266998E+00
          2   -1    0    0  501    0  0.00000000000E+00  0.00000000000E+00  0.46069745121E+02  0.46069745121E+02  0.00000000000E+00 0. -1.
         -2   -1    0    0    0  501 -0.00000000000E+00 -0.00000000000E+00 -0.36904706325E+03  0.36904706325E+03  0.00000000000E+00 0.  1.
          5    1    1    2  502    0  0.55633867971E+02  0.65723846406E+01 -0.11326398188E+02  0.57306921059E+02  0.41800000000E+01 0.  1.
         -5    1    1    2    0  502  0.82802143100E+01 -0.40632084768E+02 -0.16761810280E+03  0.17272182562E+03  0.41800000000E+01 0.  1.
        -11    1    1    2    0    0  0.23065837080E+02  0.46486423831E+01 -0.39306299378E+02  0.45810783524E+02  0.00000000000E+00 0.  1.
         11    1    1    2    0    0 -0.86979919361E+02  0.29411057744E+02 -0.10472651777E+03  0.13927727817E+03  0.00000000000E+00 0. -1.
</event>
<event>
 6    1  0.6981059E-006  0.9737858E+02  0.7561462E-02  0.1285907E+00
         -3   -1    0    0    0  501 -0.00000000000E+00  0.00000000000E+00  0.67982662910E+03  0.67982662910E+03  0.00000000000E+00 0.  1.
          3   -1    0    0  501    0  0.00000000000E+00 -0.00000000000E+00 -0.25970126312E+02  0.25970126312E+02  0.00000000000E+00 0. -1.
          5    1    1    2  502    0 -0.89465325250E+01  0.45233378093E+02  0.45289843580E+03  0.45525878848E+03  0.41800000000E+01 0.  1.
         -5    1    1    2    0  502 -0.33621590385E+02 -0.29407066687E+02  0.61809304178E+02  0.76374402742E+02  0.41800000000E+01 0.  1.
        -11    1    1    2    0    0  0.70006265094E+02  0.34051603800E+01  0.10563959608E+03  0.12677616704E+03  0.00000000000E+00 0.  1.
         11    1    1    2    0    0 -0.27438142184E+02 -0.19231471786E+02  0.33509166722E+02  0.47387397143E+02  0.00000000000E+00 0. -1.
</event>
<event>
 6    1  0.6981059E-006  0.1572531E+03  0.7561462E-02  0.1191833E+00
         -2   -1    0    0    0  501 -0.00000000000E+00  0.00000000000E+00  0.22591553172E+03  0.22591553172E+03  0.00000000000E+00 0.  1.
          2   -1    0    0  501    0  0.00000000000E+00 -0.00000000000E+00 -0.11734722448E+03  0.11734722448E+03  0.00000000000E+00 0. -1.
          5    1    1    2  502    0  0.10573024717E+03  0.90551815902E+01  0.71520992448E+02  0.12803751888E+03  0.41800000000E+01 0. -1.
         -5    1    1    2    0  502 -0.57203339106E+01 -0.61245778837E+02  0.29162094833E+02  0.68203136441E+02  0.41800000000E+01 0. -1.
        -11    1    1    2    0    0 -0.75372295973E+02 -0.13429682834E+02  0.70897943951E+00  0.76562667359E+02  0.00000000000E+00 0.  1.
         11    1    1    2    0    0 -0.24637617288E+02  0.65620280080E+02  0.71762405270E+01  0.70459433517E+02  0.00000000000E+00 0. -1.
</event>
<event>
 6    1  0.6981059E-006  0.1763033E+03  0.7561462E-02  0.1171429E+00
         -2   -1    0    0    0  501 -0.00000000000E+00  0.00000000000E+00  0.17356200746E+03  0.17356200746E+03  0.00000000000E+00 0. -1.
          2   -1    0    0  501    0  0.00000000000E+00 -0.00000000000E+00 -0.20577229679E+03  0.20577229679E+03  0.00000000000E+00 0.  1.
          5    1    1    2  502    0 -0.26269808876E+02  0.89804355897E+01  0.33401785254E+02  0.43633733967E+02  0.41800000000E+01 0.  1.
         -5    1    1    2    0  502  0.66560673274E+02  0.13660016984E+03 -0.18089712404E+02  0.15308376701E+03  0.41800000000E+01 0.  1.
        -11    1    1    2    0    0 -0.32023649630E+02 -0.58603831012E+01  0.53627538547E+01  0.32994201833E+02  0.00000000000E+00 0.  1.
         11    1    1    2    0    0 -0.82672147682E+01 -0.13972022232E+03 -0.52885116034E+02  0.14962260145E+03  0.00000000000E+00 0. -1.
</event>
<event>
 6    1  0.6981059E-006  0.6715764E+02  0.7561462E-02  0.1370034E+00
         -1   -1    0    0    0  501 -0.00000000000E+00  0.00000000000E+00  0.44937850460E+02  0.44937850460E+02  0.00000000000E+00 0.  1.
          1   -1    0    0  501    0  0.00000000000E+00 -0.00000000000E+00 -0.27513965080E+03  0.27513965080E+03  0.00000000000E+00 0. -1.
          5    1    1    2  502    0  0.67666536196E+01 -0.23423010772E+02  0.16803616440E+02  0.29904162926E+02  0.41800000000E+01 0. -1.
         -5    1    1    2    0  502 -0.35946102963E+02  0.18038501768E+02 -0.14943770683E+03  0.15481153215E+03  0.41800000000E+01 0. -1.
        -11    1    1    2    0    0  0.45351193143E+02 -0.10418722521E+02 -0.13711606542E+02  0.48510706575E+02  0.00000000000E+00 0. -1.
         11    1    1    2    0    0 -0.16171743799E+02  0.15803231526E+02 -0.83856103417E+02  0.86851099615E+02  0.00000000000E+00 0.  1.
</event>
<event>
 6    1  0.6981059E-006  0.9302697E+02  0.7561462E-02  0.1295683E+00
         -1   -1    0    0    0  501 -0.00000000000E+00  0.00000000000E+00  0.24053567696E+03  0.24053567696E+03  0.00000000000E+00 0.  1.
          1   -1    0    0  501    0  0.00000000000E+00 -0.00000000000E+00 -0.73335500967E+02  0.73335500967E+02  0.00000000000E+00 0. -1.
          5    1    1    2  502    0 -0.33935918481E+02 -0.37566672942E+02  0.94491725015E-01  0.50797468517E+02  0.41800000000E+01 0. -1.
         -5    1    1    2    0  502 -0.29212640582E+02  0.39776223920E+02  0.14085064142E+03  0.14930472848E+03  0.41800000000E+01 0.  1.
        -11    1    1    2    0    0 -0.11082426060E+02 -0.30449031006E+01  0.37014370937E+02  0.38757647737E+02  0.00000000000E+00 0.  1.
         11    1    1    2    0    0  0.74230985123E+02  0.83535212338E+00 -0.10759328092E+02  0.75011333187E+02  0.00000000000E+00 0. -1.
</event>
<event>
 6    1  0.6981059E-006  0.8623241E+02  0.7561462E-02  0.1312241E+00
          1   -1    0    0  501    0  0.00000000000E+00  0.00000000000E+00  0.43194447630E+02  0.43194447630E+02  0.00000000000E+00 0. -1.
         -1   -1    0    0    0  501 -0.00000000000E+00 -0.00000000000E+00 -0.34605547110E+03  0.34605547110E+03  0.00000000000E+00 0.  1.
          5    1    1    2  502    0  0.78187849306E+02  0.34263220201E+02 -0.19868647686E+03  0.21628938145E+03  0.41800000000E+01 0.  1.
         -5    1    1    2    0  502 -0.33706738898E+02 -0.12035756971E+02 -0.22024576129E+02  0.42232192066E+02  0.41800000000E+01 0.  1.
        -11    1    1    2    0    0 -0.17469651161E+02 -0.28057839808E+01  0.17974162712E+02  0.25221650633E+02  0.00000000000E+00 0. -1.
         11    1    1    2    0    0 -0.27011459246E+02 -0.19421679249E+02 -0.10012413319E+03  0.10550669459E+03  0.00000000000E+00 0.  1.
</event>
<event>
 6    1  0.6981059E-006  0.1019746E+03  0.7561462E-02  0.1276198E+00
         -4   -1    0    0    0  501 -0.00000000000E+00  0.00000000000E+00  0.38105656436E+03  0.38105656436E+03  0.00000000000E+00 0.  1.
          4   -1    0    0  501    0  0.00000000000E+00 -0.00000000000E+00 -0.35366103969E+02  0.35366103969E+02  0.00000000000E+00 0. -1.
          5    1    1    2  502    0  0.37435143831E+02  0.11368736197E+01  0.20485637861E+02  0.42893079090E+02  0.41800000000E+01 0. -1.
         -5    1    1    2    0  502 -0.67540250692E+02 -0.20066744619E+02  0.21269527440E+03  0.22410067349E+03  0.41800000000E+01 0. -1.
        -11    1    1    2    0    0  0.53669434300E+02 -0.13740289457E+02  0.47624071393E+02  0.73056525434E+02  0.00000000000E+00 0. -1.
         11    1    1    2    0    0 -0.23564327439E+02  0.32670160456E+02  0.64885476730E+02  0.76372390315E+02  0.00000000000E+00 0.  1.
</event>
<event>
 6    1  0.6981059E-006  0.1139008E+03  0.7561462E-02  0.1253512E+00
          1   -1    0    0  501    0  0.00000000000E+00  0.00000000000E+00  0.14770603774E+03  0.14770603774E+03  0.00000000000E+00 0. -1.
         -1   -1    0    0    0  501 -0.00000000000E+00 -0.00000000000E+00 -0.93219270263E+02  0.93219270263E+02  0.00000000000E+00 0.  1.
          5    1    1    2  502    0  0.15098561252E+02 -0.42271844480E+02 -0.58945636305E+00  0.45085421661E+02  0.41800000000E+01 0.  1.
         -5    1    1    2    0  502 -0.55160989340E+02  0.65137215664E+02  0.36951277161E+02  0.93104569669E+02  0.41800000000E+01 0.  1.
        -11    1    1    2    0    0  0.56957735043E+02  0.12280156289E+02  0.24525734907E+02  0.63217857386E+02  0.00000000000E+00 0.  1.
         11    1    1    2    0    0 -0.16895306955E+02 -0.35145527473E+02 -0.64007882287E+01  0.39517459286E+02  0.00000000000E+00 0. -1.
</event>
<event>
 6    1  0.6981059E-006  0.9620564E+02  0.7561462E-02  0.1288484E+00
         -3   -1    0    0    0  501 -0.00000000000E+00  0.00000000000E+00  0.53683690970E+02  0.53683690970E+02  0.00000000000E+00 0.  1.
          3   -1    0    0  501    0  0.00000000000E+00 -0.00000000000E+00 -0.25971881801E+03  0.25971881801E+03  0.00000000000E+00 0. -1.
          5    1    1    2  502    0  0.19029340023E+02  0.42606811035E+02 -0.63408614916E+02  0.78838955941E+02  0.41800000000E+01 0. -1.
         -5    1    1    2    0  502 -0.53973135273E+02 -0.47552477333E+02 -0.17124341521E+02  0.74061143012E+02  0.41800000000E+01 0. -1.
        -11    1    1    2    0    0  0.89441598024E+00 -0.26882907753E+02 -0.10704345738E+03  0.11037115781E+03  0.00000000000E+00 0. -1.
         11    1    1    2    0    0  0.34049379269E+02  0.31828574051E+02 -0.18458713225E+02  0.50131252215E+02  0.00000000000E+00 0.  1.
</event>
<event>
 6    1  0.6981059E-006  0.1151732E+03  0.7561462E-02  0.1251279E+00
          2   -1    0    0  501    0  0.00000000000E+00  0.00000000000E+00  0.48784441555E+03  0.48784441555E+03  0.00000000000E+00 0.  1.
         -2   -1    0    0    0  501 -0.00000000000E+00 -0.00000000000E+00 -0.39800208070E+02  0.39800208070E+02  0.00000000000E+00 0. -1.
          5    1    1    2  502    0  0.89201871989E+02 -0.83373831210E+01  0.13124733947E+03  0.15896484656E+03  0.41800000000E+01 0. -1.
         -5    1    1    2    0  502 -0.24956631094E+02  0.29895025021E+02  0.77416582400E+01  0.39924323775E+02  0.41800000000E+01 0. -1.
        -11    1    1    2    0    0  0.14522411739E+02  0.89089004891E+01  0.14629288369E+02  0.22456291520E+02  0.00000000000E+00 0. -1.
         11    1    1    2    0    0 -0.78767652633E+02 -0.30466542389E+02  0.29442592139E+03  0.30629916176E+03  0.00000000000E+00 0.  1.
</event>
<event>
 6    1  0.6981059E-006  0.1296605E+03  0.7561462E-02  0.1227960E+00
          2   -1    0    0  501    0  0.00000000000E+00  0.00000000000E+00  0.45832267123E+03  0.45832267123E+03  0.00000000000E+00 0. -1.
         -2   -1    0    0    0  501 -0.00000000000E+00 -0.00000000000E+00 -0.64260798795E+02  0.64260798795E+02  0.00000000000E+00 0.  1.
          5    1    1    2  502    0  0.35520735784E+02 -0.81639529894E+02 -0.87476729914E+00  0.89134578755E+02  0.41800000000E+01 0. -1.
         -5    1    1    2    0  502 -0.51240161230E+02  0.51184597450E+02  0.10592081038E+03  0.12838266086E+03  0.41800000000E+01 0.  1.
        -11    1    1    2    0    0  0.15304008735E+02  0.63134444913E+02  0.19103503922E+03  0.20177848505E+03  0.00000000000E+00 0.  1.
         11    1    1    2    0    0  0.41541671020E+00 -0.32679512469E+02  0.97980790128E+02  0.10328774535E+03  0.00000000000E+00 0. -1.
</event>
<event>
 6    1  0.6981059E-006  0.1090715E+03  0.7561462E-02  0.1262299E+00
         -2   -1    0    0    0  501 -0.00000000000E+00  0.00000000000E+00  0.56749081501E+02  0.56749081501E+02  0.00000000000E+00 0.  1.
          2   -1    0    0  501    0  0.00000000000E+00 -0.00000000000E+00 -0.30601685283E+03  0.30601685283E+03  0.00000000000E+00 0. -1.
          5    1    1    2  502    0  0.65226056028E+02 -0.52479259919E+02 -0.69265311429E+02  0.10873668596E+03  0.41800000000E+01 0.  1.
         -5    1    1    2    0  502  0.89581988662E+01  0.58914983386E+02 -0.79060335602E+02  0.99092046400E+02  0.41800000000E+01 0.  1.
        -11    1    1    2    0    0 -0.17505984788E+02 -0.33303741148E+01  0.16633364325E+02  0.24376622077E+02  0.00000000000E+00 0.  1.
         11    1    1    2    0    0 -0.56678270106E+02 -0.31053493522E+01 -0.11757548863E+03  0.13056057990E+03  0.00000000000E+00 0. -1.
</event>
<event>
 6    1  0.6981059E-006  0.1351937E+03  0.7561462E-02  0.1219947E+00
         -1   -1    0    0    0  501 -0.00000000000E+00  0.00000000000E+00  0.26962690751E+02  0.26962690751E+02  0.00000000000E+00 0.  1.
          1   -1    0    0  501    0  0.00000000000E+00 -0.00000000000E+00 -0.78899808054E+03  0.78899808054E+03  0.00000000000E+00 0. -1.
          5    1    1    2  502    0  0.44010545422E+01 -0.27386932612E+02 -0.24112893556E+02  0.36990774453E+02  0.41800000000E+01 0.  1.
         -5    1    1    2    0  502  0.62215841615E+02  0.98478151459E+02 -0.36603298381E+03  0.38414369043E+03  0.41800000000E+01 0.  1.
        -11    1    1    2    0    0 -0.43044241856E+02  0.75290513669E+01 -0.75014530533E+02  0.86814014782E+02  0.00000000000E+00 0.  1.
         11    1    1    2    0    0 -0.23572654301E+02 -0.78620270213E+02 -0.29687498189E+03  0.30801229163E+03  0.00000000000E+00 0. -1.
</event>
<event>
 6    1  0.6981059E-006  0.1458442E+03  0.7561462E-02  0.1205675E+00
         -1   -1    0    0    0  501 -0.00000000000E+00  0.00000000000E+00  0.10457674176E+03  0.10457674176E+03  0.00000000000E+00 0.  1.
          1   -1    0    0  501    0  0.00000000000E+00 -0.00000000000E+00 -0.33521830327E+03  0.33521830327E+03  0.00000000000E+00 0. -1.
          5    1    1    2  502    0  0.80451500583E+02 -0.10052893493E+02  0.38065671721E+02  0.89665893055E+02  0.41800000000E+01 0.  1.
         -5    1    1    2    0  502  0.44521559681E+02 -0.46030780097E+02 -0.76380793400E+02  0.99762217263E+02  0.41800000000E+01 0.  1.
        -11    1    1    2    0    0 -0.15931203578E+02  0.30370930902E+02 -0.88976183056E+01  0.35431120541E+02  0.00000000000E+00 0.  1.
         11    1    1    2    0    0 -0.10904185669E+03  0.25712742688E+02 -0.18342882153E+03  0.21493581417E+03  0.00000000000E+00 0. -1.
</event>
<event>
 6    1  0.6981059E-006  0.9074625E+02  0.7561462E-02  0.1301055E+00
         -1   -1    0    0    0  501 -0.00000000000E+00  0.00000000000E+00  0.10420027281E+03  0.10420027281E+03  0.00000000000E+00 0.  1.
          1   -1    0    0  501    0  0.00000000000E+00 -0.00000000000E+00 -0.12102086892E+03  0.12102086892E+03  0.00000000000E+00 0. -1.
          5    1    1    2  502    0  0.23586398651E+02 -0.38731548261E+02  0.34946632879E+02  0.57403750588E+02  0.41800000000E+01 0. -1.
         -5    1    1    2    0  502 -0.32121445444E+02  0.60145562776E+02 -0.18694578818E+02  0.70825388501E+02  0.41800000000E+01 0. -1.
        -11    1    1    2    0    0 -0.22053903247E+02 -0.28699058759E+02  0.15301904394E+02  0.39295787308E+02  0.00000000000E+00 0.  1.
         11    1    1    2    0    0  0.30588950040E+02  0.72850442435E+01 -0.48374554567E+02  0.57696215332E+02  0.00000000000E+00 0. -1.
</event>
<event>
 6    1  0.6981059E-006  0.1267315E+03  0.7561462E-02  0.1232388E+00
         -2   -1    0    0    0  501 -0.00000000000E+00  0.00000000000E+00  0.25214968645E+02  0.25214968645E+02  0.00000000000E+00 0.  1.
          2   -1    0    0  501    0  0.00000000000E+00 -0.00000000000E+00 -0.77118520635E+03  0.77118520635E+03  0.00000000000E+00 0. -1.
          5    1    1    2  502    0  0.48210190795E+02 -0.62204960821E+02 -0.34441967193E+03  0.35332147183E+03  0.41800000000E+01 0. -1.
         -5    1    1    2    0  502  0.21144605974E+02  0.59537050308E+02 -0.21828102220E+03  0.22727919345E+03  0.41800000000E+01 0. -1.
        -11    1    1    2    0    0  0.20973119002E+02  0.35755267489E+00 -0.55301919307E+02  0.59146444048E+02  0.00000000000E+00 0. -1.
         11    1    1    2    0    0 -0.90327915772E+02  0.23103578383E+01 -0.12796762427E+03  0.15665306566E+03  0.00000000000E+00 0.  1.
</event>
<event>
 6    1  0.6981059E-006  0.7064619E+02  0.7561462E-02  0.1357909E+00
         -1   -1    0    0    0  501 -0.00000000000E+00  0.00000000000E+00  0.57701218987E+02  0.57701218987E+02  0.00000000000E+00 0.  1.
          1   -1    0    0  501    0  0.00000000000E+00 -0.00000000000E+00 -0.21846006888E+03  0.21846006888E+03  0.00000000000E+00 0. -1.
          5    1    1    2  502    0 -0.35988745737E+02  0.35249560952E+01 -0.84142592020E+02  0.91679132452E+02  0.41800000000E+01 0.  1.
         -5    1    1    2    0  502  0.34007246202E+02 -0.13858314024E+01  0.29140741779E+02  0.45000761709E+02  0.41800000000E+01 0.  1.
        -11    1    1    2    0    0  0.21540819371E+02 -0.29770284391E+02 -0.98123188028E+02  0.10477803568E+03  0.00000000000E+00 0. -1.
         11    1    1    2    0    0 -0.19559319836E+02  0.27631159698E+02 -0.76338116276E+01  0.34703358032E+02  0.00000000000E+00 0.  1.
</event>
<event>
 6    1  0.6981059E-006  0.1118894E+03  0.7561462E-02  0.1257110E+00
          1   -1    0    0  501    0  0.00000000000E+00  0.00000000000E+00  0.12946527911E+03  0.12946527911E+03  0.00000000000E+00 0. -1.
         -1   -1    0    0    0  501 -0.00000000000E+00 -0.00000000000E+00 -0.98244875546E+02  0.98244875546E+02  0.00000000000E+00 0.  1.
          5    1    1    2  502    0 -0.30123288226E+02  0.70650110166E+02  0.10698447094E+02  0.77658095072E+02  0.41800000000E+01 0.  1.
         -5    1    1    2    0  502  0.30993189311E+02 -0.40846332798E+02  0.13636046856E+02  0.53220436493E+02  0.41800000000E+01 0.  1.
        -11    1    1    2    0    0 -0.19932540033E+01 -0.62585077709E+02  0.11636402252E+02  0.63688859864E+02  0.00000000000E+00 0. -1.
         11    1    1    2    0    0  0.11233529192E+01  0.32781300341E+02 -0.47504926408E+01  0.33142763225E+02  0.00000000000E+00 0.  1.
</event>
<event>
 6    1  0.6981059E-006  0.9101128E+02  0.7561462E-02  0.1300421E+00
         -3   -1    0    0    0  501 -0.00000000000E+00  0.00000000000E+00  0.79750909422E+02  0.79750909422E+02  0.00000000000E+00 0.  1.
          3   -1    0    0  501    0  0.00000000000E+00 -0.00000000000E+00 -0.15543009156E+03  0.15543009156E+03  0.00000000000E+00 0. -1.
          5    1    1    2  502    0  0.38526313095E+02  0.36723215463E+02  0.16879530113E+02  0.55993412929E+02  0.41800000000E+01 0.  1.
         -5    1    1    2    0  502 -0.42761769181E+02 -0.41614655341E+02 -0.38444998537E+02  0.71104421488E+02  0.41800000000E+01 0.  1.
        -11    1    1    2    0    0  0.30742089337E+02 -0.16379136407E+02  0.93728424960E+01  0.36072182395E+02  0.00000000000E+00 0.  1.
         11    1    1    2    0    0 -0.26506633251E+02  0.21270576284E+02 -0.63486556213E+02  0.72010984173E+02  0.00000000000E+00 0. -1.
</event>
<event>
 6    1  0.6981059E-006  0.1562764E+03  0.7561462E-02  0.1192966E+00
          3   -1    0    0  501    0  0.00000000000E+00  0.00000000000E+00  0.54724685096E+02  0.54724685096E+02  0.00000000000E+00 0. -1.
         -3   -1    0    0    0  501 -0.00000000000E+00 -0.00000000000E+00 -0.56287523953E+03  0.56287523953E+03  0.00000000000E+00 0.  1.
          5    1    1    2  502    0 -0.26353136762E+02 -0.36828956633E+02 -0.11141928846E+03  0.12034363342E+03  0.41800000000E+01 0. -1.
         -5    1    1    2    0  502 -0.88696483971E+02  0.10083652785E+03 -0.22992053604E+03  0.26630057625E+03  0.41800000000E+01 0. -1.
        -11    1    1    2    0    0  0.43704070246E+02 -0.15202647382E+02 -0.12817718700E+03  0.13627383282E+03  0.00000000000E+00 0.  1.
         11    1    1    2    0    0  0.71345550488E+02 -0.48804923836E+02 -0.38633542926E+02  0.94681882132E+02  0.00000000000E+00 0. -1.
</event>
<event>
 6    1  0.6981059E-006  0.2591200E+03  0.7561462E-02  0.1107673E+00
         -2   -1    0    0    0  501 -0.00000000000E+00  0.00000000000E+00  0.41183512308E+02  0.41183512308E+02  0.00000000000E+00 0.  1.
          2   -1    0    0  501    0  0.00000000000E+00 -0.00000000000E+00 -0.21886904224E+04  0.21886904224E+04  0.00000000000E+00 0. -1.
          5    1    1    2  502    0  0.10385819363E+03  0.67778545895E+02 -0.15416471616E+03  0.19790070180E+03  0.41800000000E+01 0. -1.
         -5    1    1    2    0  502 -0.21147972565E+02 -0.45739279397E+01 -0.12082431371E+03  0.12281752620E+03  0.41800000000E+01 0.  1.
        -11    1    1    2    0    0 -0.16989149858E+03 -0.16586361007E+03 -0.12170901970E+04  0.12400332278E+04  0.00000000000E+00 0.  1.
         11    1    1    2    0    0  0.87181277522E+02  0.10265899211E+03 -0.65542768320E+03  0.66912247886E+03  0.00000000000E+00 0. -1.
</event>
<event>
 6    1  0.6981059E-006  0.2407477E+03  0.7561462E-02  0.1119296E+00
          2   -1    0    0  501    0  0.00000000000E+00  0.00000000000E+00  0.16514570131E+04  0.16514570131E+04  0.00000000000E+00 0.  1.
         -2   -1    0    0    0  501 -0.00000000000E+00 -0.00000000000E+00 -0.36265415539E+02  0.36265415539E+02  0.00000000000E+00 0. -1.
          5    1    1    2  502    0 -0.11334365501E+03 -0.68869593181E+02  0.40179405573E+03  0.42313796877E+03  0.41800000000E+01 0. -1.
         -5    1    1    2    0  502 -0.10501473916E+03  0.51375396347E+02  0.47793866725E+03  0.49204712055E+03  0.41800000000E+01 0. -1.
        -11    1    1    2    0    0  0.29584354138E+02  0.30636630313E+02  0.20390362645E+03  0.20830392700E+03  0.00000000000E+00 0.  1.
         11    1    1    2    0    0  0.18877404003E+03 -0.13142433478E+02  0.53155524809E+03  0.56423341227E+03  0.00000000000E+00 0. -1.
</event>
<event>
 6    1  0.6981059E-006  0.1165163E+03  0.7561462E-02  0.1248957E+00
          1   -1    0    0  501    0  0.00000000000E+00  0.00000000000E+00  0.28669094911E+03  0.28669094911E+03  0.00000000000E+00 0. -1.
         -1   -1    0    0    0  501 -0.00000000000E+00 -0.00000000000E+00 -0.85412990639E+02  0.85412990639E+02  0.00000000000E+00 0.  1.
          5    1    1    2  502    0  0.67761117075E+02 -0.11153070972E+02  0.45825336613E+02  0.82664344520E+02  0.41800000000E+01 0.  1.
         -5    1    1    2    0  502 -0.36016479153E+01  0.53343699476E+02 -0.35761924107E+02  0.64458589477E+02  0.41800000000E+01 0.  1.
        -11    1    1    2    0    0  0.18850324373E+02 -0.11620660116E+02  0.79264547642E+02  0.82299714358E+02  0.00000000000E+00 0.  1.
         11    1    1    2    0    0 -0.83009793532E+02 -0.30569968389E+02  0.11194999832E+03  0.14268129140E+03  0.00000000000E+00 0. -1.
</event>
<event>
 6    1  0.6981059E-006  0.1107675E+03  0.7561462E-02  0.1259155E+00
          3   -1    0    0  501    0  0.00000000000E+00  0.00000000000E+00  0.19912452538E+02  0.19912452538E+02  0.00000000000E+00 0. -1.
         -3   -1    0    0    0  501 -0.00000000000E+00 -0.00000000000E+00 -0.89625555649E+03  0.89625555649E+03  0.00000000000E+00 0.  1.
          5    1    1    2  502    0 -0.46279594499E+02 -0.38305533541E+02 -0.27060680835E+03  0.27722667962E+03  0.41800000000E+01 0. -1.
         -5    1    1    2    0  502  0.79416288917E+02 -0.23089454099E+02 -0.41518255592E+03  0.42336048112E+03  0.41800000000E+01 0. -1.
        -11    1    1    2    0    0  0.17032206110E+01  0.34366565920E+02 -0.15546874426E+03  0.15923094000E+03  0.00000000000E+00 0.  1.
         11    1    1    2    0    0 -0.34839915029E+02  0.27028421720E+02 -0.35084995429E+02  0.56349908288E+02  0.00000000000E+00 0. -1.
</event>
<event>
 6    1  0.6981059E-006  0.1126546E+03  0.7561462E-02  0.1255732E+00
          2   -1    0    0  501    0  0.00000000000E+00  0.00000000000E+00  0.14525030894E+03  0.14525030894E+03  0.00000000000E+00 0. -1.
         -2   -1    0    0    0  501 -0.00000000000E+00 -0.00000000000E+00 -0.24369479046E+03  0.24369479046E+03  0.00000000000E+00 0.  1.
          5    1    1    2  502    0 -0.99162637952E+01 -0.29305321321E+01  0.22624073338E+02  0.25223826050E+02  0.41800000000E+01 0. -1.
         -5    1    1    2    0  502 -0.88520948998E+02 -0.48177823755E+02 -0.18150360548E+03  0.20764896415E+03  0.41800000000E+01 0.  1.
        -11    1    1    2    0    0  0.46959844940E+01  0.97614612125E+01  0.52172202066E+02  0.53284867118E+02  0.00000000000E+00 0.  1.
         11    1    1    2    0    0  0.93741228299E+02  0.41346894674E+02  0.82628485567E+01  0.10278744208E+03  0.00000000000E+00 0. -1.
</event>
<event>
 6    1  0.6981059E-006  0.1276532E+03  0.7561462E-02  0.1230980E+00
          2   -1    0    0  501    0  0.00000000000E+00  0.00000000000E+00  0.80486105580E+03  0.80486105580E+03  0.00000000000E+00 0. -1.
         -2   -1    0    0    0  501 -0.00000000000E+00 -0.00000000000E+00 -0.25413769576E+02  0.25413769576E+02  0.00000000000E+00 0.  1.
          5    1    1    2  502    0  0.22739055271E+02  0.43456515013E+02  0.97424966743E+02  0.10915415648E+03  0.41800000000E+01 0.  1.
         -5    1    1    2    0  502 -0.10112762598E+03 -0.11180893797E+02  0.21386824616E+03  0.23687319020E+03  0.41800000000E+01 0.  1.
        -11    1    1    2    0    0  0.88626091638E+02 -0.31205448139E+02  0.46354073783E+03  0.47296763075E+03  0.00000000000E+00 0. -1.
         11    1    1    2    0    0 -0.10237520930E+02 -0.10701730767E+01  0.46133354957E+01  0.11279847943E+02  0.00000000000E+00 0.  1.
</event>
<event>
 6    1  0.6981059E-006  0.9247915E+02  0.7561462E-02  0.1296957E+00
         -1   -1    0    0    0  501 -0.00000000000E+00  0.00000000000E+00  0.18931800523E+03  0.18931800523E+03  0.00000000000E+00 0. -1.
          1   -1    0    0  501    0  0.00000000000E+00 -0.00000000000E+00 -0.75107322169E+02  0.75107322169E+02  0.00000000000E+00 0.  1.
          5    1    1    2  502    0 -0.43449665646E+02 -0.10809782987E+02  0.26693824718E+01  0.45048006124E+02  0.41800000000E+01 0.  1.
         -5    1    1    2    0  502  0.61021019648E+02  0.32196204454E+02  0.88056014846E+02  0.11194415827E+03  0.41800000000E+01 0.  1.
        -11    1    1    2    0    0 -0.36057860557E+02 -0.33130698884E+02 -0.24449437965E+02  0.54731960802E+02  0.00000000000E+00 0.  1.
         11    1    1    2    0    0  0.18486506555E+02  0.11744277417E+02  0.47934723704E+02  0.52701202199E+02  0.00000000000E+00 0. -1.
</event>
<event>
 6    1  0.6981059E-006  0.1213124E+03  0.7561462E-02  0.1240948E+00
          2   -1    0    0  501    0  0.00000000000E+00  0.00000000000E+00  0.32213128913E+03  0.32213128913E+03  0.00000000000E+00 0. -1.
         -2   -1    0    0    0  501 -0.00000000000E+00 -0.00000000000E+00 -0.53270548805E+02  0.53270548805E+02  0.00000000000E+00 0.  1.
          5    1    1    2  502    0 -0.37731190709E+02 -0.80829092786E+02  0.63195520585E+02  0.10939895436E+03  0.41800000000E+01 0. -1.
         -5    1    1    2    0  502 -0.71561294131E+01  0.46337577076E+02  0.20035285626E+02  0.51159225048E+02  0.41800000000E+01 0. -1.
        -11    1    1    2    0    0 -0.19300043828E+02  0.37306401317E+02  0.54387937322E+02  0.68719043919E+02  0.00000000000E+00 0.  1.
         11    1    1    2    0    0  0.64187363951E+02 -0.28148856065E+01  0.13124199679E+03  0.14612461461E+03  0.00000000000E+00 0. -1.
</event>
<event>
 6    1  0.6981059E-006  0.1601611E+03  0.7561462E-02  0.1188515E+00
          1   -1    0    0  501    0  0.00000000000E+00  0.00000000000E+00  0.23919624254E+03  0.23919624254E+03  0.00000000000E+00 0. -1.
         -1   -1    0    0    0  501 -0.00000000000E+00 -0.00000000000E+00 -0.11849561876E+03  0.11849561876E+03  0.00000000000E+00 0.  1.
          5    1    1    2  502    0 -0.78682648614E+02  0.12418287473E+03  0.55997594806E+02  0.15737073614E+03  0.41800000000E+01 0. -1.
         -5    1    1    2    0  502  0.13821193901E+02 -0.18097146331E+02  0.32584077660E+02  0.39971572688E+02  0.41800000000E+01 0. -1.
        -11    1    1    2    0    0  0.85080878894E+02 -0.92835655501E+02  0.79660273673E+01  0.12617714721E+03  0.00000000000E+00 0.  1.
         11    1    1    2    0    0 -0.20219424180E+02 -0.13250072902E+02  0.24152923945E+02  0.34172405259E+02  0.00000000000E+00 0. -1.
</event>
<event>
 6    1  0.6981059E-006  0.1618837E+03  0.7561462E-02  0.1186586E+00
         -2   -1    0    0    0  501 -0.00000000000E+00  0.00000000000E+00  0.85339311056E+02  0.85339311056E+02  0.00000000000E+00 0.  1.
          2   -1    0    0  501    0  0.00000000000E+00 -0.00000000000E+00 -0.41091484725E+03  0.41091484725E+03  0.00000000000E+00 0. -1.
          5    1    1    2  502    0  0.16748117312E+02 -0.40826407667E+02  0.18953665040E+01  0.44366201220E+02  0.41800000000E+01 0.  1.
         -5    1    1    2    0  502 -0.12697836239E+03 -0.48915207199E+02 -0.99743355774E+02  0.16876732927E+03  0.41800000000E+01 0.  1.
        -11    1    1    2    0    0  0.85955529661E+02  0.59575316711E+02 -0.83621950833E+02  0.13390370459E+03  0.00000000000E+00 0.  1.
         11    1    1    2    0    0  0.24274715411E+02  0.30166298155E+02 -0.14410559609E+03  0.14921692323E+03  0.00000000000E+00 0. -1.
</event>
<event>
 6    1  0.6981059E-006  0.1094262E+03  0.7561462E-02  0.1261636E+00
         -2   -1    0    0    0  501 -0.00000000000E+00  0.00000000000E+00  0.56173455501E+02  0.56173455501E+02  0.00000000000E+00 0.  1.
          2   -1    0    0  501    0  0.00000000000E+00 -0.00000000000E+00 -0.25858060401E+03  0.25858060401E+03  0.00000000000E+00 0. -1.
          5    1    1    2  502    0  0.77804680464E+02 -0.58112576744E+01 -0.49959162020E+02  0.92740116927E+02  0.41800000000E+01 0.  1.
         -5    1    1    2    0  502 -0.42553015598E+02  0.31805082421E+02 -0.18293474013E+02  0.56342222141E+02  0.41800000000E+01 0.  1.
        -11    1    1    2    0    0 -0.18331882292E+02 -0.52709598499E+02 -0.11715838217E+03  0.12977074476E+03  0.00000000000E+00 0. -1.
         11    1    1    2    0    0 -0.16919782575E+02  0.26715773752E+02 -0.16996130300E+02  0.35900975679E+02  0.00000000000E+00 0.  1.
</event>
<event>
 6    1  0.6981059E-006  0.1161803E+03  0.7561462E-02  0.1249535E+00
         -2   -1    0    0    0  501 -0.00000000000E+00  0.00000000000E+00  0.36814970939E+02  0.36814970939E+02  0.00000000000E+00 0.  1.
          2   -1    0    0  501    0  0.00000000000E+00 -0.00000000000E+00 -0.59858692864E+03  0.59858692864E+03  0.00000000000E+00 0. -1.
          5    1    1    2  502    0  0.61968847199E+02  0.61249362839E+02 -0.57544453414E+02  0.10450099995E+03  0.41800000000E+01 0. -1.
         -5    1    1    2    0  502  0.23039213319E+01 -0.46572681576E+02 -0.80420995421E+02  0.93055529804E+02  0.41800000000E+01 0. -1.
        -11    1    1    2    0    0 -0.59778009273E+02 -0.40433148523E+02 -0.38029984845E+03  0.38708684377E+03  0.00000000000E+00 0. -1.
         11    1    1    2    0    0 -0.44947592579E+01  0.25756467260E+02 -0.43506660420E+02  0.50758526057E+02  0.00000000000E+00 0.  1.
</event>
<event>
 6    1  0.6981059E-006  0.1007243E+03  0.7561462E-02  0.1278780E+00
         -1   -1    0    0    0  501 -0.00000000000E+00  0.00000000000E+00  0.35298893676E+02  0.35298893676E+02  0.00000000000E+00 0.  1.
          1   -1    0    0  501    0  0.00000000000E+00 -0.00000000000E+00 -0.40185056518E+03  0.40185056518E+03  0.00000000000E+00 0. -1.
          5    1    1    2  502    0 -0.32949381190E+02 -0.38357276904E+02 -0.86455121062E+02  0.10024421564E+03  0.41800000000E+01 0.  1.
         -5    1    1    2    0  502  0.61070617866E+02  0.31498504679E+02 -0.38305163989E+02  0.78781559719E+02  0.41800000000E+01 0.  1.
        -11    1    1    2    0    0 -0.10398120423E+02 -0.34946537084E+02 -0.55697386373E+02  0.66570115001E+02  0.00000000000E+00 0.  1.
         11    1    1    2    0    0 -0.17723116254E+02  0.41805309310E+02 -0.18609400008E+03  0.19155356849E+03  0.00000000000E+00 0. -1.
</event>
<event>
 6    1  0.6981059E-006  0.1054437E+03  0.7561462E-02  0.1269248E+00
          2   -1    0    0  501    0  0.00000000000E+00  0.00000000000E+00  0.26156616438E+03  0.26156616438E+03  0.00000000000E+00 0. -1.
         -2   -1    0    0    0  501 -0.00000000000E+00 -0.00000000000E+00 -0.45460689608E+02  0.45460689608E+02  0.00000000000E+00 0.  1.
          5    1    1    2  502    0  0.60126807380E+02  0.15544872700E+01  0.53663570448E+02  0.80714934117E+02  0.41800000000E+01 0. -1.
         -5    1    1    2    0  502 -0.63315899308E+02 -0.17167602374E+02  0.52744752957E+02  0.84279956342E+02  0.41800000000E+01 0. -1.
        -11    1    1    2    0    0 -0.16128340746E+02 -0.30700664280E+02  0.22230707844E+02  0.41192942766E+02  0.00000000000E+00 0.  1.
         11    1    1    2    0    0  0.19317432674E+02  0.46313779384E+02  0.87466443526E+02  0.10083902077E+03  0.00000000000E+00 0. -1.
</event>
<event>
 6    1  0.6981059E-006  0.1285879E+03  0.7561462E-02  0.1229566E+00
          1   -1    0    0  501    0  0.00000000000E+00  0.00000000000E+00  0.92498809027E+02  0.92498809027E+02  0.00000000000E+00 0. -1.
         -1   -1    0    0    0  501 -0.00000000000E+00 -0.00000000000E+00 -0.20567978078E+03  0.20567978078E+03  0.00000000000E+00 0.  1.
          5    1    1    2  502    0 -0.47824124653E+02  0.37422583344E+02 -0.33400131031E+02  0.69430813015E+02  0.41800000000E+01 0. -1.
         -5    1    1    2    0  502 -0.21239796245E+02 -0.87052775511E+02 -0.30152970154E+02  0.94636085496E+02  0.41800000000E+01 0. -1.
        -11    1    1    2    0    0 -0.33297105600E+01  0.31894961991E+02 -0.50207666596E+02  0.59575039722E+02  0.00000000000E+00 0.  1.
         11    1    1    2    0    0  0.72393631458E+02  0.17735230176E+02  0.57979602482E+00  0.74536651579E+02  0.00000000000E+00 0. -1.
</event>
<event>
 6    1  0.6981059E-006  0.2216700E+03  0.7561462E-02  0.1132644E+00
         -2   -1    0    0    0  501 -0.00000000000E+00  0.00000000000E+00  0.80518744169E+02  0.80518744169E+02  0.00000000000E+00 0.  1.
          2   -1    0    0  501    0  0.00000000000E+00 -0.00000000000E+00 -0.61108338589E+03  0.61108338589E+03  0.00000000000E+00 0. -1.
          5    1    1    2  502    0 -0.43687214397E+02  0.30071819319E+02 -0.63963003987E+02  0.83196305795E+02  0.41800000000E+01 0.  1.
         -5    1    1    2    0  502  0.74292981012E+02  0.15902914436E+03 -0.20551833580E+03  0.27030533575E+03  0.41800000000E+01 0.  1.
        -11    1    1    2    0    0  0.33866044673E+02 -0.91725486642E+02 -0.12724758204E+03  0.16047560879E+03  0.00000000000E+00 0. -1.
         11    1    1    2    0    0 -0.64471811289E+02 -0.97375477035E+02 -0.13383571989E+03  0.17762487973E+03  0.00000000000E+00 0.  1.
</event>
<event>
 6    1  0.6981059E-006  0.7266835E+02  0.7561462E-02  0.1351247E+00
         -3   -1    0    0    0  501 -0.00000000000E+00  0.00000000000E+00  0.34723627321E+03  0.34723627321E+03  0.00000000000E+00 0.  1.
          3   -1    0    0  501    0  0.00000000000E+00 -0.00000000000E+00 -0.34828955133E+02  0.34828955133E+02  0.00000000000E+00 0. -1.
          5    1    1    2  502    0 -0.10382746954E+02 -0.24476839796E+02 -0.79679010214E+01  0.28069146182E+02  0.41800000000E+01 0.  1.
         -5    1    1    2    0  502  0.29100732996E+02  0.14723976882E+02  0.19609985306E+03  0.19883730265E+03  0.41800000000E+01 0.  1.
        -11    1    1    2    0    0  0.29561610022E+02  0.20634695776E+02  0.83796053918E+02  0.91222026447E+02  0.00000000000E+00 0.  1.
         11    1    1    2    0    0 -0.48279596064E+02 -0.10881832862E+02  0.40479312129E+02  0.63936753069E+02  0.00000000000E+00 0. -1.
</event>
<event>
 6    1  0.6981059E-006  0.8002131E+02  0.7561462E-02  0.1328991E+00
          2   -1    0    0  501    0  0.00000000000E+00  0.00000000000E+00  0.21854621369E+03  0.21854621369E+03  0.00000000000E+00 0. -1.
         -2   -1    0    0    0  501 -0.00000000000E+00 -0.00000000000E+00 -0.37068445852E+02  0.37068445852E+02  0.00000000000E+00 0.  1.
          5    1    1    2  502    0  0.87732419314E+01 -0.42874974186E+02  0.87366686968E+02  0.97804108181E+02  0.41800000000E+01 0. -1.
         -5    1    1    2    0  502  0.26190017382E+02  0.67308792712E+02  0.27824893239E+02  0.77511855033E+02  0.41800000000E+01 0. -1.
        -11    1    1    2    0    0 -0.21127235768E+02 -0.88804411233E+01  0.24106324796E+02  0.33261647899E+02  0.00000000000E+00 0.  1.
         11    1    1    2    0    0 -0.13836023545E+02 -0.15553377403E+02  0.42179862835E+02  0.47037048429E+02  0.00000000000E+00 0. -1.
</event>
<event>
 6    1  0.7568841E-006  0.2667073E+03  0.7561462E-02  0.1103179E+00
         -1   -1    0    0    0  501 -0.00000000000E+00  0.00000000000E+00  0.16637163660E+03  0.16637163660E+03  0.00000000000E+00 0.  1.
          1   -1    0    0  501    0  0.00000000000E+00 -0.00000000000E+00 -0.55700036401E+03  0.55700036401E+03  0.00000000000E+00 0. -1.
          5    1    1    2  502    0 -0.61166836654E+02  0.22664100364E+03 -0.24779782516E+02  0.23609116133E+03  0.41800000000E+01 0.  1.
         -5    1    1    2    0  502  0.37591020116E+02  0.22070200180E+02 -0.14035536339E+02  0.45985293407E+02  0.41800000000E+01 0.  1.
        -11    1    1    2    0    0  0.32477493908E+02 -0.86740301356E+02 -0.69877441501E+02  0.11602380928E+03  0.00000000000E+00 0. -1.
         11    1    1    2    0    0 -0.89016773696E+01 -0.16197090247E+03 -0.28193596705E+03  0.32527173658E+03  0.00000000000E+00 0.  1.
</event>
<event>
 6    1  0.6981059E-006  0.1121828E+03  0.7561462E-02  0.1256580E+00
          1   -1    0    0  501    0  0.00000000000E+00  0.00000000000E+00  0.76705453612E+03  0.76705453612E+03  0.00000000000E+00 0. -1.
         -1   -1    0    0    0  501 -0.00000000000E+00 -0.00000000000E+00 -0.24019661750E+02  0.24019661750E+02  0.00000000000E+00 0.  1.
          5    1    1    2  502    0 -0.35741647230E+02 -0.16196633859E+02  0.42022413128E+02  0.57646785688E+02  0.41800000000E+01 0. -1.
         -5    1    1    2    0  502 -0.90460121081E+01  0.80772900440E+02  0.40707192692E+03  0.41512783316E+03  0.41800000000E+01 0. -1.
        -11    1    1    2    0    0 -0.43686557048E+01 -0.52787441039E+02  0.23385374306E+03  0.23977733885E+03  0.00000000000E+00 0. -1.
         11    1    1    2    0    0  0.49156315043E+02 -0.11788825543E+02  0.60086791258E+02  0.78522240161E+02  0.00000000000E+00 0.  1.
</event>
<event>
 6    1  0.6981059E-006  0.1530568E+03  0.7561462E-02  0.1196766E+00
          1   -1    0    0  501    0  0.00000000000E+00  0.00000000000E+00  0.93558141773E+03  0.93558141773E+03  0.00000000000E+00 0. -1.
         -1   -1    0    0    0  501 -0.00000000000E+00 -0.00000000000E+00 -0.27146732728E+02  0.27146732728E+02  0.00000000000E+00 0.  1.
          5    1    1    2  502    0 -0.56618556204E+02 -0.80617371275E+02  0.28078000710E+03  0.29758982887E+03  0.41800000000E+01 0.  1.
         -5    1    1    2    0  502  0.62307996506E+02 -0.34020128974E+02  0.21345001232E+03  0.22498452339E+03  0.41800000000E+01 0.  1.
        -11    1    1    2    0    0  0.60128202260E+01 -0.97536125815E+01  0.53695673646E+01  0.12653822314E+02  0.00000000000E+00 0.  1.
         11    1    1    2    0    0 -0.11702260529E+02  0.12439111283E+03  0.40883509822E+03  0.42749997589E+03  0.00000000000E+00 0. -1.
</event>
<event>
 6    1  0.6981059E-006  0.1729495E+03  0.7561462E-02  0.1174806E+00
          2   -1    0    0  501    0  0.00000000000E+00  0.00000000000E+00  0.50083193414E+03  0.50083193414E+03  0.00000000000E+00 0. -1.
         -2   -1    0    0    0  501 -0.00000000000E+00 -0.00000000000E+00 -0.64987690216E+02  0.64987690216E+02  0.00000000000E+00 0.  1.
          5    1    1    2  502    0  0.25510073029E+02  0.13211518992E+03  0.23624201618E+03  0.27190614160E+03  0.41800000000E+01 0.  1.
         -5    1    1    2    0  502 -0.44261200420E+02  0.11333525021E+02  0.26208133907E+02  0.52837877842E+02  0.41800000000E+01 0.  1.
        -11    1    1    2    0    0  0.38678606662E+02 -0.13991170245E+03  0.13791360357E+03  0.20022857225E+03  0.00000000000E+00 0.  1.
         11    1    1    2    0    0 -0.19927479272E+02 -0.35370124869E+01  0.35480490271E+02  0.40847032662E+02  0.00000000000E+00 0. -1.
</event>
<event>
 6    1  0.6981059E-006  0.1404306E+03  0.7561462E-02  0.1212751E+00
          3   -1    0    0  501    0  0.00000000000E+00  0.00000000000E+00  0.34946282459E+02  0.34946282459E+02  0.00000000000E+00 0. -1.
         -3   -1    0    0    0  501 -0.00000000000E+00 -0.00000000000E+00 -0.84363329524E+03  0.84363329524E+03  0.00000000000E+00 0.  1.
          5    1    1    2  502    0 -0.55984203421E+02 -0.12414417902E+03 -0.44865252296E+03  0.46888438551E+03  0.41800000000E+01 0. -1.
         -5    1    1    2    0  502  0.24224302081E+02  0.15660903884E+02 -0.16267756381E+03  0.16526809399E+03  0.41800000000E+01 0. -1.
        -11    1    1    2    0    0  0.19922501519E+02  0.29476773514E+02 -0.14406937107E+03  0.14839733799E+03  0.00000000000E+00 0.  1.
         11    1    1    2    0    0  0.11837399821E+02  0.79006501625E+02 -0.53287554931E+02  0.96029760200E+02  0.00000000000E+00 0. -1.
</event>
<event>
 6    1  0.1485739E-005  0.2980480E+03  0.7561462E-02  0.1086220E+00
         -1   -1    0    0    0  501 -0.00000000000E+00  0.00000000000E+00  0.13231241635E+03  0.13231241635E+03  0.00000000000E+00 0.  1.
          1   -1    0    0  501    0  0.00000000000E+00 -0.00000000000E+00 -0.70572023283E+03  0.70572023283E+03  0.00000000000E+00 0. -1.
          5    1    1    2  502    0 -0.15735440494E+03  0.36413805104E+02 -0.11259182611E+03  0.19692832620E+03  0.41800000000E+01 0.  1.
         -5    1    1    2    0  502 -0.12205160575E+03 -0.82162637889E+02 -0.12910124166E+03  0.19578533278E+03  0.41800000000E+01 0.  1.
        -11    1    1    2    0    0  0.18536065451E+03  0.53634342820E+02 -0.27250539490E+03  0.33390777951E+03  0.00000000000E+00 0. -1.
         11    1    1    2    0    0  0.94045356173E+02 -0.78855100347E+01 -0.59209353815E+02  0.11141121068E+03  0.00000000000E+00 0.  1.
</event>
<event>
 6    1  0.6981059E-006  0.1425542E+03  0.7561462E-02  0.1209933E+00
         -2   -1    0    0    0  501 -0.00000000000E+00  0.00000000000E+00  0.53977902563E+02  0.53977902563E+02  0.00000000000E+00 0.  1.
          2   -1    0    0  501    0  0.00000000000E+00 -0.00000000000E+00 -0.39829947618E+03  0.39829947618E+03  0.00000000000E+00 0. -1.
          5    1    1    2  502    0  0.37941655449E+01 -0.79017254205E+02 -0.79600510655E+02  0.11230243030E+03  0.41800000000E+01 0. -1.
         -5    1    1    2    0  502  0.72301513040E+02  0.24405634490E+02 -0.58469981822E+02  0.96225542124E+02  0.41800000000E+01 0. -1.
        -11    1    1    2    0    0 -0.10138737672E+02  0.62247940560E+02 -0.11045634971E+03  0.12719357411E+03  0.00000000000E+00 0. -1.
         11    1    1    2    0    0 -0.65956940913E+02 -0.76363208455E+01 -0.95794731431E+02  0.11655583220E+03  0.00000000000E+00 0.  1.
</event>
<event>
 6    1  0.6981059E-006  0.1652998E+03  0.7561462E-02  0.1182840E+00
         -2   -1    0    0    0  501 -0.00000000000E+00  0.00000000000E+00  0.84254076038E+02  0.84254076038E+02  0.00000000000E+00 0.  1.
          2   -1    0    0  501    0  0.00000000000E+00 -0.00000000000E+00 -0.45042818707E+03  0.45042818707E+03  0.00000000000E+00 0. -1.
          5    1    1    2  502    0 -0.17509576904E+02 -0.81587677786E+02 -0.22668255962E+02  0.86570530080E+02  0.41800000000E+01 0.  1.
         -5    1    1    2    0  502  0.29494898305E+02 -0.79753303746E+02 -0.19140991447E+03  0.20948929863E+03  0.41800000000E+01 0.  1.
        -11    1    1    2    0    0 -0.69179591209E+00  0.49449938767E+02 -0.10621455713E+03  0.11716359150E+03  0.00000000000E+00 0. -1.
         11    1    1    2    0    0 -0.11293525489E+02  0.11189104277E+03 -0.45881383467E+02  0.12145884290E+03  0.00000000000E+00 0.  1.
</event>
<event>
 6    1  0.6981059E-006  0.1056056E+03  0.7561462E-02  0.1268931E+00
         -1   -1    0    0    0  501 -0.00000000000E+00  0.00000000000E+00  0.10107481320E+03  0.10107481320E+03  0.00000000000E+00 0.  1.
          1   -1    0    0  501    0  0.00000000000E+00 -0.00000000000E+00 -0.29288774960E+03  0.29288774960E+03  0.00000000000E+00 0. -1.
          5    1    1    2  502    0 -0.33596382695E+02  0.64171899300E+01  0.60762348327E+02  0.69852935737E+02  0.41800000000E+01 0. -1.
         -5    1    1    2    0  502  0.91766772839E+02  0.72434306246E+01 -0.13722250314E+03  0.16529094244E+03  0.41800000000E+01 0.  1.
        -11    1    1    2    0    0 -0.32305489765E+02  0.23059340516E+02 -0.54135746771E+01  0.40058515259E+02  0.00000000000E+00 0.  1.
         11    1    1    2    0    0 -0.25864900379E+02 -0.36719961071E+02 -0.10993920691E+03  0.11876016937E+03  0.00000000000E+00 0. -1.
</event>
<event>
 6    1  0.6981059E-006  0.9939135E+02  0.7561462E-02  0.1281581E+00
         -3   -1    0    0    0  501 -0.00000000000E+00  0.00000000000E+00  0.73942400930E+03  0.73942400930E+03  0.00000000000E+00 0.  1.
          3   -1    0    0  501    0  0.00000000000E+00 -0.00000000000E+00 -0.16513441543E+02  0.16513441543E+02  0.00000000000E+00 0. -1.
          5    1    1    2  502    0  0.47849414081E+01 -0.69886226005E+02  0.19687392969E+03  0.20900669090E+03  0.41800000000E+01 0. -1.
         -5    1    1    2    0  502 -0.15702569195E+01  0.51563870658E+02  0.25685417612E+03  0.26201686711E+03  0.41800000000E+01 0. -1.
        -11    1    1    2    0    0 -0.99793307607E+00  0.47539657522E+02  0.23557758627E+03  0.24032855440E+03  0.00000000000E+00 0.  1.
         11    1    1    2    0    0 -0.22167514126E+01 -0.29217302175E+02  0.33604875687E+02  0.44585338432E+02  0.00000000000E+00 0. -1.
</event>
<event>
 6    1  0.6981059E-006  0.6707020E+02  0.7561462E-02  0.1370349E+00
         -2   -1    0    0    0  501 -0.00000000000E+00  0.00000000000E+00  0.14575414441E+03  0.14575414441E+03  0.00000000000E+00 0.  1.
          2   -1    0    0  501    0  0.00000000000E+00 -0.00000000000E+00 -0.86639534496E+02  0.86639534496E+02  0.00000000000E+00 0. -1.
          5    1    1    2  502    0 -0.24736586808E+02  0.35925930722E+01  0.79206617378E+02  0.83162287657E+02  0.41800000000E+01 0.  1.
         -5    1    1    2    0  502 -0.31217657271E+01 -0.11466923436E+02 -0.47464215840E+02  0.49107636266E+02  0.41800000000E+01 0.  1.
        -11    1    1    2    0    0  0.23101165484E+02 -0.41018073971E+02  0.11000914230E+02  0.48344248396E+02  0.00000000000E+00 0. -1.
         11    1    1    2    0    0  0.47571870505E+01  0.48892404335E+02  0.16371294144E+02  0.51779506586E+02  0.00000000000E+00 0.  1.
</event>
<event>
 6    1  0.6981059E-006  0.1647272E+03  0.7561462E-02  0.1183461E+00
         -2   -1    0    0    0  501 -0.00000000000E+00  0.00000000000E+00  0.72305674231E+02  0.72305674231E+02  0.00000000000E+00 0.  1.
          2   -1    0    0  501    0  0.00000000000E+00 -0.00000000000E+00 -0.43191021336E+03  0.43191021336E+03  0.00000000000E+00 0. -1.
          5    1    1    2  502    0 -0.79697812264E+02  0.98940631649E+02 -0.13402266984E+03  0.18471745532E+03  0.41800000000E+01 0.  1.
         -5    1    1    2    0  502  0.47126117350E+02  0.36131236669E+02 -0.52534868872E+02  0.79395982563E+02  0.41800000000E+01 0.  1.
        -11    1    1    2    0    0  0.18478167869E+02 -0.21431102168E+02  0.46776799438E+01  0.28681274685E+02  0.00000000000E+00 0.  1.
         11    1    1    2    0    0  0.14093527046E+02 -0.11364076615E+03 -0.17772468036E+03  0.21142117501E+03  0.00000000000E+00 0. -1.
</event>
<event>
 6    1  0.6981059E-006  0.1445202E+03  0.7561462E-02  0.1207373E+00
         -2   -1    0    0    0  501 -0.00000000000E+00  0.00000000000E+00  0.32096266352E+03  0.32096266352E+03  0.00000000000E+00 0.  1.
          2   -1    0    0  501    0  0.00000000000E+00 -0.00000000000E+00 -0.89086312256E+02  0.89086312256E+02  0.00000000000E+00 0. -1.
          5    1    1    2  502    0  0.11460883113E+03 -0.62351766224E+01  0.40732295337E+02  0.12186325896E+03  0.41800000000E+01 0. -1.
         -5    1    1    2    0  502  0.11797274736E+02 -0.14518771271E+02  0.11154519666E+03  0.11318027085E+03  0.41800000000E+01 0. -1.
        -11    1    1    2    0    0 -0.71026382149E+02 -0.32570320200E+02  0.49181973008E+02  0.92327889546E+02  0.00000000000E+00 0.  1.
         11    1    1    2    0    0 -0.55379723718E+02  0.53324268093E+02  0.30416886258E+02  0.82677556425E+02  0.00000000000E+00 0. -1.
</event>
<event>
 6    1  0.6981059E-006  0.1002607E+03  0.7561462E-02  0.1279749E+00
         -4   -1    0    0    0  501 -0.00000000000E+00  0.00000000000E+00  0.19279565099E+03  0.19279565099E+03  0.00000000000E+00 0.  1.
          4   -1    0    0  501    0  0.00000000000E+00 -0.00000000000E+00 -0.10473930218E+03  0.10473930218E+03  0.00000000000E+00 0. -1.
          5    1    1    2  502    0 -0.49994860959E+02 -0.16670977332E+02  0.83464116182E+02  0.98798475178E+02  0.41800000000E+01 0. -1.
         -5    1    1    2    0  502  0.23426105118E+02  0.75799664208E+02  0.42083593619E+02  0.89904798242E+02  0.41800000000E+01 0. -1.
        -11    1    1    2    0    0  0.27987167770E+01 -0.32067253446E+02  0.22209098235E+02  0.39107359967E+02  0.00000000000E+00 0.  1.
         11    1    1    2    0    0  0.23770039063E+02 -0.27061433430E+02 -0.59700459231E+02  0.69724319780E+02  0.00000000000E+00 0. -1.
</event>
<event>
 6    1  0.6981059E-006  0.1024459E+03  0.7561462E-02  0.1275235E+00
         -1   -1    0    0    0  501 -0.00000000000E+00  0.00000000000E+00  0.21256183896E+03  0.21256183896E+03  0.00000000000E+00 0.  1.
          1   -1    0    0  501    0  0.00000000000E+00 -0.00000000000E+00 -0.66918613091E+02  0.66918613091E+02  0.00000000000E+00 0. -1.
          5    1    1    2  502    0  0.59148427908E+02 -0.11959841688E+02  0.46702016353E+02  0.76420710993E+02  0.41800000000E+01 0. -1.
         -5    1    1    2    0  502 -0.51093853212E+02 -0.44665266660E+01  0.96956235747E+02  0.10976573120E+03  0.41800000000E+01 0.  1.
        -11    1    1    2    0    0 -0.39933509254E+02 -0.19895714633E+02  0.48702172075E+01  0.44880325731E+02  0.00000000000E+00 0.  1.
         11    1    1    2    0    0  0.31878934558E+02  0.36322082987E+02 -0.28852434355E+01  0.48413684127E+02  0.00000000000E+00 0. -1.
</event>
<event>
 6    1  0.6981059E-006  0.1331060E+03  0.7561462E-02  0.1222918E+00
         -2   -1    0    0    0  501 -0.00000000000E+00  0.00000000000E+00  0.26336982940E+03  0.26336982940E+03  0.00000000000E+00 0.  1.
          2   -1    0    0  501    0  0.00000000000E+00 -0.00000000000E+00 -0.11493068945E+03  0.11493068945E+03  0.00000000000E+00 0. -1.
          5    1    1    2  502    0 -0.37324256530E+02 -0.23159631643E+02  0.72042674302E+02  0.84481287774E+02  0.41800000000E+01 0. -1.
         -5    1    1    2    0  502 -0.87110968371E+02 -0.62614595787E+01 -0.41836162373E+02  0.96929167791E+02  0.41800000000E+01 0. -1.
        -11    1    1    2    0    0  0.39549084967E+02  0.30202119263E+02 -0.18910963846E+01  0.49798337073E+02  0.00000000000E+00 0.  1.
         11    1    1    2    0    0  0.84886139934E+02 -0.78102804152E+00  0.12012372441E+03  0.14709172622E+03  0.00000000000E+00 0. -1.
</event>
<event>
 6    1  0.6981059E-006  0.1638761E+03  0.7561462E-02  0.1184389E+00
         -3   -1    0    0    0  501 -0.00000000000E+00  0.00000000000E+00  0.56294288542E+03  0.56294288542E+03  0.00000000000E+00 0.  1.
          3   -1    0    0  501    0  0.00000000000E+00 -0.00000000000E+00 -0.68900431299E+02  0.68900431299E+02  0.00000000000E+00 0. -1.
          5    1    1    2  502    0 -0.69046432256E+02  0.64449937310E+02  0.13707108162E+03  0.16651473822E+03  0.41800000000E+01 0. -1.
         -5    1    1    2    0  502  0.36962067860E+02  0.68723913576E+02  0.26509992863E+03  0.27637766790E+03  0.41800000000E+01 0. -1.
        -11    1    1    2    0    0 -0.23468187658E+02 -0.47020847290E+02  0.19470681250E+01  0.52588087872E+02  0.00000000000E+00 0. -1.
         11    1    1    2    0    0  0.55552552054E+02 -0.86153003597E+02  0.89924375749E+02  0.13636282273E+03  0.00000000000E+00 0.  1.
</event>
<event>
 6    1  0.6981059E-006  0.1383999E+03  0.7561462E-02  0.1215498E+00
          2   -1    0    0  501    0  0.00000000000E+00  0.00000000000E+00  0.53223605822E+02  0.53223605822E+02  0.00000000000E+00 0. -1.
         -2   -1    0    0    0  501 -0.00000000000E+00 -0.00000000000E+00 -0.39100632007E+03  0.39100632007E+03  0.00000000000E+00 0.  1.
          5    1    1    2  502    0  0.29741999692E+01  0.95774173718E+02 -0.12387156863E+03  0.15666261881E+03  0.41800000000E+01 0.  1.
         -5    1    1    2    0  502  0.48298883106E+02 -0.24099594735E+02 -0.11354226599E+03  0.12578907401E+03  0.41800000000E+01 0.  1.
        -11    1    1    2    0    0 -0.31730270021E+02  0.16964950140E+02 -0.25236243415E+02  0.43948692251E+02  0.00000000000E+00 0.  1.
         11    1    1    2    0    0 -0.19542813054E+02 -0.88639529124E+02 -0.75132636216E+02  0.11782954082E+03  0.00000000000E+00 0. -1.
</event>
<event>
 6    1  0.6981059E-006  0.1282397E+03  0.7561462E-02  0.1230091E+00
         -1   -1    0    0    0  501 -0.00000000000E+00  0.00000000000E+00  0.39980219679E+02  0.39980219679E+02  0.00000000000E+00 0. -1.
          1   -1    0    0  501    0  0.00000000000E+00 -0.00000000000E+00 -0.57595770000E+03  0.57595770000E+03  0.00000000000E+00 0.  1.
          5    1    1    2  502    0 -0.52859568226E+02  0.55740791432E+02 -0.64590165891E+02  0.10045163867E+03  0.41800000000E+01 0. -1.
         -5    1    1    2    0  502 -0.52665671832E+02 -0.34642585121E+02 -0.21629176685E+03  0.22532949763E+03  0.41800000000E+01 0. -1.
        -11    1    1    2    0    0  0.84920326863E+02 -0.34640204230E+02 -0.24812703247E+03  0.26453436432E+03  0.00000000000E+00 0.  1.
         11    1    1    2    0    0  0.20604913195E+02  0.13541997919E+02 -0.69685151055E+01  0.25622419054E+02  0.00000000000E+00 0. -1.
</event>
<event>
 6    1  0.6981059E-006  0.8263088E+02  0.7561462E-02  0.1321747E+00
          1   -1    0    0  501    0  0.00000000000E+00  0.00000000000E+00  0.62373031553E+03  0.62373031553E+03  0.00000000000E+00 0. -1.
         -1   -1    0    0    0  501 -0.00000000000E+00 -0.00000000000E+00 -0.28427271046E+02  0.28427271046E+02  0.00000000000E+00 0.  1.
          5    1    1    2  502    0  0.29083191030E+02 -0.33711342898E+02  0.94952471102E+01  0.45715629254E+02  0.41800000000E+01 0.  1.
         -5    1    1    2    0  502  0.14967926149E+02 -0.21140294766E+02  0.24544051173E+03  0.24683895169E+03  0.41800000000E+01 0.  1.
        -11    1    1    2    0    0 -0.14267812550E+02 -0.13564994582E+02  0.12427981627E+02  0.23281629674E+02  0.00000000000E+00 0.  1.
         11    1    1    2    0    0 -0.29783304629E+02  0.68416632246E+02  0.32793930402E+03  0.33632137595E+03  0.00000000000E+00 0. -1.
</event>
<event>
 6    1  0.6981059E-006  0.1540720E+03  0.7561462E-02  0.1195557E+00
          2   -1    0    0  501    0  0.00000000000E+00  0.00000000000E+00  0.63161508679E+03  0.63161508679E+03  0.00000000000E+00 0. -1.
         -2   -1    0    0    0  501 -0.00000000000E+00 -0.00000000000E+00 -0.41840288531E+02  0.41840288531E+02  0.00000000000E+00 0.  1.
          5    1    1    2  502    0 -0.30580396176E+02 -0.10177129096E+02  0.62168893575E+02  0.70151110577E+02  0.41800000000E+01 0. -1.
         -5    1    1    2    0  502  0.63042790794E+02  0.12534556231E+03  0.23023995472E+03  0.26965498811E+03  0.41800000000E+01 0. -1.
        -11    1    1    2    0    0  0.18936977936E+02 -0.23496834541E+02  0.14780394801E+03  0.15085329766E+03  0.00000000000E+00 0. -1.
         11    1    1    2    0    0 -0.51399372553E+02 -0.91671598671E+02  0.14956200194E+03  0.18279597897E+03  0.00000000000E+00 0.  1.
</event>
<event>
 6    1  0.6981059E-006  0.9357083E+02  0.7561462E-02  0.1294428E+00
          1   -1    0    0  501    0  0.00000000000E+00  0.00000000000E+00  0.20024993202E+03  0.20024993202E+03  0.00000000000E+00 0. -1.
         -1   -1    0    0    0  501 -0.00000000000E+00 -0.00000000000E+00 -0.11317102424E+03  0.11317102424E+03  0.00000000000E+00 0.  1.
          5    1    1    2  502    0 -0.15665393911E+02  0.58120370706E+01  0.38917086812E+02  0.42558153006E+02  0.41800000000E+01 0. -1.
         -5    1    1    2    0  502 -0.24138619073E+01 -0.62447043211E+02 -0.80604499830E+02  0.10207848808E+03  0.41800000000E+01 0. -1.
        -11    1    1    2    0    0 -0.35104006885E+02  0.35876262358E+02  0.44995801148E+02  0.67409343723E+02  0.00000000000E+00 0. -1.
         11    1    1    2    0    0  0.53183262704E+02  0.20758743782E+02  0.83770519646E+02  0.10137497145E+03  0.00000000000E+00 0.  1.
</event>
<event>
 6    1  0.6981059E-006  0.1561600E+03  0.7561462E-02  0.1193102E+00
         -1   -1    0    0    0  501 -0.00000000000E+00  0.00000000000E+00  0.10075063184E+03  0.10075063184E+03  0.00000000000E+00 0.  1.
          1   -1    0    0  501    0  0.00000000000E+00 -0.00000000000E+00 -0.26278800546E+03  0.26278800546E+03  0.00000000000E+00 0. -1.
          5    1    1    2  502    0  0.24169057512E+02  0.52788443134E+02 -0.27851864602E+02  0.64528767471E+02  0.41800000000E+01 0.  1.
         -5    1    1    2    0  502  0.95562049705E+02 -0.64030702783E+02 -0.42205514057E+02  0.12260022047E+03  0.41800000000E+01 0.  1.
        -11    1    1    2    0    0 -0.73988006131E+02 -0.27627177001E+02 -0.84918934041E+02  0.11596857902E+03  0.00000000000E+00 0. -1.
         11    1    1    2    0    0 -0.45743101086E+02  0.38869436649E+02 -0.70610609238E+01  0.60441070339E+02  0.00000000000E+00 0.  1.
</event>
<event>
 6    1  0.6981059E-006  0.1976708E+03  0.7561462E-02  0.1151719E+00
          1   -1    0    0  501    0  0.00000000000E+00  0.00000000000E+00  0.25932048336E+03  0.25932048336E+03  0.00000000000E+00 0. -1.
         -1   -1    0    0    0  501 -0.00000000000E+00 -0.00000000000E+00 -0.20475372277E+03  0.20475372277E+03  0.00000000000E+00 0.  1.
          5    1    1    2  502    0  0.52272710562E+01  0.15556039991E+03 -0.79042077918E+02  0.17461811150E+03  0.41800000000E+01 0. -1.
         -5    1    1    2    0  502  0.17362759237E+02  0.37090473678E+02  0.42381036474E+02  0.59082935765E+02  0.41800000000E+01 0. -1.
        -11    1    1    2    0    0  0.79912725643E+01 -0.80084302713E+01  0.32196716169E+02  0.34126586771E+02  0.00000000000E+00 0. -1.
         11    1    1    2    0    0 -0.30581302858E+02 -0.18464244331E+03  0.59031085864E+02  0.19624657209E+03  0.00000000000E+00 0.  1.
</event>
<event>
 6    1  0.6981059E-006  0.1289282E+03  0.7561462E-02  0.1229055E+00
         -2   -1    0    0    0  501 -0.00000000000E+00  0.00000000000E+00  0.20443312711E+02  0.20443312711E+02  0.00000000000E+00 0.  1.
          2   -1    0    0  501    0  0.00000000000E+00 -0.00000000000E+00 -0.11252539580E+04  0.11252539580E+04  0.00000000000E+00 0. -1.
          5    1    1    2  502    0 -0.25943630779E+02 -0.13531695895E+02 -0.29708334179E+03  0.29855010156E+03  0.41800000000E+01 0. -1.
         -5    1    1    2    0  502  0.75741303708E+02 -0.77262905157E+02 -0.25799437341E+03  0.27979433645E+03  0.41800000000E+01 0. -1.
        -11    1    1    2    0    0 -0.24587254216E+02  0.91556567892E+02 -0.51903907850E+03  0.52762553312E+03  0.00000000000E+00 0.  1.
         11    1    1    2    0    0 -0.25210418712E+02 -0.76196684032E+00 -0.30693851542E+02  0.39727299526E+02  0.00000000000E+00 0. -1.
</event>
<event>
 6    1  0.6981059E-006  0.1006356E+03  0.7561462E-02  0.1278965E+00
          2   -1    0    0  501    0  0.00000000000E+00  0.00000000000E+00  0.28259647459E+02  0.28259647459E+02  0.00000000000E+00 0. -1.
         -2   -1    0    0    0  501 -0.00000000000E+00 -0.00000000000E+00 -0.47491899567E+03  0.47491899567E+03  0.00000000000E+00 0.  1.
          5    1    1    2  502    0 -0.48368508343E+01  0.64989643850E+02 -0.10863586438E+03  0.12675280022E+03  0.41800000000E+01 0. -1.
         -5    1    1    2    0  502  0.17122652314E+01 -0.46494129081E+02 -0.23089423815E+03  0.23557219170E+03  0.41800000000E+01 0. -1.
        -11    1    1    2    0    0  0.21350963832E+02  0.30356687050E+02 -0.29844039299E+02  0.47624140799E+02  0.00000000000E+00 0. -1.
         11    1    1    2    0    0 -0.18226378229E+02 -0.48852201818E+02 -0.77285206379E+02  0.93229510408E+02  0.00000000000E+00 0.  1.
</event>
<event>
 6    1  0.6981059E-006  0.1696910E+03  0.7561462E-02  0.1178170E+00
          2   -1    0    0  501    0  0.00000000000E+00  0.00000000000E+00  0.37181508189E+03  0.37181508189E+03  0.00000000000E+00 0. -1.
         -2   -1    0    0    0  501 -0.00000000000E+00 -0.00000000000E+00 -0.11204863477E+03  0.11204863477E+03  0.00000000000E+00 0.  1.
          5    1    1    2  502    0 -0.25115150674E+02  0.13480527659E+02 -0.15825460265E+02  0.32869636626E+02  0.41800000000E+01 0.  1.
         -5    1    1    2    0  502  0.18299826954E+02 -0.14801062673E+03  0.23109445102E+02  0.15097532296E+03  0.41800000000E+01 0.  1.
        -11    1    1    2    0    0  0.46050564125E+02  0.48815102877E+02  0.11875322159E+03  0.13640343237E+03  0.00000000000E+00 0.  1.
         11    1    1    2    0    0 -0.39235240405E+02  0.85714996194E+02  0.13372924069E+03  0.16361532470E+03  0.00000000000E+00 0. -1.
</event>
<event>
 6    1  0.7173467E-006  0.1319909E+03  0.7561462E-02  0.1224531E+00
         -1   -1    0    0    0  501 -0.00000000000E+00  0.00000000000E+00  0.23831305397E+03  0.23831305397E+03  0.00000000000E+00 0.  1.
          1   -1    0    0  501    0  0.00000000000E+00 -0.00000000000E+00 -0.96411138343E+02  0.96411138343E+02  0.00000000000E+00 0. -1.
          5    1    1    2  502    0 -0.28377627788E+02 -0.20608486307E+02  0.41299236694E+02  0.54342421903E+02  0.41800000000E+01 0.  1.
         -5    1    1    2    0  502  0.10429782131E+03 -0.48531012753E+02  0.10527933527E+02  0.11559240682E+03  0.41800000000E+01 0.  1.
        -11    1    1    2    0    0 -0.34622817265E+02  0.62879033653E+02  0.73989520818E+01  0.72161325102E+02  0.00000000000E+00 0. -1.
         11    1    1    2    0    0 -0.41297376259E+02  0.62604654069E+01  0.82675793328E+02  0.92628038495E+02  0.00000000000E+00 0.  1.
</event>
<event>
 6    1  0.6981059E-006  0.7403085E+02  0.7561462E-02  0.1346899E+00
         -1   -1    0    0    0  501 -0.00000000000E+00  0.00000000000E+00  0.29326928936E+03  0.29326928936E+03  0.00000000000E+00 0. -1.
          1   -1    0    0  501    0  0.00000000000E+00 -0.00000000000E+00 -0.58638566610E+02  0.58638566610E+02  0.00000000000E+00 0.  1.
          5    1    1    2  502    0  0.50805280594E+02  0.82412338197E+01  0.32068107839E+02  0.60785939258E+02  0.41800000000E+01 0. -1.
         -5    1    1    2    0  502 -0.35053700174E+02 -0.35752475323E+02  0.18540707983E+03  0.19209440137E+03  0.41800000000E+01 0. -1.
        -11    1    1    2    0    0  0.99534352040E+01  0.13888977953E+02 -0.35202420222E+02  0.39130358680E+02  0.00000000000E+00 0.  1.
         11    1    1    2    0    0 -0.25705015624E+02  0.13622263550E+02  0.52357955308E+02  0.59897156664E+02  0.00000000000E+00 0. -1.
</event>
<event>
 6    1  0.6981059E-006  0.1052611E+03  0.7561462E-02  0.1269606E+00
         -1   -1    0    0    0  501 -0.00000000000E+00  0.00000000000E+00  0.30223726701E+03  0.30223726701E+03  0.00000000000E+00 0.  1.
          1   -1    0    0  501    0  0.00000000000E+00 -0.00000000000E+00 -0.64934006209E+02  0.64934006209E+02  0.00000000000E+00 0. -1.
          5    1    1    2  502    0  0.21115067388E+02  0.21744157897E+01  0.14918790270E+03  0.15074838927E+03  0.41800000000E+01 0. -1.
         -5    1    1    2    0  502  0.80645561471E+00  0.75268707399E+02  0.27584691233E+02  0.80277121739E+02  0.41800000000E+01 0. -1.
        -11    1    1    2    0    0  0.30516544331E+02 -0.27333529138E+02 -0.10760286670E+01  0.40982180649E+02  0.00000000000E+00 0. -1.
         11    1    1    2    0    0 -0.52438067334E+02 -0.50109594051E+02  0.61606695540E+02  0.95163581569E+02  0.00000000000E+00 0.  1.
</event>
<event>
 6    1  0.6981059E-006  0.2318127E+03  0.7561462E-02  0.1125370E+00
         -2   -1    0    0    0  501 -0.00000000000E+00  0.00000000000E+00  0.29563985047E+02  0.29563985047E+02  0.00000000000E+00 0.  1.
          2   -1    0    0  501    0  0.00000000000E+00 -0.00000000000E+00 -0.19677109225E+04  0.19677109225E+04  0.00000000000E+00 0. -1.
          5    1    1    2  502    0  0.43820664661E+02 -0.38758557588E+02 -0.14239932321E+03  0.15400492229E+03  0.41800000000E+01 0. -1.
         -5    1    1    2    0  502 -0.72429355431E+02 -0.16516200108E+03 -0.59689706727E+03  0.62356080653E+03  0.41800000000E+01 0. -1.
        -11    1    1    2    0    0 -0.32703070892E+02  0.75225436050E+02 -0.44679121378E+03  0.45425845703E+03  0.00000000000E+00 0.  1.
         11    1    1    2    0    0  0.61311761662E+02  0.12869512261E+03 -0.75205933315E+03  0.76545072166E+03  0.00000000000E+00 0. -1.
</event>
<event>
 6    1  0.6981059E-006  0.1547985E+03  0.7561462E-02  0.1194698E+00
         -2   -1    0    0    0  501 -0.00000000000E+00  0.00000000000E+00  0.19894900108E+03  0.19894900108E+03  0.00000000000E+00 0.  1.
          2   -1    0    0  501    0  0.00000000000E+00 -0.00000000000E+00 -0.12992306766E+03  0.12992306766E+03  0.00000000000E+00 0. -1.
          5    1    1    2  502    0  0.13690995319E+03  0.15697332893E+02  0.35988358084E+02  0.14248991494E+03  0.41800000000E+01 0. -1.
         -5    1    1    2    0  502 -0.22087757233E+02  0.93321968505E+01 -0.17714711108E+02  0.30103858678E+02  0.41800000000E+01 0. -1.
        -11    1    1    2    0    0 -0.82812607076E+02  0.26305137268E+02  0.24097232769E+02  0.90169644363E+02  0.00000000000E+00 0.  1.
         11    1    1    2    0    0 -0.32009588884E+02 -0.51334667011E+02  0.26655053672E+02  0.66108650749E+02  0.00000000000E+00 0. -1.
</event>
<event>
 6    1  0.6981059E-006  0.9133904E+02  0.7561462E-02  0.1299641E+00
         -1   -1    0    0    0  501 -0.00000000000E+00  0.00000000000E+00  0.15479722745E+03  0.15479722745E+03  0.00000000000E+00 0.  1.
          1   -1    0    0  501    0  0.00000000000E+00 -0.00000000000E+00 -0.13658528148E+03  0.13658528148E+03  0.00000000000E+00 0. -1.
          5    1    1    2  502    0  0.51064065648E+01 -0.11477478911E+02  0.86769234208E+02  0.87773460198E+02  0.41800000000E+01 0.  1.
         -5    1    1    2    0  502  0.61234830314E+02  0.39738140820E+02 -0.13161378172E+02  0.74293462396E+02  0.41800000000E+01 0.  1.
        -11    1    1    2    0    0 -0.58441672149E+02  0.81996493234E+01 -0.67907505833E+02  0.89967175353E+02  0.00000000000E+00 0. -1.
         11    1    1    2    0    0 -0.78995647293E+01 -0.36460311232E+02  0.12511595766E+02  0.39348410981E+02  0.00000000000E+00 0.  1.
</event>
<event>
 6    1  0.6981059E-006  0.8362418E+02  0.7561462E-02  0.1319070E+00
          1   -1    0    0  501    0  0.00000000000E+00  0.00000000000E+00  0.34814769973E+02  0.34814769973E+02  0.00000000000E+00 0. -1.
         -1   -1    0    0    0  501 -0.00000000000E+00 -0.00000000000E+00 -0.56755819129E+03  0.56755819129E+03  0.00000000000E+00 0.  1.
          5    1    1    2  502    0  0.60626824216E+02 -0.27636081554E+02 -0.11125781134E+03  0.12975029018E+03  0.41800000000E+01 0.  1.
         -5    1    1    2    0  502 -0.12258330472E+02  0.23211925566E+02 -0.33996888053E+03  0.34100641091E+03  0.41800000000E+01 0.  1.
        -11    1    1    2    0    0 -0.45220545844E+00 -0.20083162111E+02 -0.74714864313E+02  0.77368267653E+02  0.00000000000E+00 0.  1.
         11    1    1    2    0    0 -0.47916288285E+02  0.24507318099E+02 -0.68018651400E+01  0.54247992523E+02  0.00000000000E+00 0. -1.
</event>
<event>
 6    1  0.6981059E-006  0.1295929E+03  0.7561462E-02  0.1228061E+00
         -2   -1    0    0    0  501 -0.00000000000E+00  0.00000000000E+00  0.54921169814E+02  0.54921169814E+02  0.00000000000E+00 0.  1.
          2   -1    0    0  501    0  0.00000000000E+00 -0.00000000000E+00 -0.36678096955E+03  0.36678096955E+03  0.00000000000E+00 0. -1.
          5    1    1    2  502    0  0.10068081869E+03  0.35466843035E+01 -0.66819118503E+02  0.12096062673E+03  0.41800000000E+01 0. -1.
         -5    1    1    2    0  502 -0.27050197516E+02  0.39006625548E+02 -0.58622311129E+02  0.75546527282E+02  0.41800000000E+01 0. -1.
        -11    1    1    2    0    0 -0.82301872554E+02 -0.17431332361E+02 -0.17871295938E+03  0.19752410340E+03  0.00000000000E+00 0. -1.
         11    1    1    2    0    0  0.86712513795E+01 -0.25121977490E+02 -0.77054107256E+01  0.27670881951E+02  0.00000000000E+00 0.  1.
</event>
<event>
 6    1  0.6981059E-006  0.1720771E+03  0.7561462E-02  0.1175699E+00
         -1   -1    0    0    0  501 -0.00000000000E+00  0.00000000000E+00  0.11644129149E+03  0.11644129149E+03  0.00000000000E+00 0.  1.
          1   -1    0    0  501    0  0.00000000000E+00 -0.00000000000E+00 -0.28079173075E+03  0.28079173075E+03  0.00000000000E+00 0. -1.
          5    1    1    2  502    0 -0.21580761445E+02  0.16454630247E+02 -0.40915701394E+02  0.49275258920E+02  0.41800000000E+01 0. -1.
         -5    1    1    2    0  502  0.14958977065E+03 -0.59373922652E+02 -0.37191425637E+02  0.16523630568E+03  0.41800000000E+01 0.  1.
        -11    1    1    2    0    0 -0.85146730216E+02 -0.12049322592E+02 -0.70647740841E+02  0.11129355384E+03  0.00000000000E+00 0. -1.
         11    1    1    2    0    0 -0.42862278987E+02  0.54968614996E+02 -0.15595571392E+02  0.71427903802E+02  0.00000000000E+00 0.  1.
</event>
<event>
 6    1  0.6981059E-006  0.1119362E+03  0.7561462E-02  0.1257026E+00
         -2   -1    0    0    0  501 -0.00000000000E+00  0.00000000000E+00  0.10986652883E+03  0.10986652883E+03  0.00000000000E+00 0.  1.
          2   -1    0    0  501    0  0.00000000000E+00 -0.00000000000E+00 -0.18257074574E+03  0.18257074574E+03  0.00000000000E+00 0. -1.
          5    1    1    2  502    0  0.50054619021E+01 -0.10803595499E+02 -0.69080311262E+02  0.70223458536E+02  0.41800000000E+01 0. -1.
         -5    1    1    2    0  502 -0.32786793796E+02 -0.76869367054E+02  0.31695010629E+02  0.89475804202E+02  0.41800000000E+01 0. -1.
        -11    1    1    2    0    0  0.34107958702E+02 -0.51902271437E+01 -0.50909621001E+01  0.34874191026E+02  0.00000000000E+00 0.  1.
         11    1    1    2    0    0 -0.63266268089E+01  0.92863189698E+02 -0.30227954178E+02  0.97863820799E+02  0.00000000000E+00 0. -1.
</event>
<event>
 6    1  0.6981059E-006  0.1012944E+03  0.7561462E-02  0.1277597E+00
          1   -1    0    0  501    0  0.00000000000E+00  0.00000000000E+00  0.21832611723E+02  0.21832611723E+02  0.00000000000E+00 0. -1.
         -1   -1    0    0    0  501 -0.00000000000E+00 -0.00000000000E+00 -0.76897941529E+03  0.76897941529E+03  0.00000000000E+00 0.  1.
          5    1    1    2  502    0  0.33546407233E+02 -0.37088905820E+02 -0.10328098348E+03  0.11482762003E+03  0.41800000000E+01 0.  1.
         -5    1    1    2    0  502 -0.68527428518E+02 -0.61163139394E+01 -0.44368090549E+03  0.44900293546E+03  0.41800000000E+01 0.  1.
        -11    1    1    2    0    0  0.49248286043E+02  0.47657838908E+02 -0.20064739293E+03  0.21202839333E+03  0.00000000000E+00 0.  1.
         11    1    1    2    0    0 -0.14267264758E+02 -0.44526191489E+01  0.46247834459E+00  0.14953078184E+02  0.00000000000E+00 0. -1.
</event>
<event>
 6    1  0.6981059E-006  0.2337591E+03  0.7561462E-02  0.1124022E+00
         -2   -1    0    0    0  501 -0.00000000000E+00  0.00000000000E+00  0.18864314183E+03  0.18864314183E+03  0.00000000000E+00 0.  1.
          2   -1    0    0  501    0  0.00000000000E+00 -0.00000000000E+00 -0.34020458117E+03  0.34020458117E+03  0.00000000000E+00 0. -1.
          5    1    1    2  502    0 -0.13789739557E+03  0.10015082522E+03  0.13306394544E+02  0.17099828079E+03  0.41800000000E+01 0.  1.
         -5    1    1    2    0  502 -0.67319743065E+02 -0.36980464185E+02 -0.96686784824E+01  0.77527145448E+02  0.41800000000E+01 0.  1.
        -11    1    1    2    0    0  0.12128617444E+03 -0.61916513855E+02 -0.13946186940E+03  0.19491948034E+03  0.00000000000E+00 0.  1.
         11    1    1    2    0    0  0.83930964191E+02 -0.12538471838E+01 -0.15737286007E+02  0.85402816427E+02  0.00000000000E+00 0. -1.
</event>
<event>
 6    1  0.6981059E-006  0.1487637E+03  0.7561462E-02  0.1202000E+00
         -2   -1    0    0    0  501 -0.00000000000E+00  0.00000000000E+00  0.71530864140E+03  0.71530864140E+03  0.00000000000E+00 0. -1.
          2   -1    0    0  501    0  0.00000000000E+00 -0.00000000000E+00 -0.31224821819E+02  0.31224821819E+02  0.00000000000E+00 0.  1.
          5    1    1    2  502    0  0.17752060214E+02 -0.43800814767E+02  0.11917134360E+03  0.12826896955E+03  0.41800000000E+01 0.  1.
         -5    1    1    2    0  502  0.75104514855E+02  0.85390805245E+02  0.28518944782E+03  0.30705499723E+03  0.41800000000E+01 0.  1.
        -11    1    1    2    0    0 -0.10035731110E+03 -0.66818253436E+01  0.21207988225E+03  0.23472135211E+03  0.00000000000E+00 0.  1.
         11    1    1    2    0    0  0.75007360304E+01 -0.34908165134E+02  0.67643145910E+02  0.76488144327E+02  0.00000000000E+00 0. -1.
</event>
<event>
 6    1  0.6981059E-006  0.8157846E+02  0.7561462E-02  0.1324631E+00
          2   -1    0    0  501    0  0.00000000000E+00  0.00000000000E+00  0.49860586065E+03  0.49860586065E+03  0.00000000000E+00 0. -1.
         -2   -1    0    0    0  501 -0.00000000000E+00 -0.00000000000E+00 -0.26232464044E+02  0.26232464044E+02  0.00000000000E+00 0.  1.
          5    1    1    2  502    0  0.35695261516E+02  0.10279279168E+01  0.17727500778E+03  0.18088424231E+03  0.41800000000E+01 0. -1.
         -5    1    1    2    0  502 -0.40032777305E+02  0.76534705034E+01  0.62804350998E+01  0.41450152407E+02  0.41800000000E+01 0. -1.
        -11    1    1    2    0    0  0.11371398615E+02 -0.46445798777E+02  0.11602057084E+03  0.12548822171E+03  0.00000000000E+00 0.  1.
         11    1    1    2    0    0 -0.70338828261E+01  0.37764400357E+02  0.17279738289E+03  0.17701570827E+03  0.00000000000E+00 0. -1.
</event>
<event>
 6    1  0.6981059E-006  0.1131060E+03  0.7561462E-02  0.1254924E+00
          2   -1    0    0  501    0  0.00000000000E+00  0.00000000000E+00  0.80705613036E+02  0.80705613036E+02  0.00000000000E+00 0. -1.
         -2   -1    0    0    0  501 -0.00000000000E+00 -0.00000000000E+00 -0.17664920063E+03  0.17664920063E+03  0.00000000000E+00 0.  1.
          5    1    1    2  502    0 -0.75538622544E+02 -0.41118127752E+01 -0.41312206938E+02  0.86296937038E+02  0.41800000000E+01 0. -1.
         -5    1    1    2    0  502  0.47412119444E+02 -0.30211952891E+02 -0.43310979368E+02  0.71091381344E+02  0.41800000000E+01 0. -1.
        -11    1    1    2    0    0 -0.15832959358E+02  0.45949140647E+02  0.10201608697E+02  0.49659630972E+02  0.00000000000E+00 0. -1.
         11    1    1    2    0    0  0.43959462458E+02 -0.11625374981E+02 -0.21522009983E+02  0.50306864310E+02  0.00000000000E+00 0.  1.
</event>
<event>
 6    1  0.6981059E-006  0.1506555E+03  0.7561462E-02  0.1199670E+00
          3   -1    0    0  501    0  0.00000000000E+00  0.00000000000E+00  0.20419712398E+03  0.20419712398E+03  0.00000000000E+00 0. -1.
         -3   -1    0    0    0  501 -0.00000000000E+00 -0.00000000000E+00 -0.15437367367E+03  0.15437367367E+03  0.00000000000E+00 0.  1.
          5    1    1    2  502    0 -0.54903503631E+02 -0.11066792496E+03 -0.41459048811E+02  0.13037679799E+03  0.41800000000E+01 0. -1.
         -5    1    1    2    0  502 -0.41551768818E+02  0.24854843707E+02  0.16065861377E+02  0.51184929905E+02  0.41800000000E+01 0. -1.
        -11    1    1    2    0    0  0.32223462728E+02  0.28958525987E+02 -0.20967590769E+02  0.48130942648E+02  0.00000000000E+00 0.  1.
         11    1    1    2    0    0  0.64231809721E+02  0.56854555263E+02  0.96184228511E+02  0.12887812711E+03  0.00000000000E+00 0. -1.
</event>
<event>
 6    1  0.6981059E-006  0.1749580E+03  0.7561462E-02  0.1172774E+00
         -2   -1    0    0    0  501 -0.00000000000E+00  0.00000000000E+00  0.25014767377E+02  0.25014767377E+02  0.00000000000E+00 0.  1.
          2   -1    0    0  501    0  0.00000000000E+00 -0.00000000000E+00 -0.13231105868E+04  0.13231105868E+04  0.00000000000E+00 0. -1.
          5    1    1    2  502    0 -0.91313042171E+02  0.47296276171E+02 -0.43670959643E+03  0.44867332595E+03  0.41800000000E+01 0. -1.
         -5    1    1    2    0  502  0.15681331046E+02  0.85521227674E+02 -0.20422500384E+03  0.22200249800E+03  0.41800000000E+01 0. -1.
        -11    1    1    2    0    0  0.28757893424E+02 -0.96378245051E+02 -0.33154591795E+03  0.34646569565E+03  0.00000000000E+00 0.  1.
         11    1    1    2    0    0  0.46873817700E+02 -0.36439258793E+02 -0.32561530122E+03  0.33098383458E+03  0.00000000000E+00 0. -1.
</event>
<event>
 6    1  0.6981059E-006  0.7618735E+02  0.7561462E-02  0.1340233E+00
          2   -1    0    0  501    0  0.00000000000E+00  0.00000000000E+00  0.73101566378E+02  0.73101566378E+02  0.00000000000E+00 0. -1.
         -2   -1    0    0    0  501 -0.00000000000E+00 -0.00000000000E+00 -0.17027707831E+03  0.17027707831E+03  0.00000000000E+00 0.  1.
          5    1    1    2  502    0 -0.71205273456E+01 -0.44835310104E+02  0.11693916184E+02  0.47065135903E+02  0.41800000000E+01 0.  1.
         -5    1    1    2    0  502 -0.11648762140E+02  0.47612128654E+02 -0.87641566165E+02  0.10050435301E+03  0.41800000000E+01 0.  1.
        -11    1    1    2    0    0  0.83462123855E+01 -0.28573933806E+02 -0.48462722381E+02  0.56874989362E+02  0.00000000000E+00 0.  1.
         11    1    1    2    0    0  0.10423077100E+02  0.25797115257E+02  0.27234860428E+02  0.38934166414E+02  0.00000000000E+00 0. -1.
</event>
<event>
 6    1  0.6981059E-006  0.1678054E+03  0.7561462E-02  0.1180156E+00
         -1   -1    0    0    0  501 -0.00000000000E+00  0.00000000000E+00  0.10400491366E+03  0.10400491366E+03  0.00000000000E+00 0.  1.
          1   -1    0    0  501    0  0.00000000000E+00 -0.00000000000E+00 -0.31322019399E+03  0.31322019399E+03  0.00000000000E+00 0. -1.
          5    1    1    2  502    0  0.15313398955E+03 -0.29819279923E+02 -0.65501828408E+02  0.16925474922E+03  0.41800000000E+01 0.  1.
         -5    1    1    2    0  502 -0.11291150074E+02  0.11230785888E+02 -0.51126382822E+02  0.53712196400E+02  0.41800000000E+01 0.  1.
        -11    1    1    2    0    0 -0.13990551174E+03 -0.44340697991E+01 -0.55528783634E+02  0.15058771199E+03  0.00000000000E+00 0.  1.
         11    1    1    2    0    0 -0.19373277380E+01  0.23022563835E+02 -0.37058285469E+02  0.43670450034E+02  0.00000000000E+00 0. -1.
</event>
<event>
 6    1  0.6981059E-006  0.9527860E+02  0.7561462E-02  0.1290550E+00
          2   -1    0    0  501    0  0.00000000000E+00  0.00000000000E+00  0.30514002735E+02  0.30514002735E+02  0.00000000000E+00 0.  1.
         -2   -1    0    0    0  501 -0.00000000000E+00 -0.00000000000E+00 -0.44634016458E+03  0.44634016458E+03  0.00000000000E+00 0. -1.
          5    1    1    2  502    0  0.49536689419E+02  0.49108451213E+01 -0.54909184173E+02  0.74232680842E+02  0.41800000000E+01 0.  1.
         -5    1    1    2    0  502 -0.48693442252E+02  0.19149847198E+02 -0.26416449049E+03  0.26932901515E+03  0.41800000000E+01 0.  1.
        -11    1    1    2    0    0  0.23087743573E+01  0.31939719897E+02 -0.18398664765E+02  0.36932194780E+02  0.00000000000E+00 0.  1.
         11    1    1    2    0    0 -0.31520215241E+01 -0.56000412216E+02 -0.78353822415E+02  0.96360276541E+02  0.00000000000E+00 0. -1.
</event>
<event>
 6    1  0.6981059E-006  0.1019848E+03  0.7561462E-02  0.1276177E+00
          1   -1    0    0  501    0  0.00000000000E+00  0.00000000000E+00  0.24386172918E+03  0.24386172918E+03  0.00000000000E+00 0. -1.
         -1   -1    0    0    0  501 -0.00000000000E+00 -0.00000000000E+00 -0.60764771366E+02  0.60764771366E+02  0.00000000000E+00 0.  1.
          5    1    1    2  502    0  0.54689495568E+02  0.42339413426E+02  0.12336249354E+03  0.14148973131E+03  0.41800000000E+01 0.  1.
         -5    1    1    2    0  502 -0.39101577985E+01 -0.39266360640E+02 -0.24649164208E+01  0.39757824701E+02  0.41800000000E+01 0.  1.
        -11    1    1    2    0    0  0.15238772089E+02  0.19929607749E+02  0.44782841794E+02  0.51331397399E+02  0.00000000000E+00 0. -1.
         11    1    1    2    0    0 -0.66018109858E+02 -0.23002660534E+02  0.17416538903E+02  0.72047547136E+02  0.00000000000E+00 0.  1.
</event>
<event>
 6    1  0.6981059E-006  0.7635496E+02  0.7561462E-02  0.1339726E+00
          1   -1    0    0  501    0  0.00000000000E+00  0.00000000000E+00  0.18401407106E+03  0.18401407106E+03  0.00000000000E+00 0. -1.
         -1   -1    0    0    0  501 -0.00000000000E+00 -0.00000000000E+00 -0.94213634077E+02  0.94213634077E+02  0.00000000000E+00 0.  1.
          5    1    1    2  502    0 -0.25195235370E+02  0.31615876034E+02  0.39391601889E+02  0.56599772103E+02  0.41800000000E+01 0.  1.
         -5    1    1    2    0  502  0.34837303229E+01 -0.32749219667E+02 -0.64908490697E+02  0.72905639907E+02  0.41800000000E+01 0.  1.
        -11    1    1    2    0    0 -0.23305108699E+02 -0.18501859281E+02  0.87185015445E+02  0.92123144793E+02  0.00000000000E+00 0. -1.
         11    1    1    2    0    0  0.45016613746E+02  0.19635202914E+02  0.28132310345E+02  0.56599148333E+02  0.00000000000E+00 0.  1.
</event>
<event>
 6    1  0.6981059E-006  0.1095111E+03  0.7561462E-02  0.1261478E+00
         -2   -1    0    0    0  501 -0.00000000000E+00  0.00000000000E+00  0.17854003877E+02  0.17854003877E+02  0.00000000000E+00 0.  1.
          2   -1    0    0  501    0  0.00000000000E+00 -0.00000000000E+00 -0.72047543828E+03  0.72047543828E+03  0.00000000000E+00 0. -1.
          5    1    1    2  502    0  0.46029939263E+02  0.34008858839E+02 -0.11585289571E+03  0.12928543473E+03  0.41800000000E+01 0.  1.
         -5    1    1    2    0  502 -0.65203560730E+02 -0.10297786446E+02 -0.24893236392E+03  0.25757007385E+03  0.41800000000E+01 0.  1.
        -11    1    1    2    0    0  0.52977936109E+02 -0.30334536163E+02 -0.18532724256E+03  0.19512312173E+03  0.00000000000E+00 0. -1.
         11    1    1    2    0    0 -0.33804314642E+02  0.66234637704E+01 -0.15250893220E+03  0.15635081184E+03  0.00000000000E+00 0.  1.
</event>
<event>
 6    1  0.6981059E-006  0.1527870E+03  0.7561462E-02  0.1197090E+00
         -1   -1    0    0    0  501 -0.00000000000E+00  0.00000000000E+00  0.29363029511E+02  0.29363029511E+02  0.00000000000E+00 0.  1.
          1   -1    0    0  501    0  0.00000000000E+00 -0.00000000000E+00 -0.10009208392E+04  0.10009208392E+04  0.00000000000E+00 0. -1.
          5    1    1    2  502    0  0.38912817908E+02  0.95157762903E+02 -0.42967910982E+03  0.44182668214E+03  0.41800000000E+01 0. -1.
         -5    1    1    2    0  502  0.44840295738E+02  0.10731725747E+02 -0.41419990823E+02  0.62120126361E+02  0.41800000000E+01 0.  1.
        -11    1    1    2    0    0  0.12827281765E+02 -0.32947894815E+02 -0.60892611414E+02  0.70413159672E+02  0.00000000000E+00 0.  1.
         11    1    1    2    0    0 -0.96580395411E+02 -0.72941593835E+02 -0.43956609759E+03  0.45592390049E+03  0.00000000000E+00 0. -1.
</event>
<event>
 6    1  0.6981059E-006  0.6500420E+02  0.7561462E-02  0.1377956E+00
          1   -1    0    0  501    0  0.00000000000E+00  0.00000000000E+00  0.26902884109E+03  0.26902884109E+03  0.00000000000E+00 0. -1.
         -1   -1    0    0    0  501 -0.00000000000E+00 -0.00000000000E+00 -0.52663482966E+02  0.52663482966E+02  0.00000000000E+00 0.  1.
          5    1    1    2  502    0 -0.94647902536E+01 -0.33429031556E+02  0.12349454554E+03  0.12835675901E+03  0.41800000000E+01 0.  1.
         -5    1    1    2    0  502  0.16704684839E+02 -0.10696517793E+02 -0.28486131344E+02  0.34962752572E+02  0.41800000000E+01 0.  1.
        -11    1    1    2    0    0 -0.33602571156E+02  0.28758030630E+02  0.13441218668E+02  0.46225787968E+02  0.00000000000E+00 0.  1.
         11    1    1    2    0    0  0.26362676570E+02  0.15367518719E+02  0.10791572527E+03  0.11214702451E+03  0.00000000000E+00 0. -1.
</event>
<event>
 6    1  0.6981059E-006  0.1299215E+03  0.7561462E-02  0.1227572E+00
         -1   -1    0    0    0  501 -0.00000000000E+00  0.00000000000E+00  0.51851124720E+02  0.51851124720E+02  0.00000000000E+00 0.  1.
          1   -1    0    0  501    0  0.00000000000E+00 -0.00000000000E+00 -0.47536047148E+03  0.47536047148E+03  0.00000000000E+00 0. -1.
          5    1    1    2  502    0  0.87219000722E+02 -0.43897311628E+01 -0.15695337510E+03  0.17966151002E+03  0.41800000000E+01 0. -1.
         -5    1    1    2    0  502  0.97188601493E+01  0.40450471704E+02  0.57018603421E+01  0.42198110325E+02  0.41800000000E+01 0. -1.
        -11    1    1    2    0    0 -0.10864331828E+03 -0.19588910812E+02 -0.18203559175E+03  0.21289446376E+03  0.00000000000E+00 0.  1.
         11    1    1    2    0    0  0.11705457412E+02 -0.16471829729E+02 -0.90222240252E+02  0.92457512102E+02  0.00000000000E+00 0. -1.
</event>
<event>
 6    1  0.6981059E-006  0.6226899E+02  0.7561462E-02  0.1388549E+00
         -1   -1    0    0    0  501 -0.00000000000E+00  0.00000000000E+00  0.36491401218E+03  0.36491401218E+03  0.00000000000E+00 0.  1.
          1   -1    0    0  501    0  0.00000000000E+00 -0.00000000000E+00 -0.43849833616E+02  0.43849833616E+02  0.00000000000E+00 0. -1.
          5    1    1    2  502    0 -0.58712867846E+01 -0.50399616921E+02  0.26051462326E+03  0.26544290295E+03  0.41800000000E+01 0.  1.
         -5    1    1    2    0  502  0.56886079435E+01  0.15855329213E+02 -0.75041626935E+01  0.18908637775E+02  0.41800000000E+01 0.  1.
        -11    1    1    2    0    0 -0.20604202209E+02  0.69972666643E+01  0.83728150887E+02  0.86509526298E+02  0.00000000000E+00 0.  1.
         11    1    1    2    0    0  0.20786881050E+02  0.27547021044E+02 -0.15674432890E+02  0.37902778772E+02  0.00000000000E+00 0. -1.
</event>
<event>
 6    1  0.6981059E-006  0.1804483E+03  0.7561462E-02  0.1167370E+00
         -2   -1    0    0    0  501 -0.00000000000E+00  0.00000000000E+00  0.11665390130E+03  0.11665390130E+03  0.00000000000E+00 0.  1.
          2   -1    0    0  501    0  0.00000000000E+00 -0.00000000000E+00 -0.40302251808E+03  0.40302251808E+03  0.00000000000E+00 0. -1.
          5    1    1    2  502    0  0.16519819112E+03  0.17443221685E+02 -0.69605782975E+02  0.18015866828E+03  0.41800000000E+01 0. -1.
         -5    1    1    2    0  502  0.16891406717E+01 -0.25262497705E+02  0.22124170899E+02  0.33882123966E+02  0.41800000000E+01 0. -1.
        -11    1    1    2    0    0 -0.12986982794E+03  0.16861594035E+02 -0.10935095728E+03  0.17061101201E+03  0.00000000000E+00 0.  1.
         11    1    1    2    0    0 -0.37017503855E+02 -0.90423180157E+01 -0.12953604742E+03  0.13502461512E+03  0.00000000000E+00 0. -1.
</event>
<event>
 6    1  0.6981059E-006  0.9799327E+02  0.7561462E-02  0.1284573E+00
          1   -1    0    0  501    0  0.00000000000E+00  0.00000000000E+00  0.63978464285E+02  0.63978464285E+02  0.00000000000E+00 0. -1.
         -1   -1    0    0    0  501 -0.00000000000E+00 -0.00000000000E+00 -0.23246935309E+03  0.23246935309E+03  0.00000000000E+00 0.  1.
          5    1    1    2  502    0 -0.13764453691E+02  0.31115908958E+02  0.62486828122E+01  0.34845062959E+02  0.41800000000E+01 0.  1.
         -5    1    1    2    0  502  0.58217512175E+02 -0.20684570619E+02 -0.14398441866E+03  0.15673581404E+03  0.41800000000E+01 0.  1.
        -11    1    1    2    0    0 -0.26659758771E+02  0.39002592525E+02 -0.19652011225E+02  0.51167826870E+02  0.00000000000E+00 0.  1.
         11    1    1    2    0    0 -0.17793299712E+02 -0.49433930864E+02 -0.11103141734E+02  0.53699113510E+02  0.00000000000E+00 0. -1.
</event>
<event>
 6    1  0.6981059E-006  0.1482964E+03  0.7561462E-02  0.1202582E+00
          1   -1    0    0  501    0  0.00000000000E+00  0.00000000000E+00  0.19066810034E+03  0.19066810034E+03  0.00000000000E+00 0. -1.
         -1   -1    0    0    0  501 -0.00000000000E+00 -0.00000000000E+00 -0.23626778762E+03  0.23626778762E+03  0.00000000000E+00 0.  1.
          5    1    1    2  502    0 -0.14184435134E+01 -0.14126511893E+02 -0.63785988659E+02  0.65480493809E+02  0.41800000000E+01 0. -1.
         -5    1    1    2    0  502  0.49340227583E+02  0.13756187039E+03 -0.80535018959E+02  0.16691640999E+03  0.41800000000E+01 0. -1.
        -11    1    1    2    0    0 -0.25540375709E+02 -0.29475913997E+02  0.89357021997E+02  0.97497782936E+02  0.00000000000E+00 0. -1.
         11    1    1    2    0    0 -0.22381408361E+02 -0.93959444504E+02  0.93642983377E+01  0.97041201225E+02  0.00000000000E+00 0.  1.
</event>
<event>
 6    1  0.6981059E-006  0.8958576E+02  0.7561462E-02  0.1303858E+00
          1   -1    0    0  501    0  0.00000000000E+00  0.00000000000E+00  0.23943385779E+02  0.23943385779E+02  0.00000000000E+00 0. -1.
         -1   -1    0    0    0  501 -0.00000000000E+00 -0.00000000000E+00 -0.98806664986E+03  0.98806664986E+03  0.00000000000E+00 0.  1.
          5    1    1    2  502    0 -0.17809023608E+02  0.50361454179E+02 -0.91689952167E+02  0.10619772652E+03  0.41800000000E+01 0. -1.
         -5    1    1    2    0  502 -0.27118134511E+02  0.23337925899E+02 -0.64497634601E+03  0.64598143264E+03  0.41800000000E+01 0. -1.
        -11    1    1    2    0    0  0.18334826413E+02 -0.52348576536E+02 -0.37776034764E+02  0.67108629307E+02  0.00000000000E+00 0. -1.
         11    1    1    2    0    0  0.26592331706E+02 -0.21350803542E+02 -0.18968093114E+03  0.19272224717E+03  0.00000000000E+00 0.  1.
</event>
<event>
 6    1  0.6981059E-006  0.7682897E+02  0.7561462E-02  0.1338299E+00
         -1   -1    0    0    0  501 -0.00000000000E+00  0.00000000000E+00  0.53319037258E+02  0.53319037258E+02  0.00000000000E+00 0.  1.
          1   -1    0    0  501    0  0.00000000000E+00 -0.00000000000E+00 -0.27693060687E+03  0.27693060687E+03  0.00000000000E+00 0. -1.
          5    1    1    2  502    0 -0.11403580234E+02  0.17493400444E+02  0.29639789237E+02  0.36497263010E+02  0.41800000000E+01 0.  1.
         -5    1    1    2    0  502  0.19928472330E+02  0.26458494725E+02 -0.11906840038E+03  0.12366063368E+03  0.41800000000E+01 0.  1.
        -11    1    1    2    0    0 -0.16894944200E+02 -0.69794733364E+02 -0.11895598695E+03  0.13895060552E+03  0.00000000000E+00 0. -1.
         11    1    1    2    0    0  0.83700521045E+01  0.25842838194E+02 -0.15226971522E+02  0.31141141917E+02  0.00000000000E+00 0.  1.
</event>
<event>
 6    1  0.6981059E-006  0.1459824E+03  0.7561462E-02  0.1205499E+00
         -1   -1    0    0    0  501 -0.00000000000E+00  0.00000000000E+00  0.71751130825E+02  0.71751130825E+02  0.00000000000E+00 0.  1.
          1   -1    0    0  501    0  0.00000000000E+00 -0.00000000000E+00 -0.39981706234E+03  0.39981706234E+03  0.00000000000E+00 0. -1.
          5    1    1    2  502    0 -0.11170729916E+03  0.21678035868E+02 -0.19228762485E+03  0.22347362483E+03  0.41800000000E+01 0.  1.
         -5    1    1    2    0  502 -0.59032958548E+01  0.33163968481E+02  0.73916447253E+01  0.34739120874E+02  0.41800000000E+01 0.  1.
        -11    1    1    2    0    0  0.10707745264E+03 -0.68343277526E+02 -0.14850186644E+03  0.19542054340E+03  0.00000000000E+00 0. -1.
         11    1    1    2    0    0  0.10533142376E+02  0.13501273177E+02  0.53319150479E+01  0.17934904064E+02  0.00000000000E+00 0.  1.
</event>
<event>
 6    1  0.6981059E-006  0.1802639E+03  0.7561462E-02  0.1167548E+00
          2   -1    0    0  501    0  0.00000000000E+00  0.00000000000E+00  0.16623925245E+03  0.16623925245E+03  0.00000000000E+00 0. -1.
         -2   -1    0    0    0  501 -0.00000000000E+00 -0.00000000000E+00 -0.23916939540E+03  0.23916939540E+03  0.00000000000E+00 0.  1.
          5    1    1    2  502    0  0.44851778279E+02 -0.44446132660E+02  0.29654371781E+02  0.69885584271E+02  0.41800000000E+01 0.  1.
         -5    1    1    2    0  502  0.76439712836E+01 -0.11179534663E+03 -0.95402669641E+02  0.14722693911E+03  0.41800000000E+01 0.  1.
        -11    1    1    2    0    0 -0.67569774516E+02  0.68990249989E+02 -0.20602450130E+02  0.98741024772E+02  0.00000000000E+00 0.  1.
         11    1    1    2    0    0  0.15074024954E+02  0.87251229299E+02  0.13420605035E+02  0.89555099698E+02  0.00000000000E+00 0. -1.
</event>
<event>
 6    1  0.6981059E-006  0.1403399E+03  0.7561462E-02  0.1212872E+00
         -2   -1    0    0    0  501 -0.00000000000E+00  0.00000000000E+00  0.10938616452E+03  0.10938616452E+03  0.00000000000E+00 0.  1.
          2   -1    0    0  501    0  0.00000000000E+00 -0.00000000000E+00 -0.27079462512E+03  0.27079462512E+03  0.00000000000E+00 0. -1.
          5    1    1    2  502    0  0.67020695147E+02 -0.44768728507E+02  0.51170254312E+01  0.80868219835E+02  0.41800000000E+01 0. -1.
         -5    1    1    2    0  502  0.34277112000E+02  0.75488648309E+02 -0.18749186254E+01  0.83032789610E+02  0.41800000000E+01 0. -1.
        -11    1    1    2    0    0 -0.22440417885E+02 -0.30796004687E+02 -0.11946322403E+03  0.12539309453E+03  0.00000000000E+00 0. -1.
         11    1    1    2    0    0 -0.78857389261E+02  0.76084885081E-01 -0.45187343366E+02  0.90886685661E+02  0.00000000000E+00 0.  1.
</event>
<event>
 6    1  0.6981059E-006  0.8555566E+02  0.7561462E-02  0.1313986E+00
         -2   -1    0    0    0  501 -0.00000000000E+00  0.00000000000E+00  0.47548740622E+02  0.47548740622E+02  0.00000000000E+00 0.  1.
          2   -1    0    0  501    0  0.00000000000E+00 -0.00000000000E+00 -0.32236380440E+03  0.32236380440E+03  0.00000000000E+00 0. -1.
          5    1    1    2  502    0  0.71921055679E+02 -0.16728025315E+02 -0.86067986969E+02  0.11347967158E+03  0.41800000000E+01 0.  1.
         -5    1    1    2    0  502 -0.40850073339E+02 -0.36676100203E+01  0.28397414219E+01  0.41324525241E+02  0.41800000000E+01 0.  1.
        -11    1    1    2    0    0 -0.36653499458E+02  0.20073397054E+01 -0.19240350292E+03  0.19587398084E+03  0.00000000000E+00 0. -1.
         11    1    1    2    0    0  0.55825171184E+01  0.18388295630E+02  0.81668469620E+00  0.19234367352E+02  0.00000000000E+00 0.  1.
</event>
<event>
 6    1  0.6981059E-006  0.1569875E+03  0.7561462E-02  0.1192140E+00
          2   -1    0    0  501    0  0.00000000000E+00  0.00000000000E+00  0.35486730858E+03  0.35486730858E+03  0.00000000000E+00 0. -1.
         -2   -1    0    0    0  501 -0.00000000000E+00 -0.00000000000E+00 -0.13646090710E+03  0.13646090710E+03  0.00000000000E+00 0.  1.
          5    1    1    2  502    0 -0.96844761225E+02 -0.28983370524E+02  0.15971948449E+02  0.10242811665E+03  0.41800000000E+01 0. -1.
         -5    1    1    2    0  502 -0.33722081310E+02  0.53203073298E+02 -0.55926164387E+02  0.84338330784E+02  0.41800000000E+01 0. -1.
        -11    1    1    2    0    0  0.10431785906E+03 -0.47465354027E+02  0.13898984501E+03  0.18014814062E+03  0.00000000000E+00 0.  1.
         11    1    1    2    0    0  0.26248983478E+02  0.23245651253E+02  0.11937077241E+03  0.12441362763E+03  0.00000000000E+00 0. -1.
</event>
<event>
 6    1  0.6981059E-006  0.1321329E+03  0.7561462E-02  0.1224325E+00
         -2   -1    0    0    0  501 -0.00000000000E+00  0.00000000000E+00  0.24875685474E+02  0.24875685474E+02  0.00000000000E+00 0.  1.
          2   -1    0    0  501    0  0.00000000000E+00 -0.00000000000E+00 -0.81547656036E+03  0.81547656036E+03  0.00000000000E+00 0. -1.
          5    1    1    2  502    0 -0.40942016723E+02  0.95490802818E+02 -0.36444084630E+03  0.37898462371E+03  0.41800000000E+01 0.  1.
         -5    1    1    2    0  502  0.31981765122E+02 -0.45388772738E+01 -0.28092341972E+02  0.43012635175E+02  0.41800000000E+01 0.  1.
        -11    1    1    2    0    0 -0.39139276201E+01  0.17787715859E+02 -0.77146522501E+02  0.79267317344E+02  0.00000000000E+00 0.  1.
         11    1    1    2    0    0  0.12874179221E+02 -0.10873964140E+03 -0.32092116411E+03  0.33908766960E+03  0.00000000000E+00 0. -1.
</event>
<event>
 6    1  0.6981059E-006  0.2648541E+03  0.7561462E-02  0.1104261E+00
          2   -1    0    0  501    0  0.00000000000E+00  0.00000000000E+00  0.47330351614E+03  0.47330351614E+03  0.00000000000E+00 0. -1.
         -2   -1    0    0    0  501 -0.00000000000E+00 -0.00000000000E+00 -0.20216225898E+03  0.20216225898E+03  0.00000000000E+00 0.  1.
          5    1    1    2  502    0  0.24418374446E+03 -0.61316107327E+02  0.37651297417E+02  0.25459862269E+03  0.41800000000E+01 0.  1.
         -5    1    1    2    0  502  0.71082712916E+01 -0.13408863645E+02 -0.32298502071E+02  0.35930360158E+02  0.41800000000E+01 0.  1.
        -11    1    1    2    0    0 -0.12273118636E+03  0.36225818781E+02  0.65262213043E+02  0.14364682560E+03  0.00000000000E+00 0.  1.
         11    1    1    2    0    0 -0.12856082939E+03  0.38499152191E+02  0.20052624877E+03  0.24128996668E+03  0.00000000000E+00 0. -1.
</event>
<event>
 6    1  0.6981059E-006  0.1275355E+03  0.7561462E-02  0.1231159E+00
         -1   -1    0    0    0  501 -0.00000000000E+00  0.00000000000E+00  0.10038667354E+03  0.10038667354E+03  0.00000000000E+00 0.  1.
          1   -1    0    0  501    0  0.00000000000E+00 -0.00000000000E+00 -0.24443378708E+03  0.24443378708E+03  0.00000000000E+00 0. -1.
          5    1    1    2  502    0 -0.93430215115E+02 -0.46711334619E+02 -0.90175986540E+02  0.13805917147E+03  0.41800000000E+01 0.  1.
         -5    1    1    2    0  502 -0.85968703475E+01 -0.23523214499E+01  0.37433152772E+02  0.38705980448E+02  0.41800000000E+01 0.  1.
        -11    1    1    2    0    0  0.73374913334E+02  0.72887384687E+02 -0.72601253562E+02  0.12636214137E+03  0.00000000000E+00 0.  1.
         11    1    1    2    0    0  0.28652172129E+02 -0.23823728618E+02 -0.18703026204E+02  0.41693167332E+02  0.00000000000E+00 0. -1.
</event>
<event>
 6    1  0.6981059E-006  0.9205549E+02  0.7561462E-02  0.1297949E+00
          1   -1    0    0  501    0  0.00000000000E+00  0.00000000000E+00  0.32640256100E+03  0.32640256100E+03  0.00000000000E+00 0. -1.
         -1   -1    0    0    0  501 -0.00000000000E+00 -0.00000000000E+00 -0.39454147595E+02  0.39454147595E+02  0.00000000000E+00 0.  1.
          5    1    1    2  502    0  0.44016643445E+02 -0.37909948659E+02  0.15222985239E+03  0.16299088768E+03  0.41800000000E+01 0. -1.
         -5    1    1    2    0  502 -0.26563466919E+02  0.12240726928E+02 -0.78256207765E+01  0.30564127847E+02  0.41800000000E+01 0. -1.
        -11    1    1    2    0    0 -0.21711046529E+02  0.58924577231E+02  0.10080107091E+03  0.11876165728E+03  0.00000000000E+00 0.  1.
         11    1    1    2    0    0  0.42578700029E+01 -0.33255355500E+02  0.41743110881E+02  0.53540035790E+02  0.00000000000E+00 0. -1.
</event>
<event>
 6    1  0.6981059E-006  0.6763729E+02  0.7561462E-02  0.1368317E+00
         -2   -1    0    0    0  501 -0.00000000000E+00  0.00000000000E+00  0.19560888540E+03  0.19560888540E+03  0.00000000000E+00 0.  1.
          2   -1    0    0  501    0  0.00000000000E+00 -0.00000000000E+00 -0.13555256140E+03  0.13555256140E+03  0.00000000000E+00 0. -1.
          5    1    1    2  502    0 -0.21787387715E+02 -0.28124992274E+02 -0.14967352553E+01  0.35852727515E+02  0.41800000000E+01 0. -1.
         -5    1    1    2    0  502 -0.13290573844E+02  0.31502282932E+02  0.15493564550E+03  0.15871849240E+03  0.41800000000E+01 0.  1.
        -11    1    1    2    0    0 -0.11280883605E+02  0.11705583367E+02  0.12180631219E+02  0.20313709503E+02  0.00000000000E+00 0.  1.
         11    1    1    2    0    0  0.46358845164E+02 -0.15082874025E+02 -0.10556321746E+03  0.11627651739E+03  0.00000000000E+00 0. -1.
</event>
<event>
 6    1  0.6981059E-006  0.1134170E+03  0.7561462E-02  0.1254370E+00
         -4   -1    0    0    0  501 -0.00000000000E+00  0.00000000000E+00  0.14966738055E+03  0.14966738055E+03  0.00000000000E+00 0.  1.
          4   -1    0    0  501    0  0.00000000000E+00 -0.00000000000E+00 -0.18534852706E+03  0.18534852706E+03  0.00000000000E+00 0. -1.
          5    1    1    2  502    0  0.11248983141E+03 -0.76639152457E+01  0.24656031688E+02  0.11549064926E+03  0.41800000000E+01 0.  1.
         -5    1    1    2    0  502 -0.25627744111E+02  0.15963950846E+01  0.45224837560E+02  0.52173633933E+02  0.41800000000E+01 0.  1.
        -11    1    1    2    0    0 -0.44526927798E+02 -0.32384607796E+01  0.83970121420E+01  0.45427356738E+02  0.00000000000E+00 0.  1.
         11    1    1    2    0    0 -0.42335159498E+02  0.93059809407E+01 -0.11395902790E+03  0.12192426769E+03  0.00000000000E+00 0. -1.
</event>
<event>
 6    1  0.6981059E-006  0.1099638E+03  0.7561462E-02  0.1260637E+00
          1   -1    0    0  501    0  0.00000000000E+00  0.00000000000E+00  0.40489104175E+03  0.40489104175E+03  0.00000000000E+00 0. -1.
         -1   -1    0    0    0  501 -0.00000000000E+00 -0.00000000000E+00 -0.33058463261E+02  0.33058463261E+02  0.00000000000E+00 0.  1.
          5    1    1    2  502    0  0.24977210566E+02 -0.41907234496E+02  0.10524654697E+03  0.11607922037E+03  0.41800000000E+01 0. -1.
         -5    1    1    2    0  502 -0.65927450719E+02  0.46452421746E+02  0.11457345840E+03  0.14017419882E+03  0.41800000000E+01 0. -1.
        -11    1    1    2    0    0 -0.54998003595E+00  0.33739179956E+02  0.97655495598E+02  0.10332100736E+03  0.00000000000E+00 0. -1.
         11    1    1    2    0    0  0.41500220189E+02 -0.38284367206E+02  0.54357077521E+02  0.78375078467E+02  0.00000000000E+00 0.  1.
</event>
<event>
 6    1  0.6981059E-006  0.1155808E+03  0.7561462E-02  0.1250571E+00
          1   -1    0    0  501    0  0.00000000000E+00  0.00000000000E+00  0.62281678663E+02  0.62281678663E+02  0.00000000000E+00 0. -1.
         -1   -1    0    0    0  501 -0.00000000000E+00 -0.00000000000E+00 -0.23027579176E+03  0.23027579176E+03  0.00000000000E+00 0.  1.
          5    1    1    2  502    0 -0.44910864590E+02 -0.36960496516E+02 -0.41308508238E+02  0.71462782718E+02  0.41800000000E+01 0.  1.
         -5    1    1    2    0  502  0.15284215059E+02  0.71529627541E+02 -0.82448278566E+02  0.11029635481E+03  0.41800000000E+01 0.  1.
        -11    1    1    2    0    0  0.30571631600E+01  0.29794935294E+02 -0.23719371818E+02  0.38205929058E+02  0.00000000000E+00 0.  1.
         11    1    1    2    0    0  0.26569486371E+02 -0.64364066319E+02 -0.20517954476E+02  0.72592403838E+02  0.00000000000E+00 0. -1.
</event>
<event>
 6    1  0.6981059E-006  0.1421577E+03  0.7561462E-02  0.1210455E+00
         -1   -1    0    0    0  501 -0.00000000000E+00  0.00000000000E+00  0.35535556888E+03  0.35535556888E+03  0.00000000000E+00 0.  1.
          1   -1    0    0  501    0  0.00000000000E+00 -0.00000000000E+00 -0.22070271019E+03  0.22070271019E+03  0.00000000000E+00 0. -1.
          5    1    1    2  502    0 -0.67664223737E+01 -0.38386791698E+02  0.16824892732E+03  0.17275561986E+03  0.41800000000E+01 0. -1.
         -5    1    1    2    0  502  0.10568394844E+03 -0.76096856962E+00  0.14330582697E+03  0.17811150573E+03  0.41800000000E+01 0.  1.
        -11    1    1    2    0    0  0.52804190914E+01  0.34648982842E+02 -0.44426138868E+02  0.56587248143E+02  0.00000000000E+00 0.  1.
         11    1    1    2    0    0 -0.10419794515E+03  0.44987774256E+01 -0.13247575673E+03  0.16860390533E+03  0.00000000000E+00 0. -1.
</event>
<event>
 6    1  0.6981059E-006  0.1663537E+03  0.7561462E-02  0.1181705E+00
         -2   -1    0    0    0  501 -0.00000000000E+00  0.00000000000E+00  0.35040255611E+02  0.35040255611E+02  0.00000000000E+00 0.  1.
          2   -1    0    0  501    0  0.00000000000E+00 -0.00000000000E+00 -0.97202612641E+03  0.97202612641E+03  0.00000000000E+00 0. -1.
          5    1    1    2  502    0  0.43662260640E+02 -0.13728520063E+03 -0.52351189043E+03  0.54298783701E+03  0.41800000000E+01 0. -1.
         -5    1    1    2    0  502  0.35455999176E+02  0.23246803077E+02 -0.14144192514E+03  0.14771876088E+03  0.41800000000E+01 0. -1.
        -11    1    1    2    0    0  0.35732763473E+01  0.21855755209E+02 -0.60422048791E+01  0.22955404144E+02  0.00000000000E+00 0.  1.
         11    1    1    2    0    0 -0.82691536162E+02  0.92182642346E+02 -0.26598985034E+03  0.29340437998E+03  0.00000000000E+00 0. -1.
</event>
<event>
 6    1  0.6981059E-006  0.6957180E+02  0.7561462E-02  0.1361555E+00
          3   -1    0    0  501    0  0.00000000000E+00  0.00000000000E+00  0.18347956620E+02  0.18347956620E+02  0.00000000000E+00 0. -1.
         -3   -1    0    0    0  501 -0.00000000000E+00 -0.00000000000E+00 -0.86737117023E+03  0.86737117023E+03  0.00000000000E+00 0.  1.
          5    1    1    2  502    0 -0.35934865763E+02 -0.16945516937E+02 -0.55810729896E+03  0.55953524882E+03  0.41800000000E+01 0. -1.
         -5    1    1    2    0  502  0.43915612575E+02 -0.14913874462E+02 -0.89831736048E+02  0.10118407919E+03  0.41800000000E+01 0. -1.
        -11    1    1    2    0    0 -0.32483818989E+01 -0.99933575770E+01  0.70452334134E+01  0.12651264540E+02  0.00000000000E+00 0. -1.
         11    1    1    2    0    0 -0.47323649131E+01  0.41852748976E+02 -0.20812941202E+03  0.21234853430E+03  0.00000000000E+00 0.  1.
</event>
<event>
 6    1  0.6981059E-006  0.1090973E+03  0.7561462E-02  0.1262251E+00
         -1   -1    0    0    0  501 -0.00000000000E+00  0.00000000000E+00  0.42593535080E+02  0.42593535080E+02  0.00000000000E+00 0.  1.
          1   -1    0    0  501    0  0.00000000000E+00 -0.00000000000E+00 -0.34682924438E+03  0.34682924438E+03  0.00000000000E+00 0. -1.
          5    1    1    2  502    0  0.69325814551E+01  0.74710370163E+02 -0.75574315168E+02  0.10657696566E+03  0.41800000000E+01 0.  1.
         -5    1    1    2    0  502  0.32968535849E+02 -0.40625686207E+02 -0.12490100934E+03  0.13548101443E+03  0.41800000000E+01 0.  1.
        -11    1    1    2    0    0 -0.48410521470E+02  0.67227852300E+01 -0.91796000698E+02  0.10399653924E+03  0.00000000000E+00 0. -1.
         11    1    1    2    0    0  0.85094041664E+01 -0.40807469186E+02 -0.11964384097E+02  0.43368260139E+02  0.00000000000E+00 0.  1.
</event>
<event>
 6    1  0.6981059E-006  0.1468254E+03  0.7561462E-02  0.1204429E+00
          1   -1    0    0  501    0  0.00000000000E+00  0.00000000000E+00  0.13724736809E+03  0.13724736809E+03  0.00000000000E+00 0. -1.
         -1   -1    0    0    0  501 -0.00000000000E+00 -0.00000000000E+00 -0.19455108933E+03  0.19455108933E+03  0.00000000000E+00 0.  1.
          5    1    1    2  502    0  0.21125817943E+02  0.56372836022E+02  0.46519354627E+01  0.60525281729E+02  0.41800000000E+01 0.  1.
         -5    1    1    2    0  502  0.99252031208E+02 -0.46662621601E+02 -0.40931906899E+02  0.11713777937E+03  0.41800000000E+01 0.  1.
        -11    1    1    2    0    0 -0.58618459310E+02 -0.17806073036E+02  0.34830772006E+02  0.70472425014E+02  0.00000000000E+00 0. -1.
         11    1    1    2    0    0 -0.61759389841E+02  0.80958586162E+01 -0.55854521818E+02  0.83662971306E+02  0.00000000000E+00 0.  1.
</event>
<event>
 6    1  0.6981059E-006  0.1274947E+03  0.7561462E-02  0.1231221E+00
         -2   -1    0    0    0  501 -0.00000000000E+00  0.00000000000E+00  0.31525388288E+02  0.31525388288E+02  0.00000000000E+00 0.  1.
          2   -1    0    0  501    0  0.00000000000E+00 -0.00000000000E+00 -0.74280251876E+03  0.74280251876E+03  0.00000000000E+00 0. -1.
          5    1    1    2  502    0 -0.56457951281E+02  0.68144798391E+02 -0.14855128679E+03  0.17296291804E+03  0.41800000000E+01 0.  1.
         -5    1    1    2    0  502 -0.20092763204E+02 -0.51133128866E+02 -0.49539051367E+02  0.74093899959E+02  0.41800000000E+01 0.  1.
        -11    1    1    2    0    0  0.66929767739E+02 -0.45697526022E+02 -0.44968828738E+03  0.45693261374E+03  0.00000000000E+00 0. -1.
         11    1    1    2    0    0  0.96209467464E+01  0.28685856497E+02 -0.63498504936E+02  0.70338475306E+02  0.00000000000E+00 0.  1.
</event>
<event>
 6    1  0.6981059E-006  0.1514790E+03  0.7561462E-02  0.1198667E+00
         -2   -1    0    0    0  501 -0.00000000000E+00  0.00000000000E+00  0.23895625668E+03  0.23895625668E+03  0.00000000000E+00 0.  1.
          2   -1    0    0  501    0  0.00000000000E+00 -0.00000000000E+00 -0.21906151690E+03  0.21906151690E+03  0.00000000000E+00 0. -1.
          5    1    1    2  502    0 -0.21674658563E+02  0.73135703579E+02  0.25459575480E+02  0.80525054148E+02  0.41800000000E+01 0. -1.
         -5    1    1    2    0  502  0.95881395186E+02 -0.48430598213E+02  0.14764681902E+03  0.18263575869E+03  0.41800000000E+01 0.  1.
        -11    1    1    2    0    0 -0.40827842117E+02  0.32935283766E+02 -0.53342279647E+02  0.74813397240E+02  0.00000000000E+00 0. -1.
         11    1    1    2    0    0 -0.33378894506E+02 -0.57640389132E+02 -0.99869375084E+02  0.12004356350E+03  0.00000000000E+00 0.  1.
</event>
<event>
 6    1  0.6981059E-006  0.8730271E+02  0.7561462E-02  0.1309518E+00
         -2   -1    0    0    0  501 -0.00000000000E+00  0.00000000000E+00  0.12582911949E+03  0.12582911949E+03  0.00000000000E+00 0.  1.
          2   -1    0    0  501    0  0.00000000000E+00 -0.00000000000E+00 -0.10451826963E+03  0.10451826963E+03  0.00000000000E+00 0. -1.
          5    1    1    2  502    0  0.28226980449E+02 -0.46413448078E+02  0.18559013150E+01  0.54515019559E+02  0.41800000000E+01 0. -1.
         -5    1    1    2    0  502 -0.57852603548E+01  0.75528372512E+02 -0.91289148192E+00  0.75870350352E+02  0.41800000000E+01 0. -1.
        -11    1    1    2    0    0 -0.24689226533E+02 -0.12841325417E+02 -0.33554244483E+02  0.43592945165E+02  0.00000000000E+00 0. -1.
         11    1    1    2    0    0  0.22475064392E+01 -0.16273599016E+02  0.53922084518E+02  0.56369074046E+02  0.00000000000E+00 0.  1.
</event>
<event>
 6    1  0.6981059E-006  0.6815761E+02  0.7561462E-02  0.1366473E+00
         -1   -1    0    0    0  501 -0.00000000000E+00  0.00000000000E+00  0.81518406864E+02  0.81518406864E+02  0.00000000000E+00 0.  1.
          1   -1    0    0  501    0  0.00000000000E+00 -0.00000000000E+00 -0.20983563840E+03  0.20983563840E+03  0.00000000000E+00 0. -1.
          5    1    1    2  502    0 -0.41203758284E+02 -0.55136529374E+01  0.52607439177E+02  0.67180094687E+02  0.41800000000E+01 0. -1.
         -5    1    1    2    0  502 -0.12305108670E+02 -0.23978830854E+01 -0.68803242247E+02  0.70060859874E+02  0.41800000000E+01 0. -1.
        -11    1    1    2    0    0  0.16168928193E+02  0.32714807678E+02 -0.10175802056E+03  0.10810359674E+03  0.00000000000E+00 0. -1.
         11    1    1    2    0    0  0.37339938761E+02 -0.24803271655E+02 -0.10363407912E+02  0.46009493966E+02  0.00000000000E+00 0.  1.
</event>
<event>
 6    1  0.6981059E-006  0.9971448E+02  0.7561462E-02  0.1280898E+00
          3   -1    0    0  501    0  0.00000000000E+00  0.00000000000E+00  0.51774179781E+02  0.51774179781E+02  0.00000000000E+00 0. -1.
         -3   -1    0    0    0  501 -0.00000000000E+00 -0.00000000000E+00 -0.26104610661E+03  0.26104610661E+03  0.00000000000E+00 0.  1.
          5    1    1    2  502    0  0.28824786818E+02 -0.42136089427E+02 -0.74172960887E+02  0.90141105463E+02  0.41800000000E+01 0. -1.
         -5    1    1    2    0  502 -0.35800070778E+02  0.48476637070E+02 -0.11234578861E+03  0.12755656795E+03  0.41800000000E+01 0.  1.
        -11    1    1    2    0    0  0.15103240578E+01 -0.46873840783E+02  0.26544877436E+01  0.46973229969E+02  0.00000000000E+00 0. -1.
         11    1    1    2    0    0  0.54649599027E+01  0.40533293140E+02 -0.25407665079E+02  0.48149383011E+02  0.00000000000E+00 0.  1.
</event>
<event>
 6    1  0.6981059E-006  0.1106898E+03  0.7561462E-02  0.1259298E+00
         -2   -1    0    0    0  501 -0.00000000000E+00  0.00000000000E+00  0.32565068135E+02  0.32565068135E+02  0.00000000000E+00 0.  1.
          2   -1    0    0  501    0  0.00000000000E+00 -0.00000000000E+00 -0.53505908786E+03  0.53505908786E+03  0.00000000000E+00 0. -1.
          5    1    1    2  502    0  0.40869390063E+02  0.33452808524E+02 -0.33649899903E+02  0.62762931781E+02  0.41800000000E+01 0.  1.
         -5    1    1    2    0  502 -0.67330798841E+02 -0.23136300887E+02 -0.96295379066E+02  0.11982903371E+03  0.41800000000E+01 0.  1.
        -11    1    1    2    0    0  0.61412768936E+02 -0.93249484410E+01 -0.24899384174E+03  0.25662504959E+03  0.00000000000E+00 0.  1.
         11    1    1    2    0    0 -0.34951360158E+02 -0.99155919613E+00 -0.12355489902E+03  0.12840714091E+03  0.00000000000E+00 0. -1.
</event>
<event>
 6    1  0.6981059E-006  0.1368764E+03  0.7561462E-02  0.1217595E+00
          2   -1    0    0  501    0  0.00000000000E+00  0.00000000000E+00  0.93882469052E+02  0.93882469052E+02  0.00000000000E+00 0.  1.
         -2   -1    0    0    0  501 -0.00000000000E+00 -0.00000000000E+00 -0.31859937155E+03  0.31859937155E+03  0.00000000000E+00 0. -1.
          5    1    1    2  502    0  0.21179118719E+02  0.12208719696E+01  0.22747810937E+02  0.31384405372E+02  0.41800000000E+01 0.  1.
         -5    1    1    2    0  502  0.92297679539E+02 -0.71791865243E+02 -0.15609663475E+03  0.19508091999E+03  0.41800000000E+01 0.  1.
        -11    1    1    2    0    0 -0.74086717231E+02  0.56949933423E+02 -0.92193326462E+01  0.93899588292E+02  0.00000000000E+00 0.  1.
         11    1    1    2    0    0 -0.39390081027E+02  0.13621059850E+02 -0.82148746041E+02  0.92116926951E+02  0.00000000000E+00 0. -1.
</event>
<event>
 6    1  0.6981059E-006  0.1807207E+03  0.7561462E-02  0.1167107E+00
         -2   -1    0    0    0  501 -0.00000000000E+00  0.00000000000E+00  0.69613842267E+03  0.69613842267E+03  0.00000000000E+00 0.  1.
          2   -1    0    0  501    0  0.00000000000E+00 -0.00000000000E+00 -0.50826246171E+02  0.50826246171E+02  0.00000000000E+00 0. -1.
          5    1    1    2  502    0  0.10435026561E+03  0.12574184422E+03  0.24029649417E+03  0.29061979773E+03  0.41800000000E+01 0. -1.
         -5    1    1    2    0  502 -0.31608564580E+02  0.87455538647E+01  0.66721585463E+02  0.74463604760E+02  0.41800000000E+01 0. -1.
        -11    1    1    2    0    0  0.82623281340E+01 -0.38261319930E+02  0.15300213597E+03  0.15792988406E+03  0.00000000000E+00 0.  1.
         11    1    1    2    0    0 -0.81004029163E+02 -0.96226078150E+02  0.18529196089E+03  0.22395138228E+03  0.00000000000E+00 0. -1.
</event>
<event>
 6    1  0.6981059E-006  0.8503089E+02  0.7561462E-02  0.1315352E+00
          1   -1    0    0  501    0  0.00000000000E+00  0.00000000000E+00  0.25862221206E+03  0.25862221206E+03  0.00000000000E+00 0.  1.
         -1   -1    0    0    0  501 -0.00000000000E+00 -0.00000000000E+00 -0.67155078884E+02  0.67155078884E+02  0.00000000000E+00 0. -1.
          5    1    1    2  502    0  0.17016835366E+02  0.77605478381E+02  0.57679033298E+02  0.98267625609E+02  0.41800000000E+01 0.  1.
         -5    1    1    2    0  502 -0.20691108168E+02 -0.44881328019E+02  0.43096151999E+02  0.65705450908E+02  0.41800000000E+01 0.  1.
        -11    1    1    2    0    0 -0.10398668751E+02 -0.15458673175E+02 -0.32042385717E+02  0.37065042433E+02  0.00000000000E+00 0. -1.
         11    1    1    2    0    0  0.14072941553E+02 -0.17265477188E+02  0.12273433360E+03  0.12473917200E+03  0.00000000000E+00 0.  1.
</event>
<event>
 6    1  0.6981059E-006  0.1285639E+03  0.7561462E-02  0.1229602E+00
          2   -1    0    0  501    0  0.00000000000E+00  0.00000000000E+00  0.70394456663E+03  0.70394456663E+03  0.00000000000E+00 0. -1.
         -2   -1    0    0    0  501 -0.00000000000E+00 -0.00000000000E+00 -0.33265228785E+02  0.33265228785E+02  0.00000000000E+00 0.  1.
          5    1    1    2  502    0  0.34326277509E+02 -0.55168169699E+01  0.23440603933E+03  0.23700715658E+03  0.41800000000E+01 0. -1.
         -5    1    1    2    0  502  0.91180830858E+01  0.10463289378E+03  0.16941987698E+03  0.19937840659E+03  0.41800000000E+01 0. -1.
        -11    1    1    2    0    0 -0.42367403599E+02 -0.41282001363E+02  0.53466621336E+02  0.79736316202E+02  0.00000000000E+00 0.  1.
         11    1    1    2    0    0 -0.10769569954E+01 -0.57834075444E+02  0.21338680021E+03  0.22108791604E+03  0.00000000000E+00 0. -1.
</event>
<event>
 6    1  0.6981059E-006  0.1075280E+03  0.7561462E-02  0.1265217E+00
         -1   -1    0    0    0  501 -0.00000000000E+00  0.00000000000E+00  0.95143022309E+02  0.95143022309E+02  0.00000000000E+00 0.  1.
          1   -1    0    0  501    0  0.00000000000E+00 -0.00000000000E+00 -0.14605665126E+03  0.14605665126E+03  0.00000000000E+00 0. -1.
          5    1    1    2  502    0 -0.26875644885E+02 -0.76845052439E+02 -0.39380911237E+02  0.90530607765E+02  0.41800000000E+01 0.  1.
         -5    1    1    2    0  502 -0.16114525482E+01  0.37252274000E+02  0.24107570335E+02  0.44597937676E+02  0.41800000000E+01 0.  1.
        -11    1    1    2    0    0 -0.44602474045E+01  0.58072012571E+02 -0.69927845997E+01  0.58661328722E+02  0.00000000000E+00 0. -1.
         11    1    1    2    0    0  0.32947344838E+02 -0.18479234133E+02 -0.28647503450E+02  0.47409799408E+02  0.00000000000E+00 0.  1.
</event>
<event>
 6    1  0.6981059E-006  0.6706450E+02  0.7561462E-02  0.1370370E+00
          2   -1    0    0  501    0  0.00000000000E+00  0.00000000000E+00  0.30350474327E+03  0.30350474327E+03  0.00000000000E+00 0. -1.
         -2   -1    0    0    0  501 -0.00000000000E+00 -0.00000000000E+00 -0.52563928695E+02  0.52563928695E+02  0.00000000000E+00 0.  1.
          5    1    1    2  502    0  0.12504261023E+02  0.63815351831E+01 -0.32756189171E+02  0.35882040968E+02  0.41800000000E+01 0. -1.
         -5    1    1    2    0  502  0.28261960195E+02  0.27172457180E+02  0.11806316600E+03  0.12447274557E+03  0.41800000000E+01 0. -1.
        -11    1    1    2    0    0 -0.13994293810E+02  0.17499145895E+02  0.12032184051E+03  0.12239038226E+03  0.00000000000E+00 0. -1.
         11    1    1    2    0    0 -0.26771927409E+02 -0.51053138258E+02  0.45311997233E+02  0.73323503165E+02  0.00000000000E+00 0.  1.
</event>
<event>
 6    1  0.6981059E-006  0.1137544E+03  0.7561462E-02  0.1253771E+00
          2   -1    0    0  501    0  0.00000000000E+00  0.00000000000E+00  0.73277169388E+03  0.73277169388E+03  0.00000000000E+00 0. -1.
         -2   -1    0    0    0  501 -0.00000000000E+00 -0.00000000000E+00 -0.19999802739E+02  0.19999802739E+02  0.00000000000E+00 0.  1.
          5    1    1    2  502    0  0.86173195769E+02 -0.27515065752E+02  0.32955964008E+03  0.34177467326E+03  0.41800000000E+01 0.  1.
         -5    1    1    2    0  502 -0.35080446104E+02  0.98140283264E+01  0.53970545882E+02  0.65247567569E+02  0.41800000000E+01 0.  1.
        -11    1    1    2    0    0  0.32044292124E+01  0.41055018748E+02  0.19122318043E+03  0.19560697243E+03  0.00000000000E+00 0.  1.
         11    1    1    2    0    0 -0.54297178877E+02 -0.23353981322E+02  0.13801852475E+03  0.15014228336E+03  0.00000000000E+00 0. -1.
</event>
<event>
 6    1  0.6981059E-006  0.9167834E+02  0.7561462E-02  0.1298838E+00
          2   -1    0    0  501    0  0.00000000000E+00  0.00000000000E+00  0.11808484571E+02  0.11808484571E+02  0.00000000000E+00 0. -1.
         -2   -1    0    0    0  501 -0.00000000000E+00 -0.00000000000E+00 -0.96654227409E+03  0.96654227409E+03  0.00000000000E+00 0.  1.
          5    1    1    2  502    0 -0.44365093443E+02  0.12013462603E+02 -0.13081183645E+03  0.13871479285E+03  0.41800000000E+01 0. -1.
         -5    1    1    2    0  502  0.39729459610E+02 -0.24265098561E+02 -0.52485062349E+03  0.52692776957E+03  0.41800000000E+01 0.  1.
        -11    1    1    2    0    0  0.19196719169E+02  0.48089970612E+02 -0.19214191265E+03  0.19899666805E+03  0.00000000000E+00 0.  1.
         11    1    1    2    0    0 -0.14561085337E+02 -0.35838334654E+02 -0.10692941693E+03  0.11371152818E+03  0.00000000000E+00 0. -1.
</event>
<event>
 6    1  0.6981059E-006  0.4554275E+02  0.7561462E-02  0.1470982E+00
         -1   -1    0    0    0  501 -0.00000000000E+00  0.00000000000E+00  0.47726185538E+02  0.47726185538E+02  0.00000000000E+00 0.  1.
          1   -1    0    0  501    0  0.00000000000E+00 -0.00000000000E+00 -0.29709120203E+03  0.29709120203E+03  0.00000000000E+00 0. -1.
          5    1    1    2  502    0  0.24288115229E+02  0.25638760830E+02  0.22708053111E+02  0.42194628501E+02  0.41800000000E+01 0.  1.
         -5    1    1    2    0  502  0.51898700747E+01 -0.46825157365E+01 -0.12018438560E+03  0.12046003340E+03  0.41800000000E+01 0.  1.
        -11    1    1    2    0    0 -0.13130535294E+02  0.70845776470E+01  0.94042077971E+01  0.17636363623E+02  0.00000000000E+00 0.  1.
         11    1    1    2    0    0 -0.16347450010E+02 -0.28040822740E+02 -0.16129289180E+03  0.16452636204E+03  0.00000000000E+00 0. -1.
</event>
<event>
 6    1  0.6981059E-006  0.8692886E+02  0.7561462E-02  0.1310464E+00
         -2   -1    0    0    0  501 -0.00000000000E+00  0.00000000000E+00  0.14748303081E+03  0.14748303081E+03  0.00000000000E+00 0.  1.
          2   -1    0    0  501    0  0.00000000000E+00 -0.00000000000E+00 -0.27191276732E+03  0.27191276732E+03  0.00000000000E+00 0. -1.
          5    1    1    2  502    0  0.34733086963E+02  0.28568218585E+01 -0.15925800158E+02  0.38544160022E+02  0.41800000000E+01 0. -1.
         -5    1    1    2    0  502 -0.40839814536E+02 -0.22514168193E+02  0.12291439387E+03  0.13153022026E+03  0.41800000000E+01 0.  1.
        -11    1    1    2    0    0  0.43798328388E+02 -0.88431244113E+01 -0.12922541975E+03  0.13673223295E+03  0.00000000000E+00 0.  1.
         11    1    1    2    0    0 -0.37691600816E+02  0.28500470746E+02 -0.10219291047E+03  0.11258918490E+03  0.00000000000E+00 0. -1.
</event>
<event>
 6    1  0.6981059E-006  0.9938198E+02  0.7561462E-02  0.1281601E+00
         -1   -1    0    0    0  501 -0.00000000000E+00  0.00000000000E+00  0.15918621206E+03  0.15918621206E+03  0.00000000000E+00 0.  1.
          1   -1    0    0  501    0  0.00000000000E+00 -0.00000000000E+00 -0.10224646962E+03  0.10224646962E+03  0.00000000000E+00 0. -1.
          5    1    1    2  502    0  0.39415106892E+02  0.53279657286E+01  0.46692018251E+01  0.40264273442E+02  0.41800000000E+01 0. -1.
         -5    1    1    2    0  502 -0.84240872355E+02 -0.47221180389E+02  0.55860990733E+02  0.11164357186E+03  0.41800000000E+01 0. -1.
        -11    1    1    2    0    0  0.57685124482E+01  0.10570446715E+02 -0.43728285599E+02  0.45356069506E+02  0.00000000000E+00 0. -1.
         11    1    1    2    0    0  0.39057253015E+02  0.31322767946E+02  0.40137835475E+02  0.64168766869E+02  0.00000000000E+00 0.  1.
</event>
<event>
 6    1  0.6981059E-006  0.1325468E+03  0.7561462E-02  0.1223725E+00
          1   -1    0    0  501    0  0.00000000000E+00  0.00000000000E+00  0.38497206676E+02  0.38497206676E+02  0.00000000000E+00 0. -1.
         -1   -1    0    0    0  501 -0.00000000000E+00 -0.00000000000E+00 -0.60275412308E+03  0.60275412308E+03  0.00000000000E+00 0.  1.
          5    1    1    2  502    0 -0.50330166211E+02  0.66528919281E+02 -0.11600371522E+03  0.14294599356E+03  0.41800000000E+01 0.  1.
         -5    1    1    2    0  502 -0.49432779284E+02 -0.39593399644E+02 -0.24065359467E+03  0.24888322963E+03  0.41800000000E+01 0.  1.
        -11    1    1    2    0    0  0.52313931798E+01 -0.22886342036E+02 -0.11377444452E+03  0.11617132328E+03  0.00000000000E+00 0.  1.
         11    1    1    2    0    0  0.94531552316E+02 -0.40491776010E+01 -0.93825161996E+02  0.13325078329E+03  0.00000000000E+00 0. -1.
</event>
<event>
 6    1  0.6981059E-006  0.1646964E+03  0.7561462E-02  0.1183494E+00
         -2   -1    0    0    0  501 -0.00000000000E+00  0.00000000000E+00  0.31860365115E+03  0.31860365115E+03  0.00000000000E+00 0.  1.
          2   -1    0    0  501    0  0.00000000000E+00 -0.00000000000E+00 -0.11739791838E+03  0.11739791838E+03  0.00000000000E+00 0. -1.
          5    1    1    2  502    0 -0.10923798532E+03 -0.40464008730E+02  0.14830442659E+03  0.18863178095E+03  0.41800000000E+01 0. -1.
         -5    1    1    2    0  502  0.90450134116E+02  0.71448535822E+02  0.86378408138E+02  0.14410004103E+03  0.41800000000E+01 0.  1.
        -11    1    1    2    0    0  0.40593212969E+02  0.17590261380E+02 -0.18551567884E+02  0.47972772543E+02  0.00000000000E+00 0.  1.
         11    1    1    2    0    0 -0.21805361768E+02 -0.48574788473E+02 -0.14925534068E+02  0.55296975001E+02  0.00000000000E+00 0. -1.
</event>
<event>
 6    1  0.6981059E-006  0.1800569E+03  0.7561462E-02  0.1167748E+00
         -2   -1    0    0    0  501 -0.00000000000E+00  0.00000000000E+00  0.43889885935E+02  0.43889885935E+02  0.00000000000E+00 0.  1.
          2   -1    0    0  501    0  0.00000000000E+00 -0.00000000000E+00 -0.10497743909E+04  0.10497743909E+04  0.00000000000E+00 0. -1.
          5    1    1    2  502    0  0.10046682900E+02  0.91654432026E+02 -0.16260607868E+03  0.18697507847E+03  0.41800000000E+01 0.  1.
         -5    1    1    2    0  502 -0.87200479728E+02  0.34802857971E+02 -0.78764689068E+02  0.12262345302E+03  0.41800000000E+01 0.  1.
        -11    1    1    2    0    0  0.80986153538E+02 -0.45710290373E+02 -0.39156698123E+03  0.40245855501E+03  0.00000000000E+00 0.  1.
         11    1    1    2    0    0 -0.38323567098E+01 -0.80746999623E+02 -0.37294675596E+03  0.38160719030E+03  0.00000000000E+00 0. -1.
</event>
<event>
 6    1  0.6981059E-006  0.1686861E+03  0.7561462E-02  0.1179225E+00
          1   -1    0    0  501    0  0.00000000000E+00  0.00000000000E+00  0.65136651530E+03  0.65136651530E+03  0.00000000000E+00 0. -1.
         -1   -1    0    0    0  501 -0.00000000000E+00 -0.00000000000E+00 -0.11917250068E+03  0.11917250068E+03  0.00000000000E+00 0.  1.
          5    1    1    2  502    0 -0.12793727208E+02 -0.15185851681E+03  0.58472250319E+02  0.16328247010E+03  0.41800000000E+01 0. -1.
         -5    1    1    2    0  502  0.28911091584E+01  0.63474982937E+02 -0.41820530306E+02  0.76183076376E+02  0.41800000000E+01 0.  1.
        -11    1    1    2    0    0 -0.33863925591E+02  0.60539978279E+02  0.21002936832E+03  0.22118813256E+03  0.00000000000E+00 0.  1.
         11    1    1    2    0    0  0.43766543640E+02  0.27843555593E+02  0.30551292628E+03  0.30988533695E+03  0.00000000000E+00 0. -1.
</event>
<event>
 6    1  0.6981059E-006  0.6308680E+02  0.7561462E-02  0.1385316E+00
          1   -1    0    0  501    0  0.00000000000E+00  0.00000000000E+00  0.24371461072E+02  0.24371461072E+02  0.00000000000E+00 0. -1.
         -1   -1    0    0    0  501 -0.00000000000E+00 -0.00000000000E+00 -0.56203865945E+03  0.56203865945E+03  0.00000000000E+00 0.  1.
          5    1    1    2  502    0 -0.12035035992E+02 -0.35659138651E+02 -0.31084047032E+02  0.48990883239E+02  0.41800000000E+01 0. -1.
         -5    1    1    2    0  502  0.30500646282E+02  0.23056025892E+02 -0.36400994894E+03  0.36603631662E+03  0.41800000000E+01 0. -1.
        -11    1    1    2    0    0 -0.35253453739E+01 -0.16638267485E+02  0.68935663022E+01  0.18351601054E+02  0.00000000000E+00 0. -1.
         11    1    1    2    0    0 -0.14940264916E+02  0.29241380244E+02 -0.14946676871E+03  0.15303131961E+03  0.00000000000E+00 0.  1.
</event>
<event>
 6    1  0.6981059E-006  0.3429572E+03  0.7561462E-02  0.1065543E+00
         -2   -1    0    0    0  501 -0.00000000000E+00  0.00000000000E+00  0.23970651916E+03  0.23970651916E+03  0.00000000000E+00 0.  1.
          2   -1    0    0  501    0  0.00000000000E+00 -0.00000000000E+00 -0.99595516273E+03  0.99595516273E+03  0.00000000000E+00 0. -1.
          5    1    1    2  502    0  0.20022141558E+03 -0.81846829089E+02 -0.46411037282E+03  0.51205803309E+03  0.41800000000E+01 0. -1.
         -5    1    1    2    0  502 -0.71420624024E+01  0.21829062365E+03  0.11203341656E+03  0.24550104736E+03  0.41800000000E+01 0.  1.
        -11    1    1    2    0    0 -0.23704667355E+02  0.11395826708E+02 -0.20234435898E+02  0.33184461980E+02  0.00000000000E+00 0.  1.
         11    1    1    2    0    0 -0.16937468582E+03 -0.14783962127E+03 -0.38393725140E+03  0.44491813947E+03  0.00000000000E+00 0. -1.
</event>
<event>
 6    1  0.6981059E-006  0.1241652E+03  0.7561462E-02  0.1236380E+00
         -3   -1    0    0    0  501 -0.00000000000E+00  0.00000000000E+00  0.16679137941E+03  0.16679137941E+03  0.00000000000E+00 0.  1.
          3   -1    0    0  501    0  0.00000000000E+00 -0.00000000000E+00 -0.15311415427E+03  0.15311415427E+03  0.00000000000E+00 0. -1.
          5    1    1    2  502    0  0.21485761758E+02  0.97753434561E+02  0.31171144131E+02  0.10491179416E+03  0.41800000000E+01 0. -1.
         -5    1    1    2    0  502 -0.24985093677E+02 -0.16908755044E+02  0.61314320362E+02  0.68462246418E+02  0.41800000000E+01 0.  1.
        -11    1    1    2    0    0  0.71537777539E+01  0.17697865642E+02  0.17909738614E+01  0.19172860292E+02  0.00000000000E+00 0.  1.
         11    1    1    2    0    0 -0.36544458353E+01 -0.98542545158E+02 -0.80599213216E+02  0.12735863281E+03  0.00000000000E+00 0. -1.
</event>
<event>
 6    1  0.6981059E-006  0.8655784E+02  0.7561462E-02  0.1311408E+00
         -3   -1    0    0    0  501 -0.00000000000E+00  0.00000000000E+00  0.52123095320E+02  0.52123095320E+02  0.00000000000E+00 0.  1.
          3   -1    0    0  501    0  0.00000000000E+00 -0.00000000000E+00 -0.34579831889E+03  0.34579831889E+03  0.00000000000E+00 0. -1.
          5    1    1    2  502    0  0.55465966199E+01  0.17792796321E+01  0.23080285645E+02  0.24168213743E+02  0.41800000000E+01 0. -1.
         -5    1    1    2    0  502 -0.76736309952E+02 -0.71837077881E+01 -0.14615234168E+03  0.16528171799E+03  0.41800000000E+01 0. -1.
        -11    1    1    2    0    0  0.53702017956E+02 -0.20520625313E+02 -0.30812850545E+02  0.65226026665E+02  0.00000000000E+00 0.  1.
         11    1    1    2    0    0  0.17487695375E+02  0.25925053469E+02 -0.13979031698E+03  0.14324545581E+03  0.00000000000E+00 0. -1.
</event>
<event>
 6    1  0.6981059E-006  0.1035541E+03  0.7561462E-02  0.1272995E+00
          2   -1    0    0  501    0  0.00000000000E+00  0.00000000000E+00  0.34908407329E+03  0.34908407329E+03  0.00000000000E+00 0.  1.
         -2   -1    0    0    0  501 -0.00000000000E+00 -0.00000000000E+00 -0.73484364034E+02  0.73484364034E+02  0.00000000000E+00 0. -1.
          5    1    1    2  502    0 -0.88026923403E+02 -0.30723260530E+01 -0.26965754067E+02  0.92210643223E+02  0.41800000000E+01 0.  1.
         -5    1    1    2    0  502  0.14269793537E+02 -0.55720137644E+01  0.53319088370E+02  0.55633370648E+02  0.41800000000E+01 0.  1.
        -11    1    1    2    0    0  0.38006397702E+02  0.40230421200E+02  0.69983921510E+02  0.89222880060E+02  0.00000000000E+00 0. -1.
         11    1    1    2    0    0  0.35750732164E+02 -0.31586081382E+02  0.17926245344E+03  0.18550154339E+03  0.00000000000E+00 0.  1.
</event>
<event>
 6    1  0.6981059E-006  0.1303704E+03  0.7561462E-02  0.1226907E+00
         -2   -1    0    0    0  501 -0.00000000000E+00  0.00000000000E+00  0.24568980145E+02  0.24568980145E+02  0.00000000000E+00 0.  1.
          2   -1    0    0  501    0  0.00000000000E+00 -0.00000000000E+00 -0.70881106608E+03  0.70881106608E+03  0.00000000000E+00 0. -1.
          5    1    1    2  502    0  0.36517708486E+02 -0.64337042402E+02 -0.21484013390E+03  0.22725878111E+03  0.41800000000E+01 0.  1.
         -5    1    1    2    0  502 -0.71207229550E+02 -0.35905378250E+01 -0.16113559702E+03  0.17625411918E+03  0.41800000000E+01 0.  1.
        -11    1    1    2    0    0  0.55043941971E+02  0.12875405734E+02 -0.11970019282E+03  0.13237729330E+03  0.00000000000E+00 0. -1.
         11    1    1    2    0    0 -0.20354420907E+02  0.55052174493E+02 -0.18856616220E+03  0.19748985263E+03  0.00000000000E+00 0.  1.
</event>
<event>
 6    1  0.6981059E-006  0.1295138E+03  0.7561462E-02  0.1228179E+00
         -3   -1    0    0    0  501 -0.00000000000E+00  0.00000000000E+00  0.98072972999E+02  0.98072972999E+02  0.00000000000E+00 0.  1.
          3   -1    0    0  501    0  0.00000000000E+00 -0.00000000000E+00 -0.24875023148E+03  0.24875023148E+03  0.00000000000E+00 0. -1.
          5    1    1    2  502    0  0.40478806563E+02  0.10775630265E+03  0.15172619537E+02  0.11617932400E+03  0.41800000000E+01 0. -1.
         -5    1    1    2    0  502 -0.24531820921E+02 -0.89617738923E+01 -0.51720550277E+02  0.58091405130E+02  0.41800000000E+01 0.  1.
        -11    1    1    2    0    0 -0.38624695406E+02 -0.46881391771E+02 -0.22403359816E+02  0.64742895523E+02  0.00000000000E+00 0.  1.
         11    1    1    2    0    0  0.22677709764E+02 -0.51913136983E+02 -0.91725967927E+02  0.10780957983E+03  0.00000000000E+00 0. -1.
</event>
<event>
 6    1  0.6981059E-006  0.1989669E+03  0.7561462E-02  0.1150614E+00
         -2   -1    0    0    0  501 -0.00000000000E+00  0.00000000000E+00  0.14494955891E+03  0.14494955891E+03  0.00000000000E+00 0.  1.
          2   -1    0    0  501    0  0.00000000000E+00 -0.00000000000E+00 -0.29162483103E+03  0.29162483103E+03  0.00000000000E+00 0. -1.
          5    1    1    2  502    0  0.10628664375E+02 -0.15150206422E+02 -0.18501059797E+02  0.26500167445E+02  0.41800000000E+01 0. -1.
         -5    1    1    2    0  502 -0.13436485259E+03  0.12639917528E+03 -0.25539178329E+02  0.18628039927E+03  0.41800000000E+01 0. -1.
        -11    1    1    2    0    0  0.31681029441E+02 -0.96047677447E+02 -0.29822225428E+02  0.10544291868E+03  0.00000000000E+00 0. -1.
         11    1    1    2    0    0  0.92055158776E+02 -0.15201291407E+02 -0.72812808566E+02  0.11835090456E+03  0.00000000000E+00 0.  1.
</event>
<event>
 6    1  0.6981059E-006  0.7648982E+02  0.7561462E-02  0.1339319E+00
         -2   -1    0    0    0  501 -0.00000000000E+00  0.00000000000E+00  0.64141642927E+03  0.64141642927E+03  0.00000000000E+00 0. -1.
          2   -1    0    0  501    0  0.00000000000E+00 -0.00000000000E+00 -0.23675219026E+02  0.23675219026E+02  0.00000000000E+00 0.  1.
          5    1    1    2  502    0  0.46560811787E+02  0.16717679485E+02  0.45716487000E+03  0.45985278162E+03  0.41800000000E+01 0.  1.
         -5    1    1    2    0  502 -0.77333633894E+01  0.82624455271E+01 -0.38510671108E+01  0.12663965939E+02  0.41800000000E+01 0.  1.
        -11    1    1    2    0    0 -0.62157068835E+02 -0.85701600802E+01  0.70337184414E+02  0.94256396925E+02  0.00000000000E+00 0.  1.
         11    1    1    2    0    0  0.23329620437E+02 -0.16409964932E+02  0.94090222940E+02  0.98318503812E+02  0.00000000000E+00 0. -1.
</event>
<event>
 6    1  0.6981059E-006  0.7378085E+02  0.7561462E-02  0.1347688E+00
          2   -1    0    0  501    0  0.00000000000E+00  0.00000000000E+00  0.11017168149E+03  0.11017168149E+03  0.00000000000E+00 0. -1.
         -2   -1    0    0    0  501 -0.00000000000E+00 -0.00000000000E+00 -0.14153213101E+03  0.14153213101E+03  0.00000000000E+00 0.  1.
          5    1    1    2  502    0  0.18020401664E+01 -0.40690314296E+02 -0.86082425780E+02  0.95323687793E+02  0.41800000000E+01 0.  1.
         -5    1    1    2    0  502 -0.23001306028E+02 -0.11806169065E+02  0.41470265431E+02  0.49047946154E+02  0.41800000000E+01 0.  1.
        -11    1    1    2    0    0  0.37991299588E+02  0.50963250265E+02 -0.22800881575E+02  0.67531266259E+02  0.00000000000E+00 0.  1.
         11    1    1    2    0    0 -0.16792033727E+02  0.15332330971E+01  0.36052592406E+02  0.39800912296E+02  0.00000000000E+00 0. -1.
</event>
<event>
 6    1  0.6981059E-006  0.1013715E+03  0.7561462E-02  0.1277438E+00
          1   -1    0    0  501    0  0.00000000000E+00  0.00000000000E+00  0.11145711000E+03  0.11145711000E+03  0.00000000000E+00 0. -1.
         -1   -1    0    0    0  501 -0.00000000000E+00 -0.00000000000E+00 -0.20295217392E+03  0.20295217392E+03  0.00000000000E+00 0.  1.
          5    1    1    2  502    0  0.51761284322E+02  0.24014473248E+02  0.25159171101E+02  0.62501054156E+02  0.41800000000E+01 0. -1.
         -5    1    1    2    0  502 -0.64899073806E+02 -0.14459594097E+02 -0.13358256467E+03  0.14927405543E+03  0.41800000000E+01 0.  1.
        -11    1    1    2    0    0  0.44690730899E+02  0.33536230403E+01 -0.22800952635E+02  0.50283115027E+02  0.00000000000E+00 0. -1.
         11    1    1    2    0    0 -0.31552941415E+02 -0.12908502192E+02  0.39729282272E+02  0.52351059308E+02  0.00000000000E+00 0.  1.
</event>
<event>
 6    1  0.6981059E-006  0.1498593E+03  0.7561462E-02  0.1200646E+00
          1   -1    0    0  501    0  0.00000000000E+00  0.00000000000E+00  0.18793663641E+03  0.18793663641E+03  0.00000000000E+00 0. -1.
         -1   -1    0    0    0  501 -0.00000000000E+00 -0.00000000000E+00 -0.40935673199E+03  0.40935673199E+03  0.00000000000E+00 0.  1.
          5    1    1    2  502    0  0.26023042922E+02 -0.26644222666E+01 -0.22375415970E+02  0.34676065936E+02  0.41800000000E+01 0.  1.
         -5    1    1    2    0  502 -0.11395264827E+03 -0.71276757359E+02 -0.33590385912E+03  0.36182102918E+03  0.41800000000E+01 0.  1.
        -11    1    1    2    0    0  0.10160788872E+03  0.55448161232E+02  0.13483542266E+03  0.17770552281E+03  0.00000000000E+00 0. -1.
         11    1    1    2    0    0 -0.13678283375E+02  0.18493018394E+02  0.20237568594E+01  0.23090750470E+02  0.00000000000E+00 0.  1.
</event>
<event>
 6    1  0.6981059E-006  0.1091283E+03  0.7561462E-02  0.1262193E+00
         -2   -1    0    0    0  501 -0.00000000000E+00  0.00000000000E+00  0.26616992268E+03  0.26616992268E+03  0.00000000000E+00 0.  1.
          2   -1    0    0  501    0  0.00000000000E+00 -0.00000000000E+00 -0.57701879066E+02  0.57701879066E+02  0.00000000000E+00 0. -1.
          5    1    1    2  502    0 -0.21037775008E+01 -0.55207948731E+02  0.12246788326E+03  0.13441799847E+03  0.41800000000E+01 0. -1.
         -5    1    1    2    0  502  0.29220807513E+02  0.66554548534E+02  0.47812443413E+02  0.87102615732E+02  0.41800000000E+01 0.  1.
        -11    1    1    2    0    0 -0.44824816810E+02  0.23753691892E+02  0.51349301595E+01  0.50988916327E+02  0.00000000000E+00 0.  1.
         11    1    1    2    0    0  0.17707786797E+02 -0.35100291694E+02  0.33052786778E+02  0.51362271212E+02  0.00000000000E+00 0. -1.
</event>
<event>
 6    1  0.6981059E-006  0.1016085E+03  0.7561462E-02  0.1276949E+00
         -1   -1    0    0    0  501 -0.00000000000E+00  0.00000000000E+00  0.18236686977E+03  0.18236686977E+03  0.00000000000E+00 0.  1.
          1   -1    0    0  501    0  0.00000000000E+00 -0.00000000000E+00 -0.85395214394E+02  0.85395214394E+02  0.00000000000E+00 0. -1.
          5    1    1    2  502    0  0.19726808034E+02 -0.56152060072E+02  0.10093334247E+03  0.11724850885E+03  0.41800000000E+01 0.  1.
         -5    1    1    2    0  502 -0.37398377735E+02  0.55137812352E+01 -0.18010589192E+02  0.42081993343E+02  0.41800000000E+01 0.  1.
        -11    1    1    2    0    0 -0.37106437659E+02  0.14200559831E+02  0.15443204240E+02  0.42626707267E+02  0.00000000000E+00 0.  1.
         11    1    1    2    0    0  0.54778007360E+02  0.36437719006E+02 -0.13943021382E+01  0.65804874707E+02  0.00000000000E+00 0. -1.
</event>
<event>
 6    1  0.6981059E-006  0.1018806E+03  0.7561462E-02  0.1276390E+00
         -2   -1    0    0    0  501 -0.00000000000E+00  0.00000000000E+00  0.10771277791E+03  0.10771277791E+03  0.00000000000E+00 0.  1.
          2   -1    0    0  501    0  0.00000000000E+00 -0.00000000000E+00 -0.19184247013E+03  0.19184247013E+03  0.00000000000E+00 0. -1.
          5    1    1    2  502    0  0.43991093338E+01 -0.53212200287E+01  0.50612324783E+02  0.51251803534E+02  0.41800000000E+01 0. -1.
         -5    1    1    2    0  502  0.38170381121E+01 -0.81323982617E+02 -0.60390246576E+02  0.10145252195E+03  0.41800000000E+01 0. -1.
        -11    1    1    2    0    0 -0.40373849298E+02  0.60450551645E+02 -0.76227160990E+02  0.10533231685E+03  0.00000000000E+00 0. -1.
         11    1    1    2    0    0  0.32157701852E+02  0.26194651001E+02  0.18753905691E+01  0.41518605700E+02  0.00000000000E+00 0.  1.
</event>
<event>
 6    1  0.6981059E-006  0.1069313E+03  0.7561462E-02  0.1266360E+00
          1   -1    0    0  501    0  0.00000000000E+00  0.00000000000E+00  0.54039771136E+03  0.54039771136E+03  0.00000000000E+00 0. -1.
         -1   -1    0    0    0  501 -0.00000000000E+00 -0.00000000000E+00 -0.66254928978E+02  0.66254928978E+02  0.00000000000E+00 0.  1.
          5    1    1    2  502    0 -0.45947064008E+02  0.47881913931E+02 -0.35902501559E+02  0.75566344300E+02  0.41800000000E+01 0. -1.
         -5    1    1    2    0  502 -0.38837341493E+01 -0.44571601425E+02  0.16373455594E+03  0.16978865761E+03  0.41800000000E+01 0.  1.
        -11    1    1    2    0    0 -0.18315080379E+02 -0.24936196314E+02  0.12239056042E+03  0.12624066435E+03  0.00000000000E+00 0.  1.
         11    1    1    2    0    0  0.68145878536E+02  0.21625883807E+02  0.22392016758E+03  0.23505697407E+03  0.00000000000E+00 0. -1.
</event>
<event>
 6    1  0.6981059E-006  0.5495352E+02  0.7561462E-02  0.1420319E+00
         -2   -1    0    0    0  501 -0.00000000000E+00  0.00000000000E+00  0.40675328594E+03  0.40675328594E+03  0.00000000000E+00 0.  1.
          2   -1    0    0  501    0  0.00000000000E+00 -0.00000000000E+00 -0.39941712325E+02  0.39941712325E+02  0.00000000000E+00 0. -1.
          5    1    1    2  502    0 -0.38665103276E+01  0.12222684474E+02 -0.86518191332E+01  0.16020932937E+02  0.41800000000E+01 0. -1.
         -5    1    1    2    0  502  0.43046713751E+01  0.83914989895E+01  0.31977646149E+03  0.31994281547E+03  0.41800000000E+01 0. -1.
        -11    1    1    2    0    0 -0.42020120539E+02 -0.10142034376E+02  0.52105180653E+02  0.67701560117E+02  0.00000000000E+00 0.  1.
         11    1    1    2    0    0  0.41581959491E+02 -0.10472149088E+02  0.35817506099E+01  0.43029689740E+02  0.00000000000E+00 0. -1.
</event>
<event>
 6    1  0.6981059E-006  0.8805854E+02  0.7561462E-02  0.1307623E+00
         -2   -1    0    0    0  501 -0.00000000000E+00  0.00000000000E+00  0.91383659826E+02  0.91383659826E+02  0.00000000000E+00 0.  1.
          2   -1    0    0  501    0  0.00000000000E+00 -0.00000000000E+00 -0.19340587230E+03  0.19340587230E+03  0.00000000000E+00 0. -1.
          5    1    1    2  502    0 -0.59616202382E+02  0.41734420644E+02 -0.91496708473E+02  0.11698279153E+03  0.41800000000E+01 0. -1.
         -5    1    1    2    0  502 -0.15421059513E+02  0.20735535575E+01  0.40538653741E+02  0.43622970417E+02  0.41800000000E+01 0. -1.
        -11    1    1    2    0    0  0.30801320980E+02 -0.14457238609E+02  0.16861043591E+02  0.37974042625E+02  0.00000000000E+00 0.  1.
         11    1    1    2    0    0  0.44235940916E+02 -0.29350735593E+02 -0.67925201335E+02  0.86209727554E+02  0.00000000000E+00 0. -1.
</event>
<event>
 6    1  0.6981059E-006  0.1142190E+03  0.7561462E-02  0.1252951E+00
         -2   -1    0    0    0  501 -0.00000000000E+00  0.00000000000E+00  0.39610962143E+02  0.39610962143E+02  0.00000000000E+00 0.  1.
          2   -1    0    0  501    0  0.00000000000E+00 -0.00000000000E+00 -0.35441911244E+03  0.35441911244E+03  0.00000000000E+00 0. -1.
          5    1    1    2  502    0  0.38008429755E+02 -0.32213876854E+02 -0.86580772320E+02  0.99980383725E+02  0.41800000000E+01 0.  1.
         -5    1    1    2    0  502 -0.21311376671E+02  0.80189049255E+02 -0.93187241051E+02  0.12484307226E+03  0.41800000000E+01 0.  1.
        -11    1    1    2    0    0  0.20494172110E+01 -0.67942398266E+02 -0.65199886634E+02  0.94188082103E+02  0.00000000000E+00 0.  1.
         11    1    1    2    0    0 -0.18746470295E+02  0.19967225865E+02 -0.69840250290E+02  0.75018536494E+02  0.00000000000E+00 0. -1.
</event>
<event>
 6    1  0.7200844E-006  0.6663162E+02  0.7561462E-02  0.1371937E+00
         -1   -1    0    0    0  501 -0.00000000000E+00  0.00000000000E+00  0.37526307861E+03  0.37526307861E+03  0.00000000000E+00 0.  1.
          1   -1    0    0  501    0  0.00000000000E+00 -0.00000000000E+00 -0.49625277837E+02  0.49625277837E+02  0.00000000000E+00 0. -1.
          5    1    1    2  502    0  0.54666716354E+01 -0.46735297798E+01 -0.12791528355E+02  0.15258505072E+02  0.41800000000E+01 0. -1.
         -5    1    1    2    0  502  0.48326581831E+02 -0.99082369496E+01  0.28706199386E+03  0.29130000410E+03  0.41800000000E+01 0. -1.
        -11    1    1    2    0    0 -0.75926427068E+01  0.26629204499E+02  0.63320831968E+02  0.69110712026E+02  0.00000000000E+00 0.  1.
         11    1    1    2    0    0 -0.46200610760E+02 -0.12047437770E+02 -0.11953496697E+02  0.49219135249E+02  0.00000000000E+00 0. -1.
</event>
<event>
 6    1  0.6981059E-006  0.1193961E+03  0.7561462E-02  0.1244097E+00
          4   -1    0    0  501    0  0.00000000000E+00  0.00000000000E+00  0.42842750618E+03  0.42842750618E+03  0.00000000000E+00 0. -1.
         -4   -1    0    0    0  501 -0.00000000000E+00 -0.00000000000E+00 -0.41997546217E+02  0.41997546217E+02  0.00000000000E+00 0.  1.
          5    1    1    2  502    0  0.82495556961E+02  0.66264404380E+02  0.14149132287E+03  0.17673074168E+03  0.41800000000E+01 0.  1.
         -5    1    1    2    0  502 -0.19799368990E+02 -0.23424980211E+02  0.10962396710E+03  0.11391062845E+03  0.41800000000E+01 0.  1.
        -11    1    1    2    0    0 -0.64285261333E+02 -0.54476207118E+01  0.36513492440E+02  0.74131683687E+02  0.00000000000E+00 0.  1.
         11    1    1    2    0    0  0.15890733613E+01 -0.37391803457E+02  0.98801177549E+02  0.10565199858E+03  0.00000000000E+00 0. -1.
</event>
<event>
 6    1  0.6981059E-006  0.2141907E+03  0.7561462E-02  0.1138290E+00
         -1   -1    0    0    0  501 -0.00000000000E+00  0.00000000000E+00  0.10823966217E+03  0.10823966217E+03  0.00000000000E+00 0.  1.
          1   -1    0    0  501    0  0.00000000000E+00 -0.00000000000E+00 -0.43079751077E+03  0.43079751077E+03  0.00000000000E+00 0. -1.
          5    1    1    2  502    0 -0.15264300082E+03  0.83722805850E+02 -0.13053914192E+03  0.21764037744E+03  0.41800000000E+01 0. -1.
         -5    1    1    2    0  502  0.97860879190E+02 -0.30608729115E+02 -0.55582781655E+02  0.11670717198E+03  0.41800000000E+01 0.  1.
        -11    1    1    2    0    0  0.36152729331E+02  0.41583318759E+02 -0.38711305821E+02  0.67340607626E+02  0.00000000000E+00 0.  1.
         11    1    1    2    0    0  0.18629392297E+02 -0.94697395494E+02 -0.97724619202E+02  0.13734901590E+03  0.00000000000E+00 0. -1.
</event>
<event>
 6    1  0.6981059E-006  0.2191825E+03  0.7561462E-02  0.1134494E+00
         -2   -1    0    0    0  501 -0.00000000000E+00  0.00000000000E+00  0.18439019198E+03  0.18439019198E+03  0.00000000000E+00 0.  1.
          2   -1    0    0  501    0  0.00000000000E+00 -0.00000000000E+00 -0.42953294291E+03  0.42953294291E+03  0.00000000000E+00 0. -1.
          5    1    1    2  502    0  0.15456431483E+03  0.13849392703E+03 -0.12203978211E+02  0.20793533785E+03  0.41800000000E+01 0. -1.
         -5    1    1    2    0  502  0.14115355816E+01  0.97459231236E+01  0.41300423558E+02  0.42663483640E+02  0.41800000000E+01 0. -1.
        -11    1    1    2    0    0 -0.98352091272E+02 -0.61643405960E+02 -0.73928949343E+02  0.13761734232E+03  0.00000000000E+00 0.  1.
         11    1    1    2    0    0 -0.57623759140E+02 -0.86596444198E+02 -0.20031024693E+03  0.22570697108E+03  0.00000000000E+00 0. -1.
</event>
<event>
 6    1  0.6981059E-006  0.9845223E+02  0.7561462E-02  0.1283585E+00
         -3   -1    0    0    0  501 -0.00000000000E+00  0.00000000000E+00  0.13331566215E+03  0.13331566215E+03  0.00000000000E+00 0.  1.
          3   -1    0    0  501    0  0.00000000000E+00 -0.00000000000E+00 -0.16870457322E+03  0.16870457322E+03  0.00000000000E+00 0. -1.
          5    1    1    2  502    0 -0.49408662314E+02  0.59870479045E+02  0.38952406522E+01  0.77835309933E+02  0.41800000000E+01 0.  1.
         -5    1    1    2    0  502  0.24176761003E+02 -0.17360891735E+02  0.68751211199E+02  0.75034110749E+02  0.41800000000E+01 0.  1.
        -11    1    1    2    0    0  0.37015239542E+02 -0.58512243439E+02 -0.43839809058E+02  0.81949615306E+02  0.00000000000E+00 0.  1.
         11    1    1    2    0    0 -0.11783338231E+02  0.16002656130E+02 -0.64195553858E+02  0.67201199381E+02  0.00000000000E+00 0. -1.
</event>
<event>
 6    1  0.6981059E-006  0.1132617E+03  0.7561462E-02  0.1254646E+00
          2   -1    0    0  501    0  0.00000000000E+00  0.00000000000E+00  0.47127181505E+03  0.47127181505E+03  0.00000000000E+00 0. -1.
         -2   -1    0    0    0  501 -0.00000000000E+00 -0.00000000000E+00 -0.28367490384E+02  0.28367490384E+02  0.00000000000E+00 0.  1.
          5    1    1    2  502    0 -0.23186328374E+02 -0.49199602364E+02  0.10429432316E+03  0.11769870407E+03  0.41800000000E+01 0.  1.
         -5    1    1    2    0  502  0.61587402278E+02  0.44132929964E+02  0.11815062747E+03  0.14041996581E+03  0.41800000000E+01 0.  1.
        -11    1    1    2    0    0 -0.18281464768E+02 -0.41508326835E+02  0.13161117784E+03  0.13920723861E+03  0.00000000000E+00 0. -1.
         11    1    1    2    0    0 -0.20119609136E+02  0.46574999235E+02  0.88848196200E+02  0.10231339694E+03  0.00000000000E+00 0.  1.
</event>
<event>
 6    1  0.6981059E-006  0.1303197E+03  0.7561462E-02  0.1226982E+00
         -2   -1    0    0    0  501 -0.00000000000E+00  0.00000000000E+00  0.17767862842E+02  0.17767862842E+02  0.00000000000E+00 0. -1.
          2   -1    0    0  501    0  0.00000000000E+00 -0.00000000000E+00 -0.11610766562E+04  0.11610766562E+04  0.00000000000E+00 0.  1.
          5    1    1    2  502    0  0.48960285653E+02  0.94830855956E+02 -0.25980467694E+03  0.28090201738E+03  0.41800000000E+01 0.  1.
         -5    1    1    2    0  502  0.63584178318E+01 -0.23706032074E+02 -0.26256379856E+03  0.26374158972E+03  0.41800000000E+01 0.  1.
        -11    1    1    2    0    0 -0.35635656228E+02  0.16398045953E+02 -0.19900377826E+03  0.20283318187E+03  0.00000000000E+00 0.  1.
         11    1    1    2    0    0 -0.19683047256E+02 -0.87522869835E+02 -0.42193653964E+03  0.43136773011E+03  0.00000000000E+00 0. -1.
</event>
<event>
 6    1  0.6981059E-006  0.1164187E+03  0.7561462E-02  0.1249125E+00
         -1   -1    0    0    0  501 -0.00000000000E+00  0.00000000000E+00  0.17626083196E+03  0.17626083196E+03  0.00000000000E+00 0.  1.
          1   -1    0    0  501    0  0.00000000000E+00 -0.00000000000E+00 -0.90540206073E+02  0.90540206073E+02  0.00000000000E+00 0. -1.
          5    1    1    2  502    0 -0.24154701252E+02 -0.95750764883E+02  0.63536277708E+02  0.11749889171E+03  0.41800000000E+01 0.  1.
         -5    1    1    2    0  502  0.84501632554E+01  0.30520144654E+02 -0.11110754088E+02  0.33820197296E+02  0.41800000000E+01 0.  1.
        -11    1    1    2    0    0  0.43257384519E+02  0.16937423355E+02  0.37529680423E+02  0.59720637455E+02  0.00000000000E+00 0.  1.
         11    1    1    2    0    0 -0.27552846522E+02  0.48293196874E+02 -0.42345781572E+01  0.55761311570E+02  0.00000000000E+00 0. -1.
</event>
<event>
 6    1  0.6981059E-006  0.6952038E+02  0.7561462E-02  0.1361732E+00
         -3   -1    0    0    0  501 -0.00000000000E+00  0.00000000000E+00  0.10056651931E+03  0.10056651931E+03  0.00000000000E+00 0.  1.
          3   -1    0    0  501    0  0.00000000000E+00 -0.00000000000E+00 -0.14706579047E+03  0.14706579047E+03  0.00000000000E+00 0. -1.
          5    1    1    2  502    0 -0.14727284364E+02  0.29609714963E+02 -0.45735925100E+02  0.56593951706E+02  0.41800000000E+01 0. -1.
         -5    1    1    2    0  502 -0.17264362298E+02 -0.30323853732E+02  0.65086658479E+02  0.73968505614E+02  0.41800000000E+01 0. -1.
        -11    1    1    2    0    0  0.26595844633E+02  0.30399993935E+02  0.43841232373E+01  0.40629042809E+02  0.00000000000E+00 0.  1.
         11    1    1    2    0    0  0.53958020292E+01 -0.29685855166E+02 -0.70234127777E+02  0.76440809657E+02  0.00000000000E+00 0. -1.
</event>
<event>
 6    1  0.6981059E-006  0.1621781E+03  0.7561462E-02  0.1186259E+00
          2   -1    0    0  501    0  0.00000000000E+00  0.00000000000E+00  0.79090764903E+03  0.79090764903E+03  0.00000000000E+00 0.  1.
         -2   -1    0    0    0  501 -0.00000000000E+00 -0.00000000000E+00 -0.46495308598E+02  0.46495308598E+02  0.00000000000E+00 0. -1.
          5    1    1    2  502    0  0.67304767392E+02 -0.40278848033E+02  0.32287672808E+03  0.33229380261E+03  0.41800000000E+01 0.  1.
         -5    1    1    2    0  502  0.85802147777E+02  0.32265883467E+01  0.77374729740E+02  0.11565786025E+03  0.41800000000E+01 0.  1.
        -11    1    1    2    0    0 -0.81194928737E+02  0.33529344826E+02  0.27843808100E+03  0.29196677614E+03  0.00000000000E+00 0.  1.
         11    1    1    2    0    0 -0.71911986431E+02  0.35229148599E+01  0.65722801602E+02  0.97484518628E+02  0.00000000000E+00 0. -1.
</event>
<event>
 6    1  0.6981059E-006  0.1005173E+03  0.7561462E-02  0.1279212E+00
          2   -1    0    0  501    0  0.00000000000E+00  0.00000000000E+00  0.27386537500E+03  0.27386537500E+03  0.00000000000E+00 0. -1.
         -2   -1    0    0    0  501 -0.00000000000E+00 -0.00000000000E+00 -0.89155947433E+02  0.89155947433E+02  0.00000000000E+00 0.  1.
          5    1    1    2  502    0  0.25936915590E+02  0.65706121027E+02 -0.91051738442E+00  0.70769480517E+02  0.41800000000E+01 0.  1.
         -5    1    1    2    0  502  0.10075153572E+02 -0.30142264148E+02  0.78709887670E+02  0.84986961497E+02  0.41800000000E+01 0.  1.
        -11    1    1    2    0    0  0.26034981782E+02 -0.23362536948E+02 -0.36485606668E+02  0.50545305450E+02  0.00000000000E+00 0.  1.
         11    1    1    2    0    0 -0.62047050944E+02 -0.12201319930E+02  0.14339566395E+03  0.15671957497E+03  0.00000000000E+00 0. -1.
</event>
<event>
 6    1  0.6981059E-006  0.7530915E+02  0.7561462E-02  0.1342916E+00
          1   -1    0    0  501    0  0.00000000000E+00  0.00000000000E+00  0.23321817707E+03  0.23321817707E+03  0.00000000000E+00 0. -1.
         -1   -1    0    0    0  501 -0.00000000000E+00 -0.00000000000E+00 -0.66081416565E+02  0.66081416565E+02  0.00000000000E+00 0.  1.
          5    1    1    2  502    0 -0.58749235408E+01  0.14856111100E+02 -0.43792793339E+02  0.46802776756E+02  0.41800000000E+01 0. -1.
         -5    1    1    2    0  502 -0.80718163111E+01 -0.32915250870E+02  0.77571626478E+02  0.84754926658E+02  0.41800000000E+01 0. -1.
        -11    1    1    2    0    0 -0.25656748137E+02 -0.28822223902E+02  0.36737846627E+02  0.53279064279E+02  0.00000000000E+00 0. -1.
         11    1    1    2    0    0  0.39603487989E+02  0.46881363672E+02  0.96620080739E+02  0.11446282594E+03  0.00000000000E+00 0.  1.
</event>
<event>
 6    1  0.6981059E-006  0.2246441E+03  0.7561462E-02  0.1130467E+00
         -1   -1    0    0    0  501 -0.00000000000E+00  0.00000000000E+00  0.11911758498E+03  0.11911758498E+03  0.00000000000E+00 0.  1.
          1   -1    0    0  501    0  0.00000000000E+00 -0.00000000000E+00 -0.80883461262E+03  0.80883461262E+03  0.00000000000E+00 0. -1.
          5    1    1    2  502    0 -0.63336412077E+02  0.15436956429E+02 -0.82280454484E+01  0.65840518304E+02  0.41800000000E+01 0. -1.
         -5    1    1    2    0  502 -0.35004661568E+02  0.16964949598E+03 -0.35313255261E+02  0.17683544954E+03  0.41800000000E+01 0.  1.
        -11    1    1    2    0    0  0.24419036604E+02 -0.67679657789E+02 -0.11000100572E+03  0.13144218001E+03  0.00000000000E+00 0.  1.
         11    1    1    2    0    0  0.73922037041E+02 -0.11740679462E+03 -0.53617472121E+03  0.55383404974E+03  0.00000000000E+00 0. -1.
</event>
<event>
 6    1  0.6981059E-006  0.8949950E+02  0.7561462E-02  0.1304068E+00
          1   -1    0    0  501    0  0.00000000000E+00  0.00000000000E+00  0.12564434136E+03  0.12564434136E+03  0.00000000000E+00 0. -1.
         -1   -1    0    0    0  501 -0.00000000000E+00 -0.00000000000E+00 -0.18628986839E+03  0.18628986839E+03  0.00000000000E+00 0.  1.
          5    1    1    2  502    0  0.18227712306E+02 -0.63808117027E+01  0.28932871111E+02  0.35036376591E+02  0.41800000000E+01 0. -1.
         -5    1    1    2    0  502  0.12369941381E+02 -0.51112562701E+02 -0.14513603456E+03  0.15442619740E+03  0.41800000000E+01 0.  1.
        -11    1    1    2    0    0 -0.59923965156E+02  0.43125029312E+02  0.25559035100E+02  0.78127549741E+02  0.00000000000E+00 0. -1.
         11    1    1    2    0    0  0.29326311469E+02  0.14368345092E+02  0.29998601311E+02  0.44344086028E+02  0.00000000000E+00 0.  1.
</event>
<event>
 6    1  0.6981059E-006  0.1615947E+03  0.7561462E-02  0.1186908E+00
         -2   -1    0    0    0  501 -0.00000000000E+00  0.00000000000E+00  0.69496511910E+03  0.69496511910E+03  0.00000000000E+00 0.  1.
          2   -1    0    0  501    0  0.00000000000E+00 -0.00000000000E+00 -0.60999805304E+02  0.60999805304E+02  0.00000000000E+00 0. -1.
          5    1    1    2  502    0 -0.74666388811E+01 -0.30209453414E+02  0.48241911220E+02  0.57559674859E+02  0.41800000000E+01 0.  1.
         -5    1    1    2    0  502  0.14798494509E+03  0.31069399181E+02  0.47259316306E+03  0.49621227485E+03  0.41800000000E+01 0.  1.
        -11    1    1    2    0    0 -0.86001993759E+02 -0.82733132025E+00  0.11957941327E+03  0.14729651552E+03  0.00000000000E+00 0. -1.
         11    1    1    2    0    0 -0.54516312450E+02 -0.32614447046E-01 -0.64491737589E+01  0.54896459167E+02  0.00000000000E+00 0.  1.
</event>
<event>
 6    1  0.6981059E-006  0.8311591E+02  0.7561462E-02  0.1320434E+00
         -3   -1    0    0    0  501 -0.00000000000E+00  0.00000000000E+00  0.35068081366E+02  0.35068081366E+02  0.00000000000E+00 0.  1.
          3   -1    0    0  501    0  0.00000000000E+00 -0.00000000000E+00 -0.38456867329E+03  0.38456867329E+03  0.00000000000E+00 0. -1.
          5    1    1    2  502    0 -0.13125060490E+02  0.87445424293E+01  0.14086308700E+02  0.21555294662E+02  0.41800000000E+01 0. -1.
         -5    1    1    2    0  502  0.43162037911E+02 -0.34787836910E+02 -0.18977227559E+03  0.19774767786E+03  0.41800000000E+01 0. -1.
        -11    1    1    2    0    0  0.16423623288E+02  0.42080537623E+02 -0.11579487211E+03  0.12429384319E+03  0.00000000000E+00 0.  1.
         11    1    1    2    0    0 -0.46460600709E+02 -0.16037243142E+02 -0.58019752918E+02  0.76039938944E+02  0.00000000000E+00 0. -1.
</event>
<event>
 6    1  0.6981059E-006  0.1147111E+03  0.7561462E-02  0.1252086E+00
         -2   -1    0    0    0  501 -0.00000000000E+00  0.00000000000E+00  0.54402008357E+02  0.54402008357E+02  0.00000000000E+00 0.  1.
          2   -1    0    0  501    0  0.00000000000E+00 -0.00000000000E+00 -0.29396428903E+03  0.29396428903E+03  0.00000000000E+00 0. -1.
          5    1    1    2  502    0 -0.57765985311E+02  0.22035400211E+02 -0.89032637071E+02  0.10847465504E+03  0.41800000000E+01 0.  1.
         -5    1    1    2    0  502  0.10708167884E+02 -0.59854849636E+02 -0.91787744665E+01  0.61635948805E+02  0.41800000000E+01 0.  1.
        -11    1    1    2    0    0  0.60476233428E+02 -0.59099933243E+01 -0.62993103719E+02  0.87523905002E+02  0.00000000000E+00 0.  1.
         11    1    1    2    0    0 -0.13418416001E+02  0.43729442749E+02 -0.78357765412E+02  0.90731788539E+02  0.00000000000E+00 0. -1.
</event>
<event>
 6    1  0.6981059E-006  0.1014669E+03  0.7561462E-02  0.1277241E+00
         -1   -1    0    0    0  501 -0.00000000000E+00  0.00000000000E+00  0.25846012639E+03  0.25846012639E+03  0.00000000000E+00 0.  1.
          1   -1    0    0  501    0  0.00000000000E+00 -0.00000000000E+00 -0.53401777683E+02  0.53401777683E+02  0.00000000000E+00 0. -1.
          5    1    1    2  502    0 -0.76201836104E+02  0.12439566169E+01  0.10561891868E+03  0.13031153301E+03  0.41800000000E+01 0. -1.
         -5    1    1    2    0  502  0.47158878923E+02  0.21569788451E+02  0.43653341111E+02  0.67913932483E+02  0.41800000000E+01 0. -1.
        -11    1    1    2    0    0  0.18692759575E+02 -0.45748075111E+02  0.69268125847E+02  0.85090416001E+02  0.00000000000E+00 0.  1.
         11    1    1    2    0    0  0.10350197606E+02  0.22934330043E+02 -0.13482036930E+02  0.28546022574E+02  0.00000000000E+00 0. -1.
</event>
<event>
 6    1  0.6981059E-006  0.1637773E+03  0.7561462E-02  0.1184497E+00
         -2   -1    0    0    0  501 -0.00000000000E+00  0.00000000000E+00  0.18784232048E+03  0.18784232048E+03  0.00000000000E+00 0.  1.
          2   -1    0    0  501    0  0.00000000000E+00 -0.00000000000E+00 -0.14804969159E+03  0.14804969159E+03  0.00000000000E+00 0. -1.
          5    1    1    2  502    0  0.11393833962E+02  0.11849425876E+03 -0.14010074312E+02  0.11993524667E+03  0.41800000000E+01 0. -1.
         -5    1    1    2    0  502 -0.53492482567E+02 -0.13383293978E+01  0.17936555934E+02  0.56590010210E+02  0.41800000000E+01 0. -1.
        -11    1    1    2    0    0  0.41961298920E+01  0.15886902634E+02 -0.97006848641E-01  0.16431999017E+02  0.00000000000E+00 0. -1.
         11    1    1    2    0    0  0.37902518713E+02 -0.13304283199E+03  0.35963154115E+02  0.14293475618E+03  0.00000000000E+00 0.  1.
</event>
<event>
 6    1  0.6981059E-006  0.2779815E+03  0.7561462E-02  0.1096797E+00
          2   -1    0    0  501    0  0.00000000000E+00  0.00000000000E+00  0.29298328993E+03  0.29298328993E+03  0.00000000000E+00 0. -1.
         -2   -1    0    0    0  501 -0.00000000000E+00 -0.00000000000E+00 -0.37341460169E+03  0.37341460169E+03  0.00000000000E+00 0.  1.
          5    1    1    2  502    0 -0.15400544729E+03 -0.56940487392E+02 -0.87796988176E+02  0.18624092040E+03  0.41800000000E+01 0.  1.
         -5    1    1    2    0  502 -0.11105877218E+03  0.56653376364E+02 -0.11959053438E+03  0.17280921343E+03  0.41800000000E+01 0.  1.
        -11    1    1    2    0    0  0.85559099802E+02 -0.14812272030E+02 -0.23288786126E+00  0.86832120775E+02  0.00000000000E+00 0.  1.
         11    1    1    2    0    0  0.17950511966E+03  0.15099383059E+02  0.12718909866E+03  0.22051563702E+03  0.00000000000E+00 0. -1.
</event>
<event>
 6    1  0.6981059E-006  0.1951142E+03  0.7561462E-02  0.1153928E+00
          2   -1    0    0  501    0  0.00000000000E+00  0.00000000000E+00  0.11353159789E+04  0.11353159789E+04  0.00000000000E+00 0. -1.
         -2   -1    0    0    0  501 -0.00000000000E+00 -0.00000000000E+00 -0.40253864943E+02  0.40253864943E+02  0.00000000000E+00 0.  1.
          5    1    1    2  502    0 -0.96142084856E+01 -0.23250905445E+02  0.21471989999E+03  0.21622938158E+03  0.41800000000E+01 0. -1.
         -5    1    1    2    0  502  0.16159167662E+03 -0.76843046501E+02  0.45392851636E+03  0.48793984682E+03  0.41800000000E+01 0. -1.
        -11    1    1    2    0    0 -0.83024208289E+02  0.76413027505E+02  0.34056826404E+03  0.35877390151E+03  0.00000000000E+00 0.  1.
         11    1    1    2    0    0 -0.68953259847E+02  0.23680924440E+02  0.85845433572E+02  0.11262671393E+03  0.00000000000E+00 0. -1.
</event>
<event>
 6    1  0.6981059E-006  0.1067479E+03  0.7561462E-02  0.1266713E+00
         -2   -1    0    0    0  501 -0.00000000000E+00  0.00000000000E+00  0.61486110312E+03  0.61486110312E+03  0.00000000000E+00 0.  1.
          2   -1    0    0  501    0  0.00000000000E+00 -0.00000000000E+00 -0.31795373296E+02  0.31795373296E+02  0.00000000000E+00 0. -1.
          5    1    1    2  502    0  0.47041686258E+01 -0.77146646712E+02  0.16675729738E+03  0.18384559535E+03  0.41800000000E+01 0. -1.
         -5    1    1    2    0  502  0.28011271632E+02  0.26972186464E+02  0.31688175075E+03  0.31928615150E+03  0.41800000000E+01 0. -1.
        -11    1    1    2    0    0  0.24204610189E+01 -0.19128991615E+02  0.44122351826E+02  0.48151416204E+02  0.00000000000E+00 0.  1.
         11    1    1    2    0    0 -0.35135901277E+02  0.69303451864E+02  0.55304329866E+02  0.95373313357E+02  0.00000000000E+00 0. -1.
</event>
<event>
 6    1  0.6981059E-006  0.1812348E+03  0.7561462E-02  0.1166613E+00
          3   -1    0    0  501    0  0.00000000000E+00  0.00000000000E+00  0.23048898392E+03  0.23048898392E+03  0.00000000000E+00 0. -1.
         -3   -1    0    0    0  501 -0.00000000000E+00 -0.00000000000E+00 -0.10376687075E+04  0.10376687075E+04  0.00000000000E+00 0.  1.
          5    1    1    2  502    0  0.62566188416E+02 -0.56235844949E+01 -0.13319927319E+03  0.14732844740E+03  0.41800000000E+01 0. -1.
         -5    1    1    2    0  502  0.11033487819E+03 -0.51629510389E+01 -0.85009505428E+03  0.85725113888E+03  0.41800000000E+01 0.  1.
        -11    1    1    2    0    0 -0.10813885931E+03  0.43332135376E+02  0.72796006676E+02  0.13737155979E+03  0.00000000000E+00 0.  1.
         11    1    1    2    0    0 -0.64762207289E+02 -0.32545599842E+02  0.10331859721E+03  0.12620654536E+03  0.00000000000E+00 0. -1.
</event>
<event>
 6    1  0.6981059E-006  0.1196683E+03  0.7561462E-02  0.1243645E+00
          4   -1    0    0  501    0  0.00000000000E+00  0.00000000000E+00  0.50279553444E+02  0.50279553444E+02  0.00000000000E+00 0. -1.
         -4   -1    0    0    0  501 -0.00000000000E+00 -0.00000000000E+00 -0.31933134380E+03  0.31933134380E+03  0.00000000000E+00 0.  1.
          5    1    1    2  502    0 -0.42185215476E+02 -0.75214365440E+02 -0.13297955983E+03  0.15854913720E+03  0.41800000000E+01 0.  1.
         -5    1    1    2    0  502  0.47662796624E+02  0.16788849960E+02 -0.55889856687E+02  0.75463608087E+02  0.41800000000E+01 0.  1.
        -11    1    1    2    0    0 -0.42886690660E+02  0.45959292913E+02 -0.71533858155E+02  0.95229290155E+02  0.00000000000E+00 0.  1.
         11    1    1    2    0    0  0.37409109512E+02  0.12466222566E+02 -0.86485156789E+01  0.40368861800E+02  0.00000000000E+00 0. -1.
</event>
<event>
 6    1  0.6981059E-006  0.1343306E+03  0.7561462E-02  0.1221168E+00
         -2   -1    0    0    0  501 -0.00000000000E+00  0.00000000000E+00  0.11322242785E+03  0.11322242785E+03  0.00000000000E+00 0. -1.
          2   -1    0    0  501    0  0.00000000000E+00 -0.00000000000E+00 -0.17739099338E+03  0.17739099338E+03  0.00000000000E+00 0.  1.
          5    1    1    2  502    0  0.56882374661E+02 -0.61915805474E+02 -0.11880208828E+02  0.85016370637E+02  0.41800000000E+01 0.  1.
         -5    1    1    2    0  502 -0.60663216997E+02 -0.23273412797E+02  0.12911083069E+02  0.66376547859E+02  0.41800000000E+01 0.  1.
        -11    1    1    2    0    0  0.25678512542E+02 -0.53421143234E+01 -0.29494097342E+02  0.39469304146E+02  0.00000000000E+00 0.  1.
         11    1    1    2    0    0 -0.21897670205E+02  0.90531332594E+02 -0.35705342426E+02  0.99751198586E+02  0.00000000000E+00 0. -1.
</event>
<event>
 6    1  0.6981059E-006  0.1587636E+03  0.7561462E-02  0.1190100E+00
          2   -1    0    0  501    0  0.00000000000E+00  0.00000000000E+00  0.13846260373E+03  0.13846260373E+03  0.00000000000E+00 0. -1.
         -2   -1    0    0    0  501 -0.00000000000E+00 -0.00000000000E+00 -0.22815741239E+03  0.22815741239E+03  0.00000000000E+00 0.  1.
          5    1    1    2  502    0 -0.27814070495E+02 -0.38999108964E+01 -0.19398795911E+02  0.34389206232E+02  0.41800000000E+01 0. -1.
         -5    1    1    2    0  502  0.13916859860E+03 -0.29144468866E+02 -0.11008130871E+03  0.17986846813E+03  0.41800000000E+01 0. -1.
        -11    1    1    2    0    0 -0.33284192813E+02  0.56316988297E+02  0.13841740312E+02  0.66865794222E+02  0.00000000000E+00 0. -1.
         11    1    1    2    0    0 -0.78070335293E+02 -0.23272608535E+02  0.25943555651E+02  0.85496547536E+02  0.00000000000E+00 0.  1.
</event>
<event>
 6    1  0.6981059E-006  0.1174831E+03  0.7561462E-02  0.1247308E+00
          1   -1    0    0  501    0  0.00000000000E+00  0.00000000000E+00  0.39202870210E+03  0.39202870210E+03  0.00000000000E+00 0. -1.
         -1   -1    0    0    0  501 -0.00000000000E+00 -0.00000000000E+00 -0.41089152065E+02  0.41089152065E+02  0.00000000000E+00 0.  1.
          5    1    1    2  502    0 -0.41750345899E+01  0.36316164304E+02  0.12530292969E+03  0.13059322836E+03  0.41800000000E+01 0.  1.
         -5    1    1    2    0  502  0.67851096274E+02 -0.52248018117E+02  0.71371545799E+02  0.11155714505E+03  0.41800000000E+01 0.  1.
        -11    1    1    2    0    0 -0.48275044522E+02  0.53362710275E+02  0.94262941704E+02  0.11858988553E+03  0.00000000000E+00 0.  1.
         11    1    1    2    0    0 -0.15401017162E+02 -0.37430856462E+02  0.60002132845E+02  0.72377595229E+02  0.00000000000E+00 0. -1.
</event>
<event>
 6    1  0.6981059E-006  0.6704298E+02  0.7561462E-02  0.1370447E+00
          2   -1    0    0  501    0  0.00000000000E+00  0.00000000000E+00  0.26295274954E+03  0.26295274954E+03  0.00000000000E+00 0. -1.
         -2   -1    0    0    0  501 -0.00000000000E+00 -0.00000000000E+00 -0.20358325693E+02  0.20358325693E+02  0.00000000000E+00 0.  1.
          5    1    1    2  502    0 -0.55111963122E+02 -0.33876938253E+02  0.14253490547E+03  0.15658431308E+03  0.41800000000E+01 0. -1.
         -5    1    1    2    0  502  0.32609760091E+02  0.32321299605E+02  0.35760993817E+02  0.58347098815E+02  0.41800000000E+01 0.  1.
        -11    1    1    2    0    0  0.12548645184E+02 -0.17454570521E+01  0.31791757122E+02  0.34223251412E+02  0.00000000000E+00 0.  1.
         11    1    1    2    0    0  0.99535578470E+01  0.33010957005E+01  0.32506767440E+02  0.34156411931E+02  0.00000000000E+00 0. -1.
</event>
<event>
 6    1  0.6981059E-006  0.2150107E+03  0.7561462E-02  0.1137658E+00
          1   -1    0    0  501    0  0.00000000000E+00  0.00000000000E+00  0.84920731690E+03  0.84920731690E+03  0.00000000000E+00 0. -1.
         -1   -1    0    0    0  501 -0.00000000000E+00 -0.00000000000E+00 -0.63504657219E+02  0.63504657219E+02  0.00000000000E+00 0.  1.
          5    1    1    2  502    0  0.21089789629E+02  0.58623454511E+02  0.24452620096E+03  0.25237278776E+03  0.41800000000E+01 0. -1.
         -5    1    1    2    0  502  0.86194269638E+02  0.11561902471E+03  0.14148067550E+03  0.20206797107E+03  0.41800000000E+01 0. -1.
        -11    1    1    2    0    0  0.44044931057E+01 -0.71230843906E+02  0.14713188447E+03  0.16352682994E+03  0.00000000000E+00 0.  1.
         11    1    1    2    0    0 -0.11168855237E+03 -0.10301163531E+03  0.25256389875E+03  0.29474438534E+03  0.00000000000E+00 0. -1.
</event>
<event>
 6    1  0.6981059E-006  0.1690564E+03  0.7561462E-02  0.1178835E+00
          1   -1    0    0  501    0  0.00000000000E+00  0.00000000000E+00  0.23144100332E+03  0.23144100332E+03  0.00000000000E+00 0. -1.
         -1   -1    0    0    0  501 -0.00000000000E+00 -0.00000000000E+00 -0.14172243833E+03  0.14172243833E+03  0.00000000000E+00 0.  1.
          5    1    1    2  502    0  0.23526299223E+02 -0.26831840749E+01  0.33610342130E+02  0.41325703018E+02  0.41800000000E+01 0.  1.
         -5    1    1    2    0  502 -0.30730087972E+02  0.14303932598E+03 -0.18009684426E+02  0.14746663425E+03  0.41800000000E+01 0.  1.
        -11    1    1    2    0    0 -0.39431021047E+02 -0.35958563486E+02  0.13911167343E+02  0.55148384252E+02  0.00000000000E+00 0.  1.
         11    1    1    2    0    0  0.46634809797E+02 -0.10439757842E+03  0.60206739938E+02  0.12922272013E+03  0.00000000000E+00 0. -1.
</event>
<event>
 6    1  0.6981059E-006  0.1094932E+03  0.7561462E-02  0.1261511E+00
         -1   -1    0    0    0  501 -0.00000000000E+00  0.00000000000E+00  0.54986002929E+02  0.54986002929E+02  0.00000000000E+00 0.  1.
          1   -1    0    0  501    0  0.00000000000E+00 -0.00000000000E+00 -0.30358435001E+03  0.30358435001E+03  0.00000000000E+00 0. -1.
          5    1    1    2  502    0 -0.49752249185E+02 -0.25858224533E+02  0.15042303183E+01  0.56246503747E+02  0.41800000000E+01 0.  1.
         -5    1    1    2    0  502  0.40607223125E+02 -0.41447560621E+02 -0.10397206443E+03  0.11914071274E+03  0.41800000000E+01 0.  1.
        -11    1    1    2    0    0  0.42663257179E+02  0.53265794299E+02 -0.12126756954E+03  0.13915179402E+03  0.00000000000E+00 0. -1.
         11    1    1    2    0    0 -0.33518231119E+02  0.14039990855E+02 -0.24862943432E+02  0.44031342435E+02  0.00000000000E+00 0.  1.
</event>
<event>
 6    1  0.6981059E-006  0.2174517E+03  0.7561462E-02  0.1135797E+00
          2   -1    0    0  501    0  0.00000000000E+00  0.00000000000E+00  0.19117096623E+03  0.19117096623E+03  0.00000000000E+00 0. -1.
         -2   -1    0    0    0  501 -0.00000000000E+00 -0.00000000000E+00 -0.26084359854E+03  0.26084359854E+03  0.00000000000E+00 0.  1.
          5    1    1    2  502    0 -0.10702851139E+03 -0.58650165085E+02 -0.44331539903E+02  0.12991420994E+03  0.41800000000E+01 0. -1.
         -5    1    1    2    0  502  0.53962033486E+01 -0.10646119243E+03 -0.10120806887E+02  0.10715879636E+03  0.41800000000E+01 0. -1.
        -11    1    1    2    0    0  0.79479517465E+02  0.16588337406E+03 -0.32557958547E+02  0.18680018242E+03  0.00000000000E+00 0.  1.
         11    1    1    2    0    0  0.22152790577E+02 -0.77201654178E+00  0.17337673027E+02  0.28141376048E+02  0.00000000000E+00 0. -1.
</event>
<event>
 6    1  0.6981059E-006  0.1325646E+03  0.7561462E-02  0.1223699E+00
          2   -1    0    0  501    0  0.00000000000E+00  0.00000000000E+00  0.12688140027E+03  0.12688140027E+03  0.00000000000E+00 0.  1.
         -2   -1    0    0    0  501 -0.00000000000E+00 -0.00000000000E+00 -0.22908820077E+03  0.22908820077E+03  0.00000000000E+00 0. -1.
          5    1    1    2  502    0  0.47016234697E+02  0.84698354788E+02 -0.50344552864E+02  0.10925375981E+03  0.41800000000E+01 0. -1.
         -5    1    1    2    0  502 -0.37238110282E+02  0.76886258999E+01 -0.10083569388E+03  0.10784758405E+03  0.41800000000E+01 0. -1.
        -11    1    1    2    0    0  0.40618911450E+02 -0.46665243847E+02  0.24871426465E+02  0.66679298174E+02  0.00000000000E+00 0.  1.
         11    1    1    2    0    0 -0.50397035865E+02 -0.45721736841E+02  0.24102019780E+02  0.72188958998E+02  0.00000000000E+00 0. -1.
</event>
<event>
 6    1  0.6981059E-006  0.1028941E+03  0.7561462E-02  0.1274325E+00
          2   -1    0    0  501    0  0.00000000000E+00  0.00000000000E+00  0.24593994597E+03  0.24593994597E+03  0.00000000000E+00 0.  1.
         -2   -1    0    0    0  501 -0.00000000000E+00 -0.00000000000E+00 -0.53693374836E+02  0.53693374836E+02  0.00000000000E+00 0. -1.
          5    1    1    2  502    0 -0.19461489618E+02 -0.76726406491E+02  0.83181167461E+02  0.11490113164E+03  0.41800000000E+01 0. -1.
         -5    1    1    2    0  502  0.22470967086E+02  0.44402712126E+02  0.55395236090E+02  0.74583173621E+02  0.41800000000E+01 0. -1.
        -11    1    1    2    0    0 -0.33121014190E+02  0.32593762309E+02 -0.23716499362E+01  0.46529341773E+02  0.00000000000E+00 0. -1.
         11    1    1    2    0    0  0.30111536722E+02 -0.27006794462E+00  0.56041817523E+02  0.63619673779E+02  0.00000000000E+00 0.  1.
</event>
<event>
 6    1  0.6981059E-006  0.1173861E+03  0.7561462E-02  0.1247473E+00
         -2   -1    0    0    0  501 -0.00000000000E+00  0.00000000000E+00  0.90314312209E+02  0.90314312209E+02  0.00000000000E+00 0.  1.
          2   -1    0    0  501    0  0.00000000000E+00 -0.00000000000E+00 -0.29989608790E+03  0.29989608790E+03  0.00000000000E+00 0. -1.
          5    1    1    2  502    0  0.16814501475E+02  0.11441601459E+03 -0.40017311901E+02  0.12244431186E+03  0.41800000000E+01 0.  1.
         -5    1    1    2    0  502 -0.69079599384E+01 -0.22273737389E+02  0.24402221063E+02  0.34011469838E+02  0.41800000000E+01 0.  1.
        -11    1    1    2    0    0 -0.16819723735E+02 -0.52787404896E+02 -0.26181368653E+02  0.61277053509E+02  0.00000000000E+00 0.  1.
         11    1    1    2    0    0  0.69131821989E+01 -0.39354872308E+02 -0.16778531620E+03  0.17247756490E+03  0.00000000000E+00 0. -1.
</event>
<event>
 6    1  0.6981059E-006  0.8557661E+02  0.7561462E-02  0.1313931E+00
          3   -1    0    0  501    0  0.00000000000E+00  0.00000000000E+00  0.29714198008E+02  0.29714198008E+02  0.00000000000E+00 0. -1.
         -3   -1    0    0    0  501 -0.00000000000E+00 -0.00000000000E+00 -0.41716149832E+03  0.41716149832E+03  0.00000000000E+00 0.  1.
          5    1    1    2  502    0 -0.56069493509E+02  0.79341316868E+01 -0.17300577436E+03  0.18208571857E+03  0.41800000000E+01 0. -1.
         -5    1    1    2    0  502  0.57168004405E+02 -0.24704877738E+02 -0.88645139805E+02  0.10841561199E+03  0.41800000000E+01 0. -1.
        -11    1    1    2    0    0 -0.23725260567E+02  0.17230296718E+02 -0.13007766646E+03  0.13334155551E+03  0.00000000000E+00 0.  1.
         11    1    1    2    0    0  0.22626749671E+02 -0.45955066652E+00  0.42812803049E+01  0.23032810261E+02  0.00000000000E+00 0. -1.
</event>
<event>
 6    1  0.6981059E-006  0.1131794E+03  0.7561462E-02  0.1254793E+00
         -1   -1    0    0    0  501 -0.00000000000E+00  0.00000000000E+00  0.14858443169E+03  0.14858443169E+03  0.00000000000E+00 0.  1.
          1   -1    0    0  501    0  0.00000000000E+00 -0.00000000000E+00 -0.11676438889E+03  0.11676438889E+03  0.00000000000E+00 0. -1.
          5    1    1    2  502    0 -0.52566167424E+02  0.16295235016E+02  0.27972726012E+02  0.61876348005E+02  0.41800000000E+01 0. -1.
         -5    1    1    2    0  502  0.59422199134E+02 -0.39681913022E+02  0.53873825387E+02  0.89585229993E+02  0.41800000000E+01 0. -1.
        -11    1    1    2    0    0  0.44970899864E+02  0.10242498450E+02 -0.10253031910E+02  0.47248442011E+02  0.00000000000E+00 0. -1.
         11    1    1    2    0    0 -0.51826931575E+02  0.13144179557E+02 -0.39773476687E+02  0.66638800563E+02  0.00000000000E+00 0.  1.
</event>
<event>
 6    1  0.6981059E-006  0.1109505E+03  0.7561462E-02  0.1258820E+00
         -2   -1    0    0    0  501 -0.00000000000E+00  0.00000000000E+00  0.42645209560E+02  0.42645209560E+02  0.00000000000E+00 0.  1.
          2   -1    0    0  501    0  0.00000000000E+00 -0.00000000000E+00 -0.31917897027E+03  0.31917897027E+03  0.00000000000E+00 0. -1.
          5    1    1    2  502    0  0.30414856206E+02  0.56586811172E+02 -0.42693389904E+02  0.77248486186E+02  0.41800000000E+01 0. -1.
         -5    1    1    2    0  502  0.13256240172E+02 -0.56350909946E+02 -0.11421113671E+03  0.12811248613E+03  0.41800000000E+01 0. -1.
        -11    1    1    2    0    0 -0.27642489960E+02  0.44262686166E+02 -0.75472759313E+02  0.91757452210E+02  0.00000000000E+00 0.  1.
         11    1    1    2    0    0 -0.16028606418E+02 -0.44498587392E+02 -0.44156474790E+02  0.64705755304E+02  0.00000000000E+00 0. -1.
</event>
<event>
 6    1  0.6981059E-006  0.1841723E+03  0.7561462E-02  0.1163825E+00
         -1   -1    0    0    0  501 -0.00000000000E+00  0.00000000000E+00  0.14693681879E+03  0.14693681879E+03  0.00000000000E+00 0.  1.
          1   -1    0    0  501    0  0.00000000000E+00 -0.00000000000E+00 -0.23502727456E+03  0.23502727456E+03  0.00000000000E+00 0. -1.
          5    1    1    2  502    0 -0.23487851931E+02 -0.77291550765E+02 -0.40506783379E+02  0.90465103259E+02  0.41800000000E+01 0.  1.
         -5    1    1    2    0  502 -0.11180586548E+03  0.10322905655E+02 -0.15438233019E+02  0.11341483755E+03  0.41800000000E+01 0.  1.
        -11    1    1    2    0    0  0.81458981483E+01 -0.19633658271E+02 -0.23486974153E+01  0.21385803078E+02  0.00000000000E+00 0.  1.
         11    1    1    2    0    0  0.12714781927E+03  0.86602303380E+02 -0.29796741959E+02  0.15669834947E+03  0.00000000000E+00 0. -1.
</event>
<event>
 6    1  0.6981059E-006  0.1250863E+03  0.7561462E-02  0.1234934E+00
          2   -1    0    0  501    0  0.00000000000E+00  0.00000000000E+00  0.17630137169E+03  0.17630137169E+03  0.00000000000E+00 0. -1.
         -2   -1    0    0    0  501 -0.00000000000E+00 -0.00000000000E+00 -0.10156411733E+03  0.10156411733E+03  0.00000000000E+00 0.  1.
          5    1    1    2  502    0  0.79244534842E+02  0.14049756135E+02 -0.30598641109E+01  0.80646928758E+02  0.41800000000E+01 0. -1.
         -5    1    1    2    0  502 -0.12278580246E+02 -0.51755376440E+02  0.50957395308E+02  0.73780153564E+02  0.41800000000E+01 0. -1.
        -11    1    1    2    0    0 -0.60634046757E+02  0.64599934452E+02  0.33996704620E+02  0.94896865503E+02  0.00000000000E+00 0.  1.
         11    1    1    2    0    0 -0.63319078392E+01 -0.26894314147E+02 -0.71569814531E+01  0.28541541196E+02  0.00000000000E+00 0. -1.
</event>
<event>
 6    1  0.6981059E-006  0.1238551E+03  0.7561462E-02  0.1236870E+00
         -4   -1    0    0    0  501 -0.00000000000E+00  0.00000000000E+00  0.43103526318E+02  0.43103526318E+02  0.00000000000E+00 0.  1.
          4   -1    0    0  501    0  0.00000000000E+00 -0.00000000000E+00 -0.39752612869E+03  0.39752612869E+03  0.00000000000E+00 0. -1.
          5    1    1    2  502    0  0.23852545651E+02  0.48343416684E+02 -0.36942429931E+02  0.65484695921E+02  0.41800000000E+01 0.  1.
         -5    1    1    2    0  502 -0.81763154638E+02 -0.19588715145E+02 -0.10315795731E+03  0.13314641480E+03  0.41800000000E+01 0.  1.
        -11    1    1    2    0    0 -0.20954559591E+02 -0.21880062824E+02 -0.37095501805E+02  0.47894748888E+02  0.00000000000E+00 0.  1.
         11    1    1    2    0    0  0.78865168579E+02 -0.68746387148E+01 -0.17722671333E+03  0.19410379540E+03  0.00000000000E+00 0. -1.
</event>
<event>
 6    1  0.6981059E-006  0.5255072E+02  0.7561462E-02  0.1432050E+00
         -2   -1    0    0    0  501 -0.00000000000E+00  0.00000000000E+00  0.19355148680E+03  0.19355148680E+03  0.00000000000E+00 0.  1.
          2   -1    0    0  501    0  0.00000000000E+00 -0.00000000000E+00 -0.63101901053E+02  0.63101901053E+02  0.00000000000E+00 0. -1.
          5    1    1    2  502    0  0.71447555411E+01  0.39027218171E+02 -0.37558864584E+02  0.54793357250E+02  0.41800000000E+01 0. -1.
         -5    1    1    2    0  502  0.18321850898E+02 -0.27679576205E+02  0.16644650788E+03  0.16977562117E+03  0.41800000000E+01 0.  1.
        -11    1    1    2    0    0 -0.81496266811E+01 -0.11901014270E+02  0.28794763394E+01  0.14708566880E+02  0.00000000000E+00 0.  1.
         11    1    1    2    0    0 -0.17316979758E+02  0.55337230374E+00 -0.13175338871E+01  0.17375842552E+02  0.00000000000E+00 0. -1.
</event>
<event>
 6    1  0.6981059E-006  0.2607056E+03  0.7561462E-02  0.1106720E+00
          2   -1    0    0  501    0  0.00000000000E+00  0.00000000000E+00  0.33890511176E+03  0.33890511176E+03  0.00000000000E+00 0. -1.
         -2   -1    0    0    0  501 -0.00000000000E+00 -0.00000000000E+00 -0.22748059606E+03  0.22748059606E+03  0.00000000000E+00 0.  1.
          5    1    1    2  502    0 -0.49639399288E+02  0.12673200669E+03 -0.18971723121E+02  0.13748625444E+03  0.41800000000E+01 0.  1.
         -5    1    1    2    0  502  0.23018708744E+02  0.12707273288E+03  0.83856021119E+02  0.15403455805E+03  0.41800000000E+01 0.  1.
        -11    1    1    2    0    0  0.85123676385E+01 -0.17358799616E+03  0.72960087414E+02  0.18848985959E+03  0.00000000000E+00 0. -1.
         11    1    1    2    0    0  0.18108322906E+02 -0.80216743418E+02 -0.26419869714E+02  0.86375035739E+02  0.00000000000E+00 0.  1.
</event>
<event>
 6    1  0.9988771E-006  0.1855342E+03  0.7561462E-02  0.1162552E+00
          1   -1    0    0  501    0  0.00000000000E+00  0.00000000000E+00  0.61533715396E+03  0.61533715396E+03  0.00000000000E+00 0. -1.
         -1   -1    0    0    0  501 -0.00000000000E+00 -0.00000000000E+00 -0.72088161443E+02  0.72088161443E+02  0.00000000000E+00 0.  1.
          5    1    1    2  502    0 -0.44212530641E+02  0.46877104597E+02  0.43994438026E+02  0.78135739443E+02  0.41800000000E+01 0.  1.
         -5    1    1    2    0  502  0.87753144020E+02  0.10571648040E+03  0.99898167903E+02  0.16992264377E+03  0.41800000000E+01 0.  1.
        -11    1    1    2    0    0  0.12439868451E+02 -0.56283684515E+02  0.64678907174E+02  0.86636969608E+02  0.00000000000E+00 0.  1.
         11    1    1    2    0    0 -0.55980481831E+02 -0.96309900487E+02  0.33467747941E+03  0.35272996259E+03  0.00000000000E+00 0. -1.
</event>
<event>
 6    1  0.6981059E-006  0.1237929E+03  0.7561462E-02  0.1236968E+00
         -1   -1    0    0    0  501 -0.00000000000E+00  0.00000000000E+00  0.11436263284E+02  0.11436263284E+02  0.00000000000E+00 0.  1.
          1   -1    0    0  501    0  0.00000000000E+00 -0.00000000000E+00 -0.14011063674E+04  0.14011063674E+04  0.00000000000E+00 0. -1.
          5    1    1    2  502    0  0.74969490430E+02 -0.10168700944E+02 -0.51567161532E+03  0.52120870505E+03  0.41800000000E+01 0.  1.
         -5    1    1    2    0  502 -0.27576781601E+02  0.57769324236E+02 -0.30778482359E+03  0.31439901994E+03  0.41800000000E+01 0.  1.
        -11    1    1    2    0    0  0.22697650073E+02 -0.25575415750E+02 -0.12263704502E+03  0.12731508167E+03  0.00000000000E+00 0. -1.
         11    1    1    2    0    0 -0.70090358902E+02 -0.22025207542E+02 -0.44357662016E+03  0.44961982400E+03  0.00000000000E+00 0.  1.
</event>
<event>
 6    1  0.6981059E-006  0.9774642E+02  0.7561462E-02  0.1285108E+00
          1   -1    0    0  501    0  0.00000000000E+00  0.00000000000E+00  0.51330744450E+03  0.51330744450E+03  0.00000000000E+00 0. -1.
         -1   -1    0    0    0  501 -0.00000000000E+00 -0.00000000000E+00 -0.20962267400E+02  0.20962267400E+02  0.00000000000E+00 0.  1.
          5    1    1    2  502    0  0.41480081612E+02  0.36001076989E+02  0.10238952944E+03  0.11626591441E+03  0.41800000000E+01 0. -1.
         -5    1    1    2    0  502 -0.35351637619E+02 -0.44248648094E+02  0.94560385998E+02  0.11030330974E+03  0.41800000000E+01 0.  1.
        -11    1    1    2    0    0  0.35009210528E+02  0.20658914339E+02  0.18081708524E+03  0.18533012134E+03  0.00000000000E+00 0. -1.
         11    1    1    2    0    0 -0.41137654521E+02 -0.12411343234E+02  0.11457817643E+03  0.12237036641E+03  0.00000000000E+00 0.  1.
</event>
<event>
 6    1  0.6981059E-006  0.1029859E+03  0.7561462E-02  0.1274139E+00
         -2   -1    0    0    0  501 -0.00000000000E+00  0.00000000000E+00  0.81738162043E+02  0.81738162043E+02  0.00000000000E+00 0.  1.
          2   -1    0    0  501    0  0.00000000000E+00 -0.00000000000E+00 -0.14706425288E+03  0.14706425288E+03  0.00000000000E+00 0. -1.
          5    1    1    2  502    0  0.37205114364E+02  0.38898527949E+02  0.14706300911E+02  0.55955908516E+02  0.41800000000E+01 0.  1.
         -5    1    1    2    0  502 -0.35483898428E+02 -0.48113950501E+02 -0.39876496889E+02  0.71983794597E+02  0.41800000000E+01 0.  1.
        -11    1    1    2    0    0 -0.28544941238E+02  0.41318057961E+02 -0.16827270902E+02  0.52963691619E+02  0.00000000000E+00 0.  1.
         11    1    1    2    0    0  0.26823725302E+02 -0.32102635409E+02 -0.23328623954E+02  0.47899020187E+02  0.00000000000E+00 0. -1.
</event>
<event>
 6    1  0.1434156E-005  0.2567741E+03  0.7561462E-02  0.1109097E+00
         -1   -1    0    0    0  501 -0.00000000000E+00  0.00000000000E+00  0.97394454682E+03  0.97394454682E+03  0.00000000000E+00 0.  1.
          1   -1    0    0  501    0  0.00000000000E+00 -0.00000000000E+00 -0.99167860798E+02  0.99167860798E+02  0.00000000000E+00 0. -1.
          5    1    1    2  502    0  0.62819058212E+01 -0.39672817029E+01  0.13189728039E+03  0.13217248821E+03  0.41800000000E+01 0.  1.
         -5    1    1    2    0  502 -0.19052753858E+03 -0.16684360972E+03  0.56900357235E+03  0.62283229750E+03  0.41800000000E+01 0.  1.
        -11    1    1    2    0    0  0.11600595849E+03  0.97038078944E+02  0.51525908124E+02  0.15977700203E+03  0.00000000000E+00 0. -1.
         11    1    1    2    0    0  0.68239674265E+02  0.73772812476E+02  0.12234992516E+03  0.15833061988E+03  0.00000000000E+00 0.  1.
</event>
<event>
 6    1  0.6981059E-006  0.1166214E+03  0.7561462E-02  0.1248777E+00
         -2   -1    0    0    0  501 -0.00000000000E+00  0.00000000000E+00  0.25545739610E+03  0.25545739610E+03  0.00000000000E+00 0.  1.
          2   -1    0    0  501    0  0.00000000000E+00 -0.00000000000E+00 -0.78655491571E+02  0.78655491571E+02  0.00000000000E+00 0. -1.
          5    1    1    2  502    0 -0.48408022362E+02  0.81003204724E+02  0.12095342193E+03  0.15346679928E+03  0.41800000000E+01 0. -1.
         -5    1    1    2    0  502 -0.29970508103E+02 -0.39090737189E+02  0.15291235078E+02  0.51745640977E+02  0.41800000000E+01 0. -1.
        -11    1    1    2    0    0  0.35812227962E+02 -0.24331671328E+02  0.63964027955E+02  0.77239515621E+02  0.00000000000E+00 0.  1.
         11    1    1    2    0    0  0.42566302504E+02 -0.17580796207E+02 -0.23406780428E+02  0.51660931797E+02  0.00000000000E+00 0. -1.
</event>
<event>
 6    1  0.6981059E-006  0.1020940E+03  0.7561462E-02  0.1275953E+00
         -1   -1    0    0    0  501 -0.00000000000E+00  0.00000000000E+00  0.64461882436E+03  0.64461882436E+03  0.00000000000E+00 0.  1.
          1   -1    0    0  501    0  0.00000000000E+00 -0.00000000000E+00 -0.20492089309E+02  0.20492089309E+02  0.00000000000E+00 0. -1.
          5    1    1    2  502    0  0.55504478955E+02 -0.37393831319E+02  0.15330336393E+03  0.16732734265E+03  0.41800000000E+01 0.  1.
         -5    1    1    2    0  502 -0.43921539681E+02  0.13928798978E+02  0.30387484219E+03  0.30737681306E+03  0.41800000000E+01 0.  1.
        -11    1    1    2    0    0  0.20756769993E+02 -0.25067143223E+02  0.71370131037E+02  0.78440428187E+02  0.00000000000E+00 0.  1.
         11    1    1    2    0    0 -0.32339709266E+02  0.48532175564E+02  0.95578397891E+02  0.11196632978E+03  0.00000000000E+00 0. -1.
</event>
<event>
 6    1  0.6981059E-006  0.1463017E+03  0.7561462E-02  0.1205092E+00
         -2   -1    0    0    0  501 -0.00000000000E+00  0.00000000000E+00  0.57697407407E+02  0.57697407407E+02  0.00000000000E+00 0. -1.
          2   -1    0    0  501    0  0.00000000000E+00 -0.00000000000E+00 -0.43885925872E+03  0.43885925872E+03  0.00000000000E+00 0.  1.
          5    1    1    2  502    0 -0.54384657068E+02 -0.23140914946E+02 -0.41682642473E+02  0.72443826186E+02  0.41800000000E+01 0.  1.
         -5    1    1    2    0  502 -0.30591131477E+02  0.10250297432E+03 -0.15004307066E+03  0.18431785731E+03  0.41800000000E+01 0.  1.
        -11    1    1    2    0    0  0.29641601489E+02 -0.61304327522E+02 -0.38956343289E+02  0.78450250441E+02  0.00000000000E+00 0. -1.
         11    1    1    2    0    0  0.55334187056E+02 -0.18057731848E+02 -0.15047979489E+03  0.16134473220E+03  0.00000000000E+00 0.  1.
</event>
<event>
 6    1  0.6981059E-006  0.1489765E+03  0.7561462E-02  0.1201736E+00
         -1   -1    0    0    0  501 -0.00000000000E+00  0.00000000000E+00  0.66443339419E+03  0.66443339419E+03  0.00000000000E+00 0.  1.
          1   -1    0    0  501    0  0.00000000000E+00 -0.00000000000E+00 -0.35607467986E+02  0.35607467986E+02  0.00000000000E+00 0. -1.
          5    1    1    2  502    0  0.12163786972E+03  0.29058983827E+02  0.22564106775E+03  0.25801465025E+03  0.41800000000E+01 0. -1.
         -5    1    1    2    0  502 -0.12739496162E+02 -0.37428246977E+02  0.97607613255E+02  0.10539396093E+03  0.41800000000E+01 0. -1.
        -11    1    1    2    0    0 -0.26241530836E+02 -0.31746405871E+02  0.15373577814E+03  0.15915760021E+03  0.00000000000E+00 0.  1.
         11    1    1    2    0    0 -0.82656842725E+02  0.40115669020E+02  0.15184146707E+03  0.17747465079E+03  0.00000000000E+00 0. -1.
</event>
<event>
 6    1  0.6981059E-006  0.1217115E+03  0.7561462E-02  0.1240300E+00
          1   -1    0    0  501    0  0.00000000000E+00  0.00000000000E+00  0.18841147218E+03  0.18841147218E+03  0.00000000000E+00 0. -1.
         -1   -1    0    0    0  501 -0.00000000000E+00 -0.00000000000E+00 -0.10960451520E+03  0.10960451520E+03  0.00000000000E+00 0.  1.
          5    1    1    2  502    0  0.54019415735E+01 -0.29752066787E+02  0.18967410888E+02  0.35938858171E+02  0.41800000000E+01 0.  1.
         -5    1    1    2    0  502 -0.52543578892E+02  0.10858055251E+03  0.26571310104E+01  0.12072736563E+03  0.41800000000E+01 0.  1.
        -11    1    1    2    0    0  0.79425118063E+01 -0.19869752489E+02  0.66574636985E+02  0.69929055817E+02  0.00000000000E+00 0. -1.
         11    1    1    2    0    0  0.39199125513E+02 -0.58958733232E+02 -0.93922219092E+01  0.71420707765E+02  0.00000000000E+00 0.  1.
</event>
<event>
 6    1  0.6981059E-006  0.2067013E+03  0.7561462E-02  0.1144205E+00
          3   -1    0    0  501    0  0.00000000000E+00  0.00000000000E+00  0.66465941095E+03  0.66465941095E+03  0.00000000000E+00 0. -1.
         -3   -1    0    0    0  501 -0.00000000000E+00 -0.00000000000E+00 -0.10175758657E+03  0.10175758657E+03  0.00000000000E+00 0.  1.
          5    1    1    2  502    0  0.12747295004E+03  0.10471809845E+03  0.12536290069E+03  0.20724034936E+03  0.41800000000E+01 0.  1.
         -5    1    1    2    0  502  0.42509528134E+02 -0.16374005553E+01 -0.23496304717E+02  0.48777964268E+02  0.41800000000E+01 0.  1.
        -11    1    1    2    0    0 -0.10055031705E+03 -0.90070278498E+02  0.21026430730E+03  0.24986816574E+03  0.00000000000E+00 0.  1.
         11    1    1    2    0    0 -0.69432161118E+02 -0.13010419397E+02  0.25077092112E+03  0.26053051815E+03  0.00000000000E+00 0. -1.
</event>
<event>
 6    1  0.6981059E-006  0.6028355E+02  0.7561462E-02  0.1396646E+00
          3   -1    0    0  501    0  0.00000000000E+00  0.00000000000E+00  0.48077047230E+02  0.48077047230E+02  0.00000000000E+00 0. -1.
         -3   -1    0    0    0  501 -0.00000000000E+00 -0.00000000000E+00 -0.28031732140E+03  0.28031732140E+03  0.00000000000E+00 0.  1.
          5    1    1    2  502    0  0.24367195239E+02 -0.40328876200E+02  0.67331102958E+01  0.47780598925E+02  0.41800000000E+01 0. -1.
         -5    1    1    2    0  502  0.71106282271E+01  0.14202012681E+02 -0.13499646218E+03  0.13599182107E+03  0.41800000000E+01 0. -1.
        -11    1    1    2    0    0  0.48585700052E+01  0.19256027103E+02 -0.10575054060E+03  0.10759915018E+03  0.00000000000E+00 0.  1.
         11    1    1    2    0    0 -0.36336393471E+02  0.68708364153E+01  0.17736183099E+01  0.37022798455E+02  0.00000000000E+00 0. -1.
</event>
<event>
 6    1  0.6981059E-006  0.1030996E+03  0.7561462E-02  0.1273910E+00
         -4   -1    0    0    0  501 -0.00000000000E+00  0.00000000000E+00  0.50196052178E+02  0.50196052178E+02  0.00000000000E+00 0.  1.
          4   -1    0    0  501    0  0.00000000000E+00 -0.00000000000E+00 -0.28248742844E+03  0.28248742844E+03  0.00000000000E+00 0. -1.
          5    1    1    2  502    0  0.20772586914E+02 -0.26813294423E+02 -0.90133989410E+02  0.96395339990E+02  0.41800000000E+01 0. -1.
         -5    1    1    2    0  502 -0.67652943473E+02  0.21806322112E+02 -0.12912065058E+02  0.72364565007E+02  0.41800000000E+01 0. -1.
        -11    1    1    2    0    0  0.39752659572E+02 -0.39326425221E+02 -0.72745927113E+02  0.91754082064E+02  0.00000000000E+00 0. -1.
         11    1    1    2    0    0  0.71276969874E+01  0.44333397532E+02 -0.56499394681E+02  0.72169493558E+02  0.00000000000E+00 0.  1.
</event>
<event>
 6    1  0.6981059E-006  0.2519919E+03  0.7561462E-02  0.1112052E+00
         -4   -1    0    0    0  501 -0.00000000000E+00  0.00000000000E+00  0.20865869828E+04  0.20865869828E+04  0.00000000000E+00 0.  1.
          4   -1    0    0  501    0  0.00000000000E+00 -0.00000000000E+00 -0.34071144235E+02  0.34071144235E+02  0.00000000000E+00 0. -1.
          5    1    1    2  502    0 -0.11078826155E+03 -0.33501952007E+02  0.43014679893E+03  0.44546622848E+03  0.41800000000E+01 0.  1.
         -5    1    1    2    0  502 -0.12168492153E+03  0.85428093972E+02  0.80804378705E+03  0.82161877630E+03  0.41800000000E+01 0.  1.
        -11    1    1    2    0    0  0.13980666701E+03 -0.19027752644E+02  0.61918425604E+03  0.63505677104E+03  0.00000000000E+00 0.  1.
         11    1    1    2    0    0  0.92666516076E+02 -0.32898389321E+02  0.19514099657E+03  0.21851635125E+03  0.00000000000E+00 0. -1.
</event>
<event>
 6    1  0.6981059E-006  0.1495460E+03  0.7561462E-02  0.1201032E+00
         -1   -1    0    0    0  501 -0.00000000000E+00  0.00000000000E+00  0.13550527340E+03  0.13550527340E+03  0.00000000000E+00 0.  1.
          1   -1    0    0  501    0  0.00000000000E+00 -0.00000000000E+00 -0.23461779416E+03  0.23461779416E+03  0.00000000000E+00 0. -1.
          5    1    1    2  502    0  0.30713259227E+02  0.33069018844E+02  0.53563384700E+02  0.70166750532E+02  0.41800000000E+01 0. -1.
         -5    1    1    2    0  502  0.97390029215E+02 -0.17931090489E+02 -0.46852021100E+02  0.10963086280E+03  0.41800000000E+01 0. -1.
        -11    1    1    2    0    0 -0.11810812133E+03  0.18511050667E+02 -0.63594682938E+02  0.13541222625E+03  0.00000000000E+00 0. -1.
         11    1    1    2    0    0 -0.99951671144E+01 -0.33648979022E+02 -0.42229201423E+02  0.54913227985E+02  0.00000000000E+00 0.  1.
</event>
<event>
 6    1  0.6981059E-006  0.1070231E+03  0.7561462E-02  0.1266184E+00
          2   -1    0    0  501    0  0.00000000000E+00  0.00000000000E+00  0.68738033207E+02  0.68738033207E+02  0.00000000000E+00 0. -1.
         -2   -1    0    0    0  501 -0.00000000000E+00 -0.00000000000E+00 -0.24003554468E+03  0.24003554468E+03  0.00000000000E+00 0.  1.
          5    1    1    2  502    0  0.26619024596E+02  0.59717775251E+02 -0.11671535706E+03  0.13384592682E+03  0.41800000000E+01 0.  1.
         -5    1    1    2    0  502 -0.48633677136E+02 -0.34921118375E+02 -0.56991839085E+02  0.82766304633E+02  0.41800000000E+01 0.  1.
        -11    1    1    2    0    0  0.36222058887E+02 -0.48707271917E+02 -0.10325073558E+02  0.61571446561E+02  0.00000000000E+00 0.  1.
         11    1    1    2    0    0 -0.14207406347E+02  0.23910615042E+02  0.12734758237E+02  0.30589899871E+02  0.00000000000E+00 0. -1.
</event>
<event>
 6    1  0.6981059E-006  0.1350948E+03  0.7561462E-02  0.1220086E+00
         -2   -1    0    0    0  501 -0.00000000000E+00  0.00000000000E+00  0.51867930317E+02  0.51867930317E+02  0.00000000000E+00 0.  1.
          2   -1    0    0  501    0  0.00000000000E+00 -0.00000000000E+00 -0.47903173466E+03  0.47903173466E+03  0.00000000000E+00 0. -1.
          5    1    1    2  502    0  0.18034482394E+02 -0.30165006442E+02 -0.10431892561E+02  0.36898061619E+02  0.41800000000E+01 0. -1.
         -5    1    1    2    0  502 -0.20028158913E+01  0.11272818545E+03 -0.88618056643E+02  0.14346528301E+03  0.41800000000E+01 0. -1.
        -11    1    1    2    0    0 -0.51555413222E+02 -0.33817388293E+02 -0.19199636949E+03  0.20165361956E+03  0.00000000000E+00 0. -1.
         11    1    1    2    0    0  0.35523746719E+02 -0.48745790719E+02 -0.13611748565E+03  0.14888270078E+03  0.00000000000E+00 0.  1.
</event>
<event>
 6    1  0.6981059E-006  0.1278374E+03  0.7561462E-02  0.1230700E+00
          2   -1    0    0  501    0  0.00000000000E+00  0.00000000000E+00  0.39142251940E+03  0.39142251940E+03  0.00000000000E+00 0. -1.
         -2   -1    0    0    0  501 -0.00000000000E+00 -0.00000000000E+00 -0.47124199890E+02  0.47124199890E+02  0.00000000000E+00 0.  1.
          5    1    1    2  502    0  0.29332226279E+02 -0.24953259857E+02  0.12067319391E+02  0.40572617284E+02  0.41800000000E+01 0.  1.
         -5    1    1    2    0  502 -0.17560981098E+02  0.95629453949E+02  0.12430602763E+03  0.15786969762E+03  0.41800000000E+01 0.  1.
        -11    1    1    2    0    0 -0.53450702598E+02 -0.49582311370E+02  0.11639705270E+03  0.13734502935E+03  0.00000000000E+00 0.  1.
         11    1    1    2    0    0  0.41679457417E+02 -0.21093882721E+02  0.91527919791E+02  0.10275937505E+03  0.00000000000E+00 0. -1.
</event>
<event>
 6    1  0.6981059E-006  0.1618667E+03  0.7561462E-02  0.1186605E+00
         -1   -1    0    0    0  501 -0.00000000000E+00  0.00000000000E+00  0.41955384140E+02  0.41955384140E+02  0.00000000000E+00 0.  1.
          1   -1    0    0  501    0  0.00000000000E+00 -0.00000000000E+00 -0.67090562582E+03  0.67090562582E+03  0.00000000000E+00 0. -1.
          5    1    1    2  502    0  0.72348375544E+02  0.63719813081E+02 -0.21634088184E+03  0.23688679063E+03  0.41800000000E+01 0.  1.
         -5    1    1    2    0  502 -0.49872705371E+02  0.61824585068E+02 -0.12030687688E+03  0.14422476585E+03  0.41800000000E+01 0.  1.
        -11    1    1    2    0    0 -0.49392865343E+02 -0.66830221376E+02 -0.21797471271E+03  0.23327860814E+03  0.00000000000E+00 0.  1.
         11    1    1    2    0    0  0.26917195171E+02 -0.58714176772E+02 -0.74327770255E+02  0.98470845335E+02  0.00000000000E+00 0. -1.
</event>
<event>
 6    1  0.6981059E-006  0.1418158E+03  0.7561462E-02  0.1210906E+00
         -2   -1    0    0    0  501 -0.00000000000E+00  0.00000000000E+00  0.60334859024E+02  0.60334859024E+02  0.00000000000E+00 0. -1.
          2   -1    0    0  501    0  0.00000000000E+00 -0.00000000000E+00 -0.44124952769E+03  0.44124952769E+03  0.00000000000E+00 0.  1.
          5    1    1    2  502    0 -0.39292009846E+02  0.26064205969E+02 -0.10878305001E+03  0.11863569969E+03  0.41800000000E+01 0.  1.
         -5    1    1    2    0  502  0.32727116937E+02  0.85456986021E+02 -0.22435488570E+02  0.94312163533E+02  0.41800000000E+01 0.  1.
        -11    1    1    2    0    0  0.20547773634E+02  0.96603605689E+01 -0.43093343589E+02  0.48709032318E+02  0.00000000000E+00 0.  1.
         11    1    1    2    0    0 -0.13982880725E+02 -0.12118155256E+03 -0.20660278649E+03  0.23992749117E+03  0.00000000000E+00 0. -1.
</event>
<event>
 6    1  0.6981059E-006  0.1858868E+03  0.7561462E-02  0.1162224E+00
         -2   -1    0    0    0  501 -0.00000000000E+00  0.00000000000E+00  0.12016662748E+04  0.12016662748E+04  0.00000000000E+00 0.  1.
          2   -1    0    0  501    0  0.00000000000E+00 -0.00000000000E+00 -0.33082163582E+02  0.33082163582E+02  0.00000000000E+00 0. -1.
          5    1    1    2  502    0  0.24453870313E+01 -0.57534984676E+02  0.14087911928E+03  0.15225193932E+03  0.41800000000E+01 0. -1.
         -5    1    1    2    0  502 -0.13813375421E+03 -0.32250959949E+02  0.59728685205E+03  0.61391376797E+03  0.41800000000E+01 0. -1.
        -11    1    1    2    0    0  0.46377520765E+02  0.12904372998E+01  0.51338752727E+02  0.69196872706E+02  0.00000000000E+00 0. -1.
         11    1    1    2    0    0  0.89310846414E+02  0.88495507326E+02  0.37907938716E+03  0.39938585838E+03  0.00000000000E+00 0.  1.
</event>
<event>
 6    1  0.6981059E-006  0.1376455E+03  0.7561462E-02  0.1216533E+00
          2   -1    0    0  501    0  0.00000000000E+00  0.00000000000E+00  0.18114888160E+03  0.18114888160E+03  0.00000000000E+00 0. -1.
         -2   -1    0    0    0  501 -0.00000000000E+00 -0.00000000000E+00 -0.13236156041E+03  0.13236156041E+03  0.00000000000E+00 0.  1.
          5    1    1    2  502    0 -0.30998176428E+02 -0.12244422356E+03  0.41745773281E+02  0.13309266250E+03  0.41800000000E+01 0.  1.
         -5    1    1    2    0  502 -0.42838185796E+01  0.18892338172E+02 -0.27274041214E+02  0.33713754869E+02  0.41800000000E+01 0.  1.
        -11    1    1    2    0    0 -0.19015870976E+01  0.89230652923E+02  0.51796393974E+02  0.10319201463E+03  0.00000000000E+00 0. -1.
         11    1    1    2    0    0  0.37183582105E+02  0.14321232460E+02 -0.17480804846E+02  0.43512010013E+02  0.00000000000E+00 0.  1.
</event>
<event>
 6    1  0.6981059E-006  0.1820088E+03  0.7561462E-02  0.1165873E+00
          2   -1    0    0  501    0  0.00000000000E+00  0.00000000000E+00  0.48615878906E+03  0.48615878906E+03  0.00000000000E+00 0. -1.
         -2   -1    0    0    0  501 -0.00000000000E+00 -0.00000000000E+00 -0.72053493826E+02  0.72053493826E+02  0.00000000000E+00 0.  1.
          5    1    1    2  502    0  0.13650187560E+03  0.50355484539E+02  0.12274683553E+03  0.19040140466E+03  0.41800000000E+01 0.  1.
         -5    1    1    2    0  502  0.14664077068E+02 -0.38260663797E+02  0.91663451988E+02  0.10049166324E+03  0.41800000000E+01 0.  1.
        -11    1    1    2    0    0 -0.14341356896E+03  0.19510212319E+02  0.16997879738E+03  0.22325073730E+03  0.00000000000E+00 0. -1.
         11    1    1    2    0    0 -0.77523837087E+01 -0.31605033061E+02  0.29716210339E+02  0.44068477678E+02  0.00000000000E+00 0.  1.
</event>
<event>
 6    1  0.6981059E-006  0.1240318E+03  0.7561462E-02  0.1236590E+00
         -1   -1    0    0    0  501 -0.00000000000E+00  0.00000000000E+00  0.30956624583E+02  0.30956624583E+02  0.00000000000E+00 0.  1.
          1   -1    0    0  501    0  0.00000000000E+00 -0.00000000000E+00 -0.57584507349E+03  0.57584507349E+03  0.00000000000E+00 0. -1.
          5    1    1    2  502    0  0.40136929430E+02 -0.29222722425E+02 -0.57580122383E+02  0.76143834312E+02  0.41800000000E+01 0. -1.
         -5    1    1    2    0  502 -0.59644605449E+02  0.75391187953E+02 -0.14963098357E+03  0.17789944863E+03  0.41800000000E+01 0.  1.
        -11    1    1    2    0    0 -0.96507197095E+01  0.24088469450E+02 -0.89303318517E+02  0.92997169040E+02  0.00000000000E+00 0.  1.
         11    1    1    2    0    0  0.29158395728E+02 -0.70256934977E+02 -0.24837402444E+03  0.25976124609E+03  0.00000000000E+00 0. -1.
</event>
<event>
 6    1  0.6981059E-006  0.1080066E+03  0.7561462E-02  0.1264307E+00
         -1   -1    0    0    0  501 -0.00000000000E+00  0.00000000000E+00  0.22000090979E+02  0.22000090979E+02  0.00000000000E+00 0.  1.
          1   -1    0    0  501    0  0.00000000000E+00 -0.00000000000E+00 -0.68637071539E+03  0.68637071539E+03  0.00000000000E+00 0. -1.
          5    1    1    2  502    0 -0.79388071341E+02 -0.24085687621E+02 -0.11795307229E+03  0.14426706444E+03  0.41800000000E+01 0.  1.
         -5    1    1    2    0  502  0.28771656980E+02  0.12925675079E+02 -0.18306342215E+03  0.18580788533E+03  0.41800000000E+01 0.  1.
        -11    1    1    2    0    0  0.15095471311E+02 -0.37764401266E+02 -0.97280518684E+02  0.10543966318E+03  0.00000000000E+00 0.  1.
         11    1    1    2    0    0  0.35520943050E+02  0.48924413808E+02 -0.26607361128E+03  0.27285619341E+03  0.00000000000E+00 0. -1.
</event>
<event>
 6    1  0.6981059E-006  0.1118454E+03  0.7561462E-02  0.1257190E+00
         -1   -1    0    0    0  501 -0.00000000000E+00  0.00000000000E+00  0.19849755588E+02  0.19849755588E+02  0.00000000000E+00 0.  1.
          1   -1    0    0  501    0  0.00000000000E+00 -0.00000000000E+00 -0.73789470118E+03  0.73789470118E+03  0.00000000000E+00 0. -1.
          5    1    1    2  502    0  0.60858159709E+02  0.48184154929E+02 -0.25253933627E+03  0.26423288431E+03  0.41800000000E+01 0.  1.
         -5    1    1    2    0  502 -0.43282823911E+02 -0.85321773576E+01 -0.55261334241E+02  0.70834231543E+02  0.41800000000E+01 0.  1.
        -11    1    1    2    0    0  0.33680333142E+02  0.45148391408E+01 -0.12756099900E+03  0.13200968555E+03  0.00000000000E+00 0. -1.
         11    1    1    2    0    0 -0.51255668940E+02 -0.44166816712E+02 -0.28268327608E+03  0.29066765536E+03  0.00000000000E+00 0.  1.
</event>
<event>
 6    1  0.6981059E-006  0.1562261E+03  0.7561462E-02  0.1193025E+00
         -3   -1    0    0    0  501 -0.00000000000E+00  0.00000000000E+00  0.32315099320E+03  0.32315099320E+03  0.00000000000E+00 0.  1.
          3   -1    0    0  501    0  0.00000000000E+00 -0.00000000000E+00 -0.79813324801E+02  0.79813324801E+02  0.00000000000E+00 0. -1.
          5    1    1    2  502    0  0.16056714331E+02  0.24539031717E+02  0.55650010132E+02  0.63042669522E+02  0.41800000000E+01 0.  1.
         -5    1    1    2    0  502  0.42163629205E+02 -0.12639100815E+03  0.78607945222E+02  0.15475509691E+03  0.41800000000E+01 0.  1.
        -11    1    1    2    0    0 -0.82350829388E+02  0.62568885139E+02  0.78554975532E+02  0.12987458824E+03  0.00000000000E+00 0.  1.
         11    1    1    2    0    0  0.24130485852E+02  0.39283091292E+02  0.30524737516E+02  0.55291963334E+02  0.00000000000E+00 0. -1.
</event>
<event>
 6    1  0.6981059E-006  0.1060817E+03  0.7561462E-02  0.1268003E+00
          1   -1    0    0  501    0  0.00000000000E+00  0.00000000000E+00  0.10186908833E+03  0.10186908833E+03  0.00000000000E+00 0. -1.
         -1   -1    0    0    0  501 -0.00000000000E+00 -0.00000000000E+00 -0.19750806403E+03  0.19750806403E+03  0.00000000000E+00 0.  1.
          5    1    1    2  502    0 -0.30818298394E+02 -0.88563190542E+02 -0.94033192353E+02  0.13286429129E+03  0.41800000000E+01 0. -1.
         -5    1    1    2    0  502  0.56060296222E+01  0.22095272821E+01  0.32298334548E+02  0.33120452797E+02  0.41800000000E+01 0. -1.
        -11    1    1    2    0    0  0.27665652685E+02  0.32854091992E+01 -0.41453517841E+02  0.49945734488E+02  0.00000000000E+00 0.  1.
         11    1    1    2    0    0 -0.24533839130E+01  0.83068254061E+02  0.75493999479E+01  0.83446673780E+02  0.00000000000E+00 0. -1.
</event>
<event>
 6    1  0.6981059E-006  0.1281784E+03  0.7561462E-02  0.1230184E+00
          2   -1    0    0  501    0  0.00000000000E+00  0.00000000000E+00  0.66734195237E+02  0.66734195237E+02  0.00000000000E+00 0.  1.
         -2   -1    0    0    0  501 -0.00000000000E+00 -0.00000000000E+00 -0.24717732598E+03  0.24717732598E+03  0.00000000000E+00 0. -1.
          5    1    1    2  502    0  0.88171769818E+02 -0.50216451613E+02 -0.66503461946E+02  0.12139248682E+03  0.41800000000E+01 0. -1.
         -5    1    1    2    0  502 -0.40662575665E+02  0.48130465005E-01 -0.36118435647E+02  0.54547787946E+02  0.41800000000E+01 0. -1.
        -11    1    1    2    0    0  0.27347044999E+02  0.15446781529E+02 -0.20907233947E+02  0.37730310906E+02  0.00000000000E+00 0.  1.
         11    1    1    2    0    0 -0.74856239153E+02  0.34721539619E+02 -0.56913999204E+02  0.10024093555E+03  0.00000000000E+00 0. -1.
</event>
<event>
 6    1  0.6981059E-006  0.1027793E+03  0.7561462E-02  0.1274558E+00
          4   -1    0    0  501    0  0.00000000000E+00  0.00000000000E+00  0.25139556243E+02  0.25139556243E+02  0.00000000000E+00 0. -1.
         -4   -1    0    0    0  501 -0.00000000000E+00 -0.00000000000E+00 -0.53411107209E+03  0.53411107209E+03  0.00000000000E+00 0.  1.
          5    1    1    2  502    0 -0.67591130395E+02  0.66436895654E+00 -0.29610794870E+03  0.30375383450E+03  0.41800000000E+01 0. -1.
         -5    1    1    2    0  502  0.46171721668E+02  0.95665255288E+01 -0.76021218796E+02  0.89554700601E+02  0.41800000000E+01 0. -1.
        -11    1    1    2    0    0  0.37094681839E+02  0.29751943208E+02 -0.49655757422E+02  0.68752365709E+02  0.00000000000E+00 0.  1.
         11    1    1    2    0    0 -0.15675273112E+02 -0.39982837694E+02 -0.87186590931E+02  0.97189727519E+02  0.00000000000E+00 0. -1.
</event>
<event>
 6    1  0.6981059E-006  0.1298443E+03  0.7561462E-02  0.1227687E+00
          4   -1    0    0  501    0  0.00000000000E+00  0.00000000000E+00  0.36744343973E+03  0.36744343973E+03  0.00000000000E+00 0. -1.
         -4   -1    0    0    0  501 -0.00000000000E+00 -0.00000000000E+00 -0.68816615859E+02  0.68816615859E+02  0.00000000000E+00 0.  1.
          5    1    1    2  502    0 -0.77601383849E+02  0.67975277768E+02  0.16693115155E+03  0.19628065345E+03  0.41800000000E+01 0.  1.
         -5    1    1    2    0  502 -0.15489479876E+02 -0.84243854620E+00 -0.21790970391E+02  0.27073095134E+02  0.41800000000E+01 0.  1.
        -11    1    1    2    0    0  0.11157687384E+02 -0.56691971343E+02  0.32139541872E+02  0.66116743373E+02  0.00000000000E+00 0.  1.
         11    1    1    2    0    0  0.81933176341E+02 -0.10440867879E+02  0.12134710085E+03  0.14678956363E+03  0.00000000000E+00 0. -1.
</event>
<event>
 6    1  0.6981059E-006  0.8857492E+02  0.7561462E-02  0.1306340E+00
         -2   -1    0    0    0  501 -0.00000000000E+00  0.00000000000E+00  0.13294741099E+03  0.13294741099E+03  0.00000000000E+00 0. -1.
          2   -1    0    0  501    0  0.00000000000E+00 -0.00000000000E+00 -0.16289441405E+03  0.16289441405E+03  0.00000000000E+00 0.  1.
          5    1    1    2  502    0 -0.16704896135E+02 -0.29983665665E+02 -0.29193695691E+02  0.45252823444E+02  0.41800000000E+01 0.  1.
         -5    1    1    2    0  502  0.35404960682E+02 -0.16601739625E+02  0.99028272791E+02  0.10655139704E+03  0.41800000000E+01 0.  1.
        -11    1    1    2    0    0 -0.52982477164E+02  0.11546937771E+02 -0.60291096028E+02  0.81089400778E+02  0.00000000000E+00 0. -1.
         11    1    1    2    0    0  0.34282412617E+02  0.35038467519E+02 -0.39490484130E+02  0.62948203769E+02  0.00000000000E+00 0.  1.
</event>
<event>
 6    1  0.6981059E-006  0.1018528E+03  0.7561462E-02  0.1276447E+00
         -2   -1    0    0    0  501 -0.00000000000E+00  0.00000000000E+00  0.24021012823E+02  0.24021012823E+02  0.00000000000E+00 0.  1.
          2   -1    0    0  501    0  0.00000000000E+00 -0.00000000000E+00 -0.56554614922E+03  0.56554614922E+03  0.00000000000E+00 0. -1.
          5    1    1    2  502    0 -0.81578946166E+01  0.37385847557E+02 -0.27233241992E+02  0.47152674489E+02  0.41800000000E+01 0. -1.
         -5    1    1    2    0  502  0.94482424795E+01 -0.71186102436E+02 -0.22820340909E+03  0.23927180943E+03  0.41800000000E+01 0. -1.
        -11    1    1    2    0    0  0.40820473273E+02  0.30660813868E+02 -0.99472317179E+02  0.11180848997E+03  0.00000000000E+00 0.  1.
         11    1    1    2    0    0 -0.42110821135E+02  0.31394410105E+01 -0.18661616814E+03  0.19133418816E+03  0.00000000000E+00 0. -1.
</event>
<event>
 6    1  0.6981059E-006  0.1803422E+03  0.7561462E-02  0.1167472E+00
         -2   -1    0    0    0  501 -0.00000000000E+00  0.00000000000E+00  0.80600430163E+02  0.80600430163E+02  0.00000000000E+00 0.  1.
          2   -1    0    0  501    0  0.00000000000E+00 -0.00000000000E+00 -0.44496127933E+03  0.44496127933E+03  0.00000000000E+00 0. -1.
          5    1    1    2  502    0 -0.35703999457E+01  0.14668667154E+03 -0.15480768602E+03  0.21333686839E+03  0.41800000000E+01 0.  1.
         -5    1    1    2    0  502 -0.47271746039E+02 -0.29003718395E+00 -0.19437681227E+02  0.51283505600E+02  0.41800000000E+01 0.  1.
        -11    1    1    2    0    0  0.14893350747E+01 -0.95608146247E+02 -0.60240892257E+02  0.11301371973E+03  0.00000000000E+00 0. -1.
         11    1    1    2    0    0  0.49352810910E+02 -0.50788488104E+02 -0.12987458966E+03  0.14792761577E+03  0.00000000000E+00 0.  1.
</event>
<event>
 6    1  0.6981059E-006  0.9174590E+02  0.7561462E-02  0.1298678E+00
         -2   -1    0    0    0  501 -0.00000000000E+00  0.00000000000E+00  0.12771318575E+03  0.12771318575E+03  0.00000000000E+00 0.  1.
          2   -1    0    0  501    0  0.00000000000E+00 -0.00000000000E+00 -0.10563423297E+03  0.10563423297E+03  0.00000000000E+00 0. -1.
          5    1    1    2  502    0  0.45103851470E+02 -0.30774274394E+01  0.41014530235E+02  0.61184083449E+02  0.41800000000E+01 0.  1.
         -5    1    1    2    0  502 -0.61840333500E+02  0.41689334760E+02 -0.72299653194E+01  0.75046467463E+02  0.41800000000E+01 0.  1.
        -11    1    1    2    0    0 -0.53611393471E+01  0.92413610139E+01  0.28750795735E+02  0.30671694181E+02  0.00000000000E+00 0.  1.
         11    1    1    2    0    0  0.22097621377E+02 -0.47853268335E+02 -0.40456407867E+02  0.66445173627E+02  0.00000000000E+00 0. -1.
</event>
<event>
 6    1  0.6981059E-006  0.1013294E+03  0.7561462E-02  0.1277525E+00
         -3   -1    0    0    0  501 -0.00000000000E+00  0.00000000000E+00  0.13417301796E+02  0.13417301796E+02  0.00000000000E+00 0.  1.
          3   -1    0    0  501    0  0.00000000000E+00 -0.00000000000E+00 -0.12733089135E+04  0.12733089135E+04  0.00000000000E+00 0. -1.
          5    1    1    2  502    0 -0.20090197417E+02  0.96378125543E+01 -0.62580356505E+03  0.62621408311E+03  0.41800000000E+01 0. -1.
         -5    1    1    2    0  502 -0.38342739474E+02  0.45329450792E+02 -0.14791161600E+03  0.15943727082E+03  0.41800000000E+01 0.  1.
        -11    1    1    2    0    0  0.22377642686E+02  0.24514691956E+02 -0.10954978502E+03  0.11446783134E+03  0.00000000000E+00 0. -1.
         11    1    1    2    0    0  0.36055294205E+02 -0.79481955302E+02 -0.37662664568E+03  0.38660703006E+03  0.00000000000E+00 0.  1.
</event>
<event>
 6    1  0.6981059E-006  0.9008545E+02  0.7561462E-02  0.1302645E+00
          2   -1    0    0  501    0  0.00000000000E+00  0.00000000000E+00  0.37222839300E+03  0.37222839300E+03  0.00000000000E+00 0. -1.
         -2   -1    0    0    0  501 -0.00000000000E+00 -0.00000000000E+00 -0.51016107001E+02  0.51016107001E+02  0.00000000000E+00 0.  1.
          5    1    1    2  502    0  0.38053355347E+02 -0.66162228804E+02  0.87686962988E+02  0.11632701428E+03  0.41800000000E+01 0. -1.
         -5    1    1    2    0  502  0.60772132246E+01  0.39130978696E+02 -0.10542918220E+02  0.41192129575E+02  0.41800000000E+01 0.  1.
        -11    1    1    2    0    0 -0.49595357522E+02  0.16891630824E+02  0.24806165932E+03  0.25353424523E+03  0.00000000000E+00 0.  1.
         11    1    1    2    0    0  0.54647889502E+01  0.10139619284E+02 -0.39934180840E+01  0.12191110921E+02  0.00000000000E+00 0. -1.
</event>
<event>
 6    1  0.6981059E-006  0.1025989E+03  0.7561462E-02  0.1274924E+00
         -1   -1    0    0    0  501 -0.00000000000E+00  0.00000000000E+00  0.57658781791E+02  0.57658781791E+02  0.00000000000E+00 0.  1.
          1   -1    0    0  501    0  0.00000000000E+00 -0.00000000000E+00 -0.28803931804E+03  0.28803931804E+03  0.00000000000E+00 0. -1.
          5    1    1    2  502    0 -0.44306796164E+02 -0.55357016275E+02 -0.33042916904E+02  0.78337718850E+02  0.41800000000E+01 0. -1.
         -5    1    1    2    0  502  0.17505992017E+02  0.52556923586E+02 -0.84351563911E+01  0.56189983420E+02  0.41800000000E+01 0. -1.
        -11    1    1    2    0    0  0.18925914295E+02  0.38050425049E+02 -0.15806350926E+03  0.16367680971E+03  0.00000000000E+00 0. -1.
         11    1    1    2    0    0  0.78748898518E+01 -0.35250332361E+02 -0.30838953693E+02  0.47493587847E+02  0.00000000000E+00 0.  1.
</event>
<event>
 6    1  0.6981059E-006  0.1278138E+03  0.7561462E-02  0.1230736E+00
         -2   -1    0    0    0  501 -0.00000000000E+00  0.00000000000E+00  0.15906122797E+03  0.15906122797E+03  0.00000000000E+00 0.  1.
          2   -1    0    0  501    0  0.00000000000E+00 -0.00000000000E+00 -0.12525461508E+03  0.12525461508E+03  0.00000000000E+00 0. -1.
          5    1    1    2  502    0  0.10890489477E+02  0.32255887832E+02  0.21055948950E+02  0.40247614179E+02  0.41800000000E+01 0. -1.
         -5    1    1    2    0  502  0.13478228805E+02 -0.11407880836E+03  0.20076773748E+02  0.11668841593E+03  0.41800000000E+01 0. -1.
        -11    1    1    2    0    0 -0.31390300262E+02  0.90166265657E+02  0.20362352218E+02  0.97621369591E+02  0.00000000000E+00 0.  1.
         11    1    1    2    0    0  0.70215819789E+01 -0.83433451301E+01 -0.27688462020E+02  0.29758443347E+02  0.00000000000E+00 0. -1.
</event>
<event>
 6    1  0.6981059E-006  0.8006502E+02  0.7561462E-02  0.1328867E+00
          2   -1    0    0  501    0  0.00000000000E+00  0.00000000000E+00  0.44216411098E+03  0.44216411098E+03  0.00000000000E+00 0. -1.
         -2   -1    0    0    0  501 -0.00000000000E+00 -0.00000000000E+00 -0.28239453854E+02  0.28239453854E+02  0.00000000000E+00 0.  1.
          5    1    1    2  502    0  0.49776424526E+02 -0.20068416487E+01  0.20947972825E+02  0.54203411493E+02  0.41800000000E+01 0. -1.
         -5    1    1    2    0  502 -0.23410949270E+02 -0.87663794906E+01  0.19762443423E+03  0.19924309614E+03  0.41800000000E+01 0. -1.
        -11    1    1    2    0    0  0.21487596181E+02  0.26778630138E+02  0.35743467918E+02  0.49562156132E+02  0.00000000000E+00 0.  1.
         11    1    1    2    0    0 -0.47853071437E+02 -0.16005408999E+02  0.15960878215E+03  0.16739490107E+03  0.00000000000E+00 0. -1.
</event>
<event>
 6    1  0.6981059E-006  0.1143934E+03  0.7561462E-02  0.1252644E+00
         -2   -1    0    0    0  501 -0.00000000000E+00  0.00000000000E+00  0.16702953871E+03  0.16702953871E+03  0.00000000000E+00 0. -1.
          2   -1    0    0  501    0  0.00000000000E+00 -0.00000000000E+00 -0.10544853221E+03  0.10544853221E+03  0.00000000000E+00 0.  1.
          5    1    1    2  502    0 -0.21283754065E+02 -0.70686983325E+02  0.17844543246E+02  0.76062789341E+02  0.41800000000E+01 0.  1.
         -5    1    1    2    0  502  0.44875650428E+02  0.21412343100E+02  0.71090145450E+02  0.86853863578E+02  0.41800000000E+01 0.  1.
        -11    1    1    2    0    0  0.34413866412E+02  0.22051423489E+02 -0.28929348545E+01  0.40974974696E+02  0.00000000000E+00 0. -1.
         11    1    1    2    0    0 -0.58005762774E+02  0.27223216736E+02 -0.24460747337E+02  0.68586443302E+02  0.00000000000E+00 0.  1.
</event>
<event>
 6    1  0.6981059E-006  0.1180582E+03  0.7561462E-02  0.1246335E+00
         -1   -1    0    0    0  501 -0.00000000000E+00  0.00000000000E+00  0.11779379695E+03  0.11779379695E+03  0.00000000000E+00 0.  1.
          1   -1    0    0  501    0  0.00000000000E+00 -0.00000000000E+00 -0.22757824884E+03  0.22757824884E+03  0.00000000000E+00 0. -1.
          5    1    1    2  502    0 -0.10649832002E+03  0.34145056377E+02  0.25572886568E+02  0.11480079255E+03  0.41800000000E+01 0. -1.
         -5    1    1    2    0  502  0.35543518439E+02  0.10453129110E+01  0.14092909608E+02  0.38477485408E+02  0.41800000000E+01 0. -1.
        -11    1    1    2    0    0  0.43197323949E+02  0.47816599788E+00 -0.13920020731E+03  0.14574956313E+03  0.00000000000E+00 0.  1.
         11    1    1    2    0    0  0.27757477632E+02 -0.35668535286E+02 -0.10250040764E+02  0.46344204703E+02  0.00000000000E+00 0. -1.
</event>
<event>
 6    1  0.6981059E-006  0.9881357E+02  0.7561462E-02  0.1282811E+00
          4   -1    0    0  501    0  0.00000000000E+00  0.00000000000E+00  0.92949931085E+02  0.92949931085E+02  0.00000000000E+00 0. -1.
         -4   -1    0    0    0  501 -0.00000000000E+00 -0.00000000000E+00 -0.15415885560E+03  0.15415885560E+03  0.00000000000E+00 0.  1.
          5    1    1    2  502    0  0.16912833036E+01 -0.41178861405E+02  0.66206356766E+01  0.41950736378E+02  0.41800000000E+01 0. -1.
         -5    1    1    2    0  502 -0.17411448243E+02  0.63973382698E+02 -0.86351338387E+02  0.10894851199E+03  0.41800000000E+01 0. -1.
        -11    1    1    2    0    0  0.47075943870E+02 -0.32198873564E+02 -0.28660414745E+01  0.57106270617E+02  0.00000000000E+00 0.  1.
         11    1    1    2    0    0 -0.31355778931E+02  0.94043522715E+01  0.21387819674E+02  0.39103267695E+02  0.00000000000E+00 0. -1.
</event>
<event>
 6    1  0.6981059E-006  0.1027021E+03  0.7561462E-02  0.1274714E+00
         -3   -1    0    0    0  501 -0.00000000000E+00  0.00000000000E+00  0.41108750968E+03  0.41108750968E+03  0.00000000000E+00 0.  1.
          3   -1    0    0  501    0  0.00000000000E+00 -0.00000000000E+00 -0.29416301079E+02  0.29416301079E+02  0.00000000000E+00 0. -1.
          5    1    1    2  502    0  0.35369337882E+02  0.51110105648E+02  0.12771285463E+03  0.14209601894E+03  0.41800000000E+01 0. -1.
         -5    1    1    2    0  502 -0.28228798802E+02 -0.49531226500E+02  0.54030462980E+02  0.78657299790E+02  0.41800000000E+01 0. -1.
        -11    1    1    2    0    0  0.14297406351E+02 -0.39707529002E+02  0.61593085714E+02  0.74664662964E+02  0.00000000000E+00 0.  1.
         11    1    1    2    0    0 -0.21437945430E+02  0.38128649854E+02  0.13833480528E+03  0.14508582907E+03  0.00000000000E+00 0. -1.
</event>
<event>
 6    1  0.6981059E-006  0.1075667E+03  0.7561462E-02  0.1265143E+00
          1   -1    0    0  501    0  0.00000000000E+00  0.00000000000E+00  0.34037337016E+02  0.34037337016E+02  0.00000000000E+00 0. -1.
         -1   -1    0    0    0  501 -0.00000000000E+00 -0.00000000000E+00 -0.38164835184E+03  0.38164835184E+03  0.00000000000E+00 0.  1.
          5    1    1    2  502    0 -0.46629826210E+02  0.19082402568E+02 -0.55193981771E+02  0.74848692734E+02  0.41800000000E+01 0.  1.
         -5    1    1    2    0  502  0.51644892550E+02 -0.46916908265E+02 -0.17894844893E+03  0.19211561879E+03  0.41800000000E+01 0.  1.
        -11    1    1    2    0    0 -0.40177446416E+02  0.40743264674E+02 -0.55576559196E+02  0.79768381887E+02  0.00000000000E+00 0. -1.
         11    1    1    2    0    0  0.35162380077E+02 -0.12908758977E+02 -0.57892024923E+02  0.68952995444E+02  0.00000000000E+00 0.  1.
</event>
<event>
 6    1  0.6981059E-006  0.1205950E+03  0.7561462E-02  0.1242119E+00
          1   -1    0    0  501    0  0.00000000000E+00  0.00000000000E+00  0.35345496659E+03  0.35345496659E+03  0.00000000000E+00 0. -1.
         -1   -1    0    0    0  501 -0.00000000000E+00 -0.00000000000E+00 -0.51786308017E+02  0.51786308017E+02  0.00000000000E+00 0.  1.
          5    1    1    2  502    0  0.10689711436E+02 -0.42167621822E+02  0.52204716242E+02  0.68082178715E+02  0.41800000000E+01 0.  1.
         -5    1    1    2    0  502 -0.79342140213E+02  0.58162940768E+02  0.75592733624E+02  0.12413636320E+03  0.41800000000E+01 0.  1.
        -11    1    1    2    0    0  0.43659478503E+02  0.25515035514E+02  0.24893659631E+02  0.56363653096E+02  0.00000000000E+00 0.  1.
         11    1    1    2    0    0  0.24992950274E+02 -0.41510354460E+02  0.14897754907E+03  0.15665907959E+03  0.00000000000E+00 0. -1.
</event>
<event>
 6    1  0.6981059E-006  0.2516528E+03  0.7561462E-02  0.1112265E+00
         -1   -1    0    0    0  501 -0.00000000000E+00  0.00000000000E+00  0.60032327929E+02  0.60032327929E+02  0.00000000000E+00 0.  1.
          1   -1    0    0  501    0  0.00000000000E+00 -0.00000000000E+00 -0.12705063296E+04  0.12705063296E+04  0.00000000000E+00 0. -1.
          5    1    1    2  502    0  0.92908495944E+02 -0.31926393967E+02 -0.17345398317E+03  0.19938665935E+03  0.41800000000E+01 0.  1.
         -5    1    1    2    0  502  0.13118632465E+03  0.99810074978E+02 -0.21014328888E+03  0.26711341618E+03  0.41800000000E+01 0.  1.
        -11    1    1    2    0    0 -0.70682641380E+02  0.37273931114E+01 -0.14356219688E+03  0.16006259283E+03  0.00000000000E+00 0.  1.
         11    1    1    2    0    0 -0.15341217921E+03 -0.71611074123E+02 -0.68331453277E+03  0.70397598920E+03  0.00000000000E+00 0. -1.
</event>
<event>
 6    1  0.6981059E-006  0.1929787E+03  0.7561462E-02  0.1155802E+00
          1   -1    0    0  501    0  0.00000000000E+00  0.00000000000E+00  0.23311643319E+03  0.23311643319E+03  0.00000000000E+00 0. -1.
         -1   -1    0    0    0  501 -0.00000000000E+00 -0.00000000000E+00 -0.30855156894E+03  0.30855156894E+03  0.00000000000E+00 0.  1.
          5    1    1    2  502    0  0.10205057056E+03  0.10174089638E+03 -0.20314813682E+03  0.24910272347E+03  0.41800000000E+01 0.  1.
         -5    1    1    2    0  502  0.45857006959E+02 -0.22812131659E+02 -0.15933868077E+02  0.53801663450E+02  0.41800000000E+01 0.  1.
        -11    1    1    2    0    0  0.88021149809E+01  0.73926206256E+01  0.12151336029E+02  0.16726716209E+02  0.00000000000E+00 0.  1.
         11    1    1    2    0    0 -0.15670969250E+03 -0.86321385350E+02  0.13149553311E+03  0.22203689901E+03  0.00000000000E+00 0. -1.
</event>
<event>
 6    1  0.6981059E-006  0.1138310E+03  0.7561462E-02  0.1253635E+00
         -2   -1    0    0    0  501 -0.00000000000E+00  0.00000000000E+00  0.34118286692E+02  0.34118286692E+02  0.00000000000E+00 0.  1.
          2   -1    0    0  501    0  0.00000000000E+00 -0.00000000000E+00 -0.46551227027E+03  0.46551227027E+03  0.00000000000E+00 0. -1.
          5    1    1    2  502    0 -0.49183883940E+02  0.50047262956E+02 -0.66755519732E+02  0.96940986087E+02  0.41800000000E+01 0. -1.
         -5    1    1    2    0  502  0.61173326831E+02 -0.57351486855E+01 -0.85765712591E+02  0.10558549949E+03  0.41800000000E+01 0. -1.
        -11    1    1    2    0    0 -0.32234423412E+02 -0.61363910659E+02 -0.24188699047E+03  0.25162254220E+03  0.00000000000E+00 0.  1.
         11    1    1    2    0    0  0.20244980521E+02  0.17051796389E+02 -0.36985760784E+02  0.45481529186E+02  0.00000000000E+00 0. -1.
</event>
<event>
 6    1  0.1013646E-005  0.1147310E+03  0.7561462E-02  0.1252051E+00
         -1   -1    0    0    0  501 -0.00000000000E+00  0.00000000000E+00  0.12949746050E+03  0.12949746050E+03  0.00000000000E+00 0.  1.
          1   -1    0    0  501    0  0.00000000000E+00 -0.00000000000E+00 -0.14580436857E+03  0.14580436857E+03  0.00000000000E+00 0. -1.
          5    1    1    2  502    0  0.17219454388E+02 -0.31460892247E+02  0.11905414328E+02  0.38019845354E+02  0.41800000000E+01 0. -1.
         -5    1    1    2    0  502 -0.13482080172E+02  0.10945306398E+03  0.59965006938E+01  0.11052226074E+03  0.41800000000E+01 0. -1.
        -11    1    1    2    0    0 -0.15498375086E+02 -0.32490867389E+02  0.30227228886E+02  0.47005759861E+02  0.00000000000E+00 0.  1.
         11    1    1    2    0    0  0.11761000871E+02 -0.45501304339E+02 -0.64436051980E+02  0.79753963116E+02  0.00000000000E+00 0. -1.
</event>
<event>
 6    1  0.6981059E-006  0.1468313E+03  0.7561462E-02  0.1204422E+00
          2   -1    0    0  501    0  0.00000000000E+00  0.00000000000E+00  0.36751733957E+03  0.36751733957E+03  0.00000000000E+00 0. -1.
         -2   -1    0    0    0  501 -0.00000000000E+00 -0.00000000000E+00 -0.59048124115E+02  0.59048124115E+02  0.00000000000E+00 0.  1.
          5    1    1    2  502    0  0.39492755814E+01 -0.48398340100E+02  0.42760414339E+02  0.64837655236E+02  0.41800000000E+01 0. -1.
         -5    1    1    2    0  502 -0.10359483851E+03  0.38713727376E+02  0.13077655482E+03  0.17132023507E+03  0.41800000000E+01 0. -1.
        -11    1    1    2    0    0  0.59891831502E+02 -0.38945936565E+02  0.68290177387E+02  0.98829984232E+02  0.00000000000E+00 0. -1.
         11    1    1    2    0    0  0.39753731423E+02  0.48630549289E+02  0.66642068904E+02  0.91577589147E+02  0.00000000000E+00 0.  1.
</event>
<event>
 6    1  0.6981059E-006  0.1204137E+03  0.7561462E-02  0.1242416E+00
         -2   -1    0    0    0  501 -0.00000000000E+00  0.00000000000E+00  0.46124739948E+02  0.46124739948E+02  0.00000000000E+00 0.  1.
          2   -1    0    0  501    0  0.00000000000E+00 -0.00000000000E+00 -0.44538897442E+03  0.44538897442E+03  0.00000000000E+00 0. -1.
          5    1    1    2  502    0  0.58248112021E+02 -0.35996954273E+02 -0.11515759867E+03  0.13404241196E+03  0.41800000000E+01 0.  1.
         -5    1    1    2    0  502  0.14832419473E+02  0.54127548453E+02 -0.77550525025E+01  0.56810257950E+02  0.41800000000E+01 0.  1.
        -11    1    1    2    0    0 -0.34327381822E+02 -0.53443847260E+02 -0.12032989091E+03  0.13606578041E+03  0.00000000000E+00 0.  1.
         11    1    1    2    0    0 -0.38753149672E+02  0.35313253079E+02 -0.15602169239E+03  0.16459526405E+03  0.00000000000E+00 0. -1.
</event>
<event>
 6    1  0.6981059E-006  0.1248916E+03  0.7561462E-02  0.1235239E+00
         -4   -1    0    0    0  501 -0.00000000000E+00  0.00000000000E+00  0.35133100974E+02  0.35133100974E+02  0.00000000000E+00 0.  1.
          4   -1    0    0  501    0  0.00000000000E+00 -0.00000000000E+00 -0.59613320480E+03  0.59613320480E+03  0.00000000000E+00 0. -1.
          5    1    1    2  502    0 -0.29807112438E+02  0.18965158519E+02 -0.16570519639E+03  0.16948104820E+03  0.41800000000E+01 0. -1.
         -5    1    1    2    0  502 -0.23511924294E+02 -0.97001610304E+02 -0.11752515480E+03  0.15424576946E+03  0.41800000000E+01 0. -1.
        -11    1    1    2    0    0  0.30066792253E+02 -0.27988222372E+01 -0.15995252801E+03  0.16277793652E+03  0.00000000000E+00 0.  1.
         11    1    1    2    0    0  0.23252244479E+02  0.80835274022E+02 -0.11781722463E+03  0.14476155159E+03  0.00000000000E+00 0. -1.
</event>
<event>
 6    1  0.6981059E-006  0.2651447E+03  0.7561462E-02  0.1104091E+00
          1   -1    0    0  501    0  0.00000000000E+00  0.00000000000E+00  0.53868947901E+03  0.53868947901E+03  0.00000000000E+00 0. -1.
         -1   -1    0    0    0  501 -0.00000000000E+00 -0.00000000000E+00 -0.13930098096E+03  0.13930098096E+03  0.00000000000E+00 0.  1.
          5    1    1    2  502    0  0.44880445467E+02  0.12298161585E+03  0.13627143758E+03  0.18901351625E+03  0.41800000000E+01 0.  1.
         -5    1    1    2    0  502  0.13766921931E+03  0.38762481139E+02  0.14197784317E+03  0.20157014719E+03  0.41800000000E+01 0.  1.
        -11    1    1    2    0    0 -0.17578892505E+03 -0.11744427298E+03  0.11886549301E+03  0.24253640728E+03  0.00000000000E+00 0.  1.
         11    1    1    2    0    0 -0.67607397273E+01 -0.44299824015E+02  0.22737242829E+01  0.44870389251E+02  0.00000000000E+00 0. -1.
</event>
<event>
 6    1  0.6981059E-006  0.2022412E+03  0.7561462E-02  0.1147862E+00
          2   -1    0    0  501    0  0.00000000000E+00  0.00000000000E+00  0.85245473655E+02  0.85245473655E+02  0.00000000000E+00 0. -1.
         -2   -1    0    0    0  501 -0.00000000000E+00 -0.00000000000E+00 -0.59058738841E+03  0.59058738841E+03  0.00000000000E+00 0.  1.
          5    1    1    2  502    0  0.12649557181E+03 -0.54015237560E+02 -0.14270158201E+03  0.19824224949E+03  0.41800000000E+01 0. -1.
         -5    1    1    2    0  502  0.13409592940E+02 -0.74484402838E+02 -0.19207866958E+03  0.20649317460E+03  0.41800000000E+01 0. -1.
        -11    1    1    2    0    0 -0.28361296129E+02  0.15603168731E+02 -0.84654452903E+02  0.90632214962E+02  0.00000000000E+00 0.  1.
         11    1    1    2    0    0 -0.11154386862E+03  0.11289647167E+03 -0.85907210271E+02  0.18046522302E+03  0.00000000000E+00 0. -1.
</event>
<event>
 6    1  0.6981059E-006  0.1504811E+03  0.7561462E-02  0.1199883E+00
          3   -1    0    0  501    0  0.00000000000E+00  0.00000000000E+00  0.28636579044E+03  0.28636579044E+03  0.00000000000E+00 0. -1.
         -3   -1    0    0    0  501 -0.00000000000E+00 -0.00000000000E+00 -0.89267475963E+02  0.89267475963E+02  0.00000000000E+00 0.  1.
          5    1    1    2  502    0 -0.32241011962E+02 -0.38716705072E+02 -0.64794547771E+01  0.50969813009E+02  0.41800000000E+01 0. -1.
         -5    1    1    2    0  502 -0.69879220500E+02  0.81774368691E+02  0.66894133692E+02  0.12673772270E+03  0.41800000000E+01 0. -1.
        -11    1    1    2    0    0 -0.15821365183E+02 -0.14384787597E+02  0.25963674667E+02  0.33635548349E+02  0.00000000000E+00 0. -1.
         11    1    1    2    0    0  0.11794159765E+03 -0.28672876022E+02  0.11071996089E+03  0.16429018235E+03  0.00000000000E+00 0.  1.
</event>
<event>
 6    1  0.6981059E-006  0.1210294E+03  0.7561462E-02  0.1241409E+00
          2   -1    0    0  501    0  0.00000000000E+00  0.00000000000E+00  0.85844257278E+03  0.85844257278E+03  0.00000000000E+00 0. -1.
         -2   -1    0    0    0  501 -0.00000000000E+00 -0.00000000000E+00 -0.29585155198E+02  0.29585155198E+02  0.00000000000E+00 0.  1.
          5    1    1    2  502    0  0.10643716659E+03  0.51808218019E+02  0.18214044581E+03  0.21726844291E+03  0.41800000000E+01 0.  1.
         -5    1    1    2    0  502 -0.13848078905E+01 -0.76311605297E+01  0.20559217968E+03  0.20578087630E+03  0.41800000000E+01 0.  1.
        -11    1    1    2    0    0 -0.21362665740E+02 -0.15260887387E+02  0.16031636688E+02  0.30761527047E+02  0.00000000000E+00 0.  1.
         11    1    1    2    0    0 -0.83689692960E+02 -0.28916170102E+02  0.42509315540E+03  0.43421688172E+03  0.00000000000E+00 0. -1.
</event>
<event>
 6    1  0.6981059E-006  0.8968037E+02  0.7561462E-02  0.1303628E+00
         -1   -1    0    0    0  501 -0.00000000000E+00  0.00000000000E+00  0.10093145501E+03  0.10093145501E+03  0.00000000000E+00 0.  1.
          1   -1    0    0  501    0  0.00000000000E+00 -0.00000000000E+00 -0.16459781083E+03  0.16459781083E+03  0.00000000000E+00 0. -1.
          5    1    1    2  502    0  0.30533899305E+02  0.65144679860E+01  0.31152192786E+02  0.44302243909E+02  0.41800000000E+01 0. -1.
         -5    1    1    2    0  502 -0.86034442632E+02 -0.14139867964E+02 -0.19472949855E+02  0.89434497600E+02  0.41800000000E+01 0.  1.
        -11    1    1    2    0    0  0.30381494825E+02 -0.74434059035E+01 -0.92638294187E+02  0.97776751169E+02  0.00000000000E+00 0. -1.
         11    1    1    2    0    0  0.25119048501E+02  0.15068805882E+02  0.17292695434E+02  0.34015773160E+02  0.00000000000E+00 0.  1.
</event>
<event>
 6    1  0.6981059E-006  0.3854069E+02  0.7561462E-02  0.1519233E+00
          2   -1    0    0  501    0  0.00000000000E+00  0.00000000000E+00  0.13662888441E+03  0.13662888441E+03  0.00000000000E+00 0. -1.
         -2   -1    0    0    0  501 -0.00000000000E+00 -0.00000000000E+00 -0.84925023204E+02  0.84925023204E+02  0.00000000000E+00 0.  1.
          5    1    1    2  502    0 -0.23907681525E+01 -0.92536841446E+00  0.77292531137E+02  0.77447917006E+02  0.41800000000E+01 0. -1.
         -5    1    1    2    0  502  0.25538814692E+02  0.25431359185E+02 -0.43301864675E+02  0.56493441833E+02  0.41800000000E+01 0. -1.
        -11    1    1    2    0    0 -0.15286419390E+02 -0.72212570683E+01  0.48543803610E+02  0.51403521673E+02  0.00000000000E+00 0. -1.
         11    1    1    2    0    0 -0.78616271501E+01 -0.17284733702E+02 -0.30830608867E+02  0.36209027102E+02  0.00000000000E+00 0.  1.
</event>
<event>
 6    1  0.6981059E-006  0.1031159E+03  0.7561462E-02  0.1273877E+00
          2   -1    0    0  501    0  0.00000000000E+00  0.00000000000E+00  0.30806279094E+03  0.30806279094E+03  0.00000000000E+00 0. -1.
         -2   -1    0    0    0  501 -0.00000000000E+00 -0.00000000000E+00 -0.53111699777E+02  0.53111699777E+02  0.00000000000E+00 0.  1.
          5    1    1    2  502    0  0.48672690830E+02  0.46199862966E+02  0.99053397119E+02  0.11971844491E+03  0.41800000000E+01 0. -1.
         -5    1    1    2    0  502 -0.67383919127E+02  0.38920474747E+00  0.10553908833E+03  0.12528653400E+03  0.41800000000E+01 0. -1.
        -11    1    1    2    0    0 -0.32314968518E+01  0.10146375558E+02  0.54182126627E+02  0.55218605150E+02  0.00000000000E+00 0. -1.
         11    1    1    2    0    0  0.21942725149E+02 -0.56735443271E+02 -0.38235209112E+01  0.60950906657E+02  0.00000000000E+00 0.  1.
</event>
<event>
 6    1  0.6981059E-006  0.1001031E+03  0.7561462E-02  0.1280079E+00
         -1   -1    0    0    0  501 -0.00000000000E+00  0.00000000000E+00  0.17603300238E+02  0.17603300238E+02  0.00000000000E+00 0.  1.
          1   -1    0    0  501    0  0.00000000000E+00 -0.00000000000E+00 -0.77126145475E+03  0.77126145475E+03  0.00000000000E+00 0. -1.
          5    1    1    2  502    0  0.18452604182E+02  0.30864942392E+02 -0.29662234622E+03  0.29882341265E+03  0.41800000000E+01 0. -1.
         -5    1    1    2    0  502  0.70574116090E+01 -0.63933515030E+02 -0.98412334714E+02  0.11764251539E+03  0.41800000000E+01 0. -1.
        -11    1    1    2    0    0  0.28838701967E+02 -0.96584276617E+01 -0.88981210722E+02  0.94035162666E+02  0.00000000000E+00 0.  1.
         11    1    1    2    0    0 -0.54348717758E+02  0.42727000299E+02 -0.26964226286E+03  0.27836366429E+03  0.00000000000E+00 0. -1.
</event>
<event>
 6    1  0.6981059E-006  0.1080308E+03  0.7561462E-02  0.1264261E+00
         -1   -1    0    0    0  501 -0.00000000000E+00  0.00000000000E+00  0.94589231905E+02  0.94589231905E+02  0.00000000000E+00 0.  1.
          1   -1    0    0  501    0  0.00000000000E+00 -0.00000000000E+00 -0.12958517844E+03  0.12958517844E+03  0.00000000000E+00 0. -1.
          5    1    1    2  502    0 -0.47124415587E+02  0.45682412593E+02 -0.20965700174E+01  0.65798642619E+02  0.41800000000E+01 0.  1.
         -5    1    1    2    0  502  0.40020625188E+02 -0.43610013951E+02  0.49544391524E+01  0.59544123342E+02  0.41800000000E+01 0.  1.
        -11    1    1    2    0    0 -0.41570019707E+02  0.46240941147E+01 -0.13193727900E+02  0.43857989474E+02  0.00000000000E+00 0.  1.
         11    1    1    2    0    0  0.48673810106E+02 -0.66964927568E+01 -0.24660087772E+02  0.54973654912E+02  0.00000000000E+00 0. -1.
</event>
<event>
 6    1  0.6981059E-006  0.1153690E+03  0.7561462E-02  0.1250938E+00
         -4   -1    0    0    0  501 -0.00000000000E+00  0.00000000000E+00  0.31094590652E+03  0.31094590652E+03  0.00000000000E+00 0.  1.
          4   -1    0    0  501    0  0.00000000000E+00 -0.00000000000E+00 -0.47034091202E+02  0.47034091202E+02  0.00000000000E+00 0. -1.
          5    1    1    2  502    0  0.34439551781E+02 -0.41043962863E+02  0.80135515818E+02  0.96487630864E+02  0.41800000000E+01 0.  1.
         -5    1    1    2    0  502 -0.72576146961E+02  0.27501680820E+02  0.11968128835E+03  0.14270502001E+03  0.41800000000E+01 0.  1.
        -11    1    1    2    0    0  0.19509057464E+02  0.52544603357E+02  0.28977160696E+02  0.63096866064E+02  0.00000000000E+00 0.  1.
         11    1    1    2    0    0  0.18627537717E+02 -0.39002321313E+02  0.35117850455E+02  0.55690480782E+02  0.00000000000E+00 0. -1.
</event>
<event>
 6    1  0.6981059E-006  0.1011991E+03  0.7561462E-02  0.1277794E+00
          1   -1    0    0  501    0  0.00000000000E+00  0.00000000000E+00  0.18917054942E+03  0.18917054942E+03  0.00000000000E+00 0. -1.
         -1   -1    0    0    0  501 -0.00000000000E+00 -0.00000000000E+00 -0.83303898270E+02  0.83303898270E+02  0.00000000000E+00 0.  1.
          5    1    1    2  502    0  0.23695369364E+02  0.33238620212E+02 -0.31156968243E+02  0.51521893143E+02  0.41800000000E+01 0.  1.
         -5    1    1    2    0  502  0.44083846159E+01 -0.69096513079E+02  0.44187043564E+02  0.82241894394E+02  0.41800000000E+01 0.  1.
        -11    1    1    2    0    0 -0.20906284020E+02 -0.23933427457E+02  0.65027172849E+02  0.72376894588E+02  0.00000000000E+00 0. -1.
         11    1    1    2    0    0 -0.71974699591E+01  0.59791320323E+02  0.27809402974E+02  0.66333765561E+02  0.00000000000E+00 0.  1.
</event>
<event>
 6    1  0.6981059E-006  0.8174129E+02  0.7561462E-02  0.1324181E+00
         -2   -1    0    0    0  501 -0.00000000000E+00  0.00000000000E+00  0.17709398519E+03  0.17709398519E+03  0.00000000000E+00 0.  1.
          2   -1    0    0  501    0  0.00000000000E+00 -0.00000000000E+00 -0.84664808340E+02  0.84664808340E+02  0.00000000000E+00 0. -1.
          5    1    1    2  502    0  0.42275572208E+02  0.11125038023E+02 -0.18981498947E+02  0.47840988481E+02  0.41800000000E+01 0. -1.
         -5    1    1    2    0  502  0.11945350051E+02 -0.37282990684E+01  0.10651199228E+03  0.10732599174E+03  0.41800000000E+01 0.  1.
        -11    1    1    2    0    0  0.66354969005E+01  0.32785059895E+02 -0.64712348435E+00  0.33456071799E+02  0.00000000000E+00 0. -1.
         11    1    1    2    0    0 -0.60856419159E+02 -0.40181798850E+02  0.55458069990E+01  0.73135741515E+02  0.00000000000E+00 0.  1.
</event>
<event>
 6    1  0.6981059E-006  0.1637769E+03  0.7561462E-02  0.1184497E+00
          2   -1    0    0  501    0  0.00000000000E+00  0.00000000000E+00  0.14238117562E+03  0.14238117562E+03  0.00000000000E+00 0. -1.
         -2   -1    0    0    0  501 -0.00000000000E+00 -0.00000000000E+00 -0.27187192765E+03  0.27187192765E+03  0.00000000000E+00 0.  1.
          5    1    1    2  502    0  0.23349166370E+02 -0.54332153214E+02 -0.12552517632E+03  0.13882077919E+03  0.41800000000E+01 0. -1.
         -5    1    1    2    0  502  0.71879524553E+02 -0.75625989811E+02 -0.74800641520E+01  0.10468705815E+03  0.41800000000E+01 0. -1.
        -11    1    1    2    0    0 -0.82890987013E+02  0.12613484959E+03 -0.10977958716E+02  0.15133218953E+03  0.00000000000E+00 0.  1.
         11    1    1    2    0    0 -0.12337703910E+02  0.38232934316E+01  0.14492447161E+02  0.19413076396E+02  0.00000000000E+00 0. -1.
</event>
<event>
 6    1  0.1271186E-005  0.1784924E+03  0.7561462E-02  0.1169270E+00
          1   -1    0    0  501    0  0.00000000000E+00  0.00000000000E+00  0.37295815671E+03  0.37295815671E+03  0.00000000000E+00 0. -1.
         -1   -1    0    0    0  501 -0.00000000000E+00 -0.00000000000E+00 -0.12116369337E+03  0.12116369337E+03  0.00000000000E+00 0.  1.
          5    1    1    2  502    0  0.11045564917E+03  0.58700148026E+02  0.90183415480E+02  0.15426172124E+03  0.41800000000E+01 0. -1.
         -5    1    1    2    0  502  0.54962061482E+02 -0.14691244049E+02 -0.32235479316E+02  0.65522968345E+02  0.41800000000E+01 0. -1.
        -11    1    1    2    0    0 -0.92838408095E+02 -0.42717399203E+02  0.16921687792E+03  0.19768180995E+03  0.00000000000E+00 0. -1.
         11    1    1    2    0    0 -0.72579302560E+02 -0.12915047739E+01  0.24629649250E+02  0.76655350543E+02  0.00000000000E+00 0.  1.
</event>
<event>
 6    1  0.6981059E-006  0.9430839E+02  0.7561462E-02  0.1292741E+00
          3   -1    0    0  501    0  0.00000000000E+00  0.00000000000E+00  0.17801724454E+03  0.17801724454E+03  0.00000000000E+00 0. -1.
         -3   -1    0    0    0  501 -0.00000000000E+00 -0.00000000000E+00 -0.77165779744E+02  0.77165779744E+02  0.00000000000E+00 0.  1.
          5    1    1    2  502    0  0.71116657276E+01  0.52356829094E+02  0.40039539408E+02  0.66426278371E+02  0.41800000000E+01 0. -1.
         -5    1    1    2    0  502  0.34243193195E+02 -0.65390959481E+02  0.77938017473E+01  0.74342380966E+02  0.41800000000E+01 0. -1.
        -11    1    1    2    0    0  0.24154952520E+01  0.17516349731E+02 -0.21523791706E+02  0.27855533286E+02  0.00000000000E+00 0.  1.
         11    1    1    2    0    0 -0.43770354175E+02 -0.44822193447E+01  0.74541915347E+02  0.86558831660E+02  0.00000000000E+00 0. -1.
</event>
<event>
 6    1  0.6981059E-006  0.1505055E+03  0.7561462E-02  0.1199853E+00
         -1   -1    0    0    0  501 -0.00000000000E+00  0.00000000000E+00  0.32099999214E+02  0.32099999214E+02  0.00000000000E+00 0.  1.
          1   -1    0    0  501    0  0.00000000000E+00 -0.00000000000E+00 -0.78223524046E+03  0.78223524046E+03  0.00000000000E+00 0. -1.
          5    1    1    2  502    0 -0.53018194209E+01 -0.10586555256E+03 -0.15886850393E+03  0.19102957480E+03  0.41800000000E+01 0. -1.
         -5    1    1    2    0  502 -0.54796398154E+02  0.11915564226E+02 -0.15335602170E+03  0.16334064930E+03  0.41800000000E+01 0. -1.
        -11    1    1    2    0    0  0.44527314364E+02  0.10891135647E+01 -0.17921228687E+03  0.18466432156E+03  0.00000000000E+00 0. -1.
         11    1    1    2    0    0  0.15570903211E+02  0.92860874767E+02 -0.25869842875E+03  0.27530069402E+03  0.00000000000E+00 0.  1.
</event>
<event>
 6    1  0.6981059E-006  0.2413291E+03  0.7561462E-02  0.1118911E+00
         -1   -1    0    0    0  501 -0.00000000000E+00  0.00000000000E+00  0.61015408467E+02  0.61015408467E+02  0.00000000000E+00 0.  1.
          1   -1    0    0  501    0  0.00000000000E+00 -0.00000000000E+00 -0.11147445589E+04  0.11147445589E+04  0.00000000000E+00 0. -1.
          5    1    1    2  502    0  0.10396747750E+03 -0.10906466815E+03 -0.18505658160E+03  0.23867917590E+03  0.41800000000E+01 0. -1.
         -5    1    1    2    0  502  0.77539006237E+02 -0.42218430950E+02 -0.32997325777E+03  0.34160579129E+03  0.41800000000E+01 0. -1.
        -11    1    1    2    0    0 -0.10669759654E+03  0.50564340698E+02 -0.34545143297E+03  0.36507235200E+03  0.00000000000E+00 0. -1.
         11    1    1    2    0    0 -0.74808887202E+02  0.10071875840E+03 -0.19324787812E+03  0.23040264820E+03  0.00000000000E+00 0.  1.
</event>
<event>
 6    1  0.6981059E-006  0.9696015E+02  0.7561462E-02  0.1286821E+00
         -1   -1    0    0    0  501 -0.00000000000E+00  0.00000000000E+00  0.54646919208E+02  0.54646919208E+02  0.00000000000E+00 0.  1.
          1   -1    0    0  501    0  0.00000000000E+00 -0.00000000000E+00 -0.21317044139E+03  0.21317044139E+03  0.00000000000E+00 0. -1.
          5    1    1    2  502    0 -0.94139309260E+01 -0.63001540158E+02 -0.45886268778E+02  0.78618307157E+02  0.41800000000E+01 0. -1.
         -5    1    1    2    0  502 -0.21657318799E+01  0.61459103562E+02 -0.36871016567E+02  0.71825177117E+02  0.41800000000E+01 0. -1.
        -11    1    1    2    0    0  0.36887143199E+02 -0.13172606505E+02 -0.34062756295E+01  0.39316429253E+02  0.00000000000E+00 0.  1.
         11    1    1    2    0    0 -0.25307480393E+02  0.14715043101E+02 -0.72359961213E+02  0.78057447076E+02  0.00000000000E+00 0. -1.
</event>
<event>
 6    1  0.6981059E-006  0.9880598E+02  0.7561462E-02  0.1282827E+00
         -1   -1    0    0    0  501 -0.00000000000E+00  0.00000000000E+00  0.11162062057E+02  0.11162062057E+02  0.00000000000E+00 0.  1.
          1   -1    0    0  501    0  0.00000000000E+00 -0.00000000000E+00 -0.15667301617E+04  0.15667301617E+04  0.00000000000E+00 0. -1.
          5    1    1    2  502    0 -0.12628537684E+02  0.21228733946E+02 -0.85940303250E+03  0.85976809884E+03  0.41800000000E+01 0.  1.
         -5    1    1    2    0  502  0.52210355772E+02  0.33716996889E+02 -0.20971899277E+03  0.21877450825E+03  0.41800000000E+01 0.  1.
        -11    1    1    2    0    0 -0.67575245419E+02 -0.40201013876E+02 -0.38997064941E+03  0.39781860528E+03  0.00000000000E+00 0. -1.
         11    1    1    2    0    0  0.27993427331E+02 -0.14744716959E+02 -0.96475424943E+02  0.10153101137E+03  0.00000000000E+00 0.  1.
</event>
<event>
 6    1  0.6981059E-006  0.1305778E+03  0.7561462E-02  0.1226601E+00
         -2   -1    0    0    0  501 -0.00000000000E+00  0.00000000000E+00  0.26163291379E+03  0.26163291379E+03  0.00000000000E+00 0.  1.
          2   -1    0    0  501    0  0.00000000000E+00 -0.00000000000E+00 -0.19266489508E+03  0.19266489508E+03  0.00000000000E+00 0. -1.
          5    1    1    2  502    0  0.25347229938E+01  0.40013638343E+02  0.71830373576E+02  0.82368628993E+02  0.41800000000E+01 0.  1.
         -5    1    1    2    0  502 -0.82477170003E+02 -0.73950432138E+02  0.14199331316E+03  0.18014084314E+03  0.41800000000E+01 0.  1.
        -11    1    1    2    0    0  0.44678225421E+02 -0.17198809056E+02 -0.19129459844E+02  0.51554622427E+02  0.00000000000E+00 0.  1.
         11    1    1    2    0    0  0.35264221588E+02  0.51135602851E+02 -0.12572620819E+03  0.14023371431E+03  0.00000000000E+00 0. -1.
</event>
<event>
 6    1  0.6981059E-006  0.1455049E+03  0.7561462E-02  0.1206108E+00
          3   -1    0    0  501    0  0.00000000000E+00  0.00000000000E+00  0.23311857212E+03  0.23311857212E+03  0.00000000000E+00 0. -1.
         -3   -1    0    0    0  501 -0.00000000000E+00 -0.00000000000E+00 -0.15224953989E+03  0.15224953989E+03  0.00000000000E+00 0.  1.
          5    1    1    2  502    0 -0.85005634120E+01  0.77610682671E+02 -0.24041741133E+02  0.81799482637E+02  0.41800000000E+01 0.  1.
         -5    1    1    2    0  502 -0.87410518773E+02 -0.19043880462E+02 -0.40965556889E+02  0.98483081930E+02  0.41800000000E+01 0.  1.
        -11    1    1    2    0    0  0.22515638625E+01 -0.22952060788E+02  0.84475842097E+02  0.87567314291E+02  0.00000000000E+00 0. -1.
         11    1    1    2    0    0  0.93659518323E+02 -0.35614741421E+02  0.61400488156E+02  0.11751823316E+03  0.00000000000E+00 0.  1.
</event>
<event>
 6    1  0.6981059E-006  0.1118373E+03  0.7561462E-02  0.1257205E+00
          4   -1    0    0  501    0  0.00000000000E+00  0.00000000000E+00  0.12013497583E+03  0.12013497583E+03  0.00000000000E+00 0. -1.
         -4   -1    0    0    0  501 -0.00000000000E+00 -0.00000000000E+00 -0.11540050921E+03  0.11540050921E+03  0.00000000000E+00 0.  1.
          5    1    1    2  502    0  0.37272063261E+02 -0.25042092054E+02 -0.66562645194E+01  0.45586087039E+02  0.41800000000E+01 0.  1.
         -5    1    1    2    0  502 -0.87356728170E+02  0.17253863120E+02  0.65264664701E+01  0.89380987429E+02  0.41800000000E+01 0.  1.
        -11    1    1    2    0    0 -0.52719067967E+01  0.29503809898E+02 -0.20089404985E+02  0.36081186128E+02  0.00000000000E+00 0.  1.
         11    1    1    2    0    0  0.55356571706E+02 -0.21715580964E+02  0.24953669659E+02  0.64487224448E+02  0.00000000000E+00 0. -1.
</event>
<event>
 6    1  0.6981059E-006  0.7127934E+02  0.7561462E-02  0.1355796E+00
          1   -1    0    0  501    0  0.00000000000E+00  0.00000000000E+00  0.31409181698E+02  0.31409181698E+02  0.00000000000E+00 0. -1.
         -1   -1    0    0    0  501 -0.00000000000E+00 -0.00000000000E+00 -0.58320200497E+03  0.58320200497E+03  0.00000000000E+00 0.  1.
          5    1    1    2  502    0  0.12781692878E+02 -0.26686155626E+02 -0.34275083805E+03  0.34405106010E+03  0.41800000000E+01 0. -1.
         -5    1    1    2    0  502 -0.38977192697E+01  0.66869550453E+02 -0.12494703109E+03  0.14183075114E+03  0.41800000000E+01 0. -1.
        -11    1    1    2    0    0 -0.15172354215E+02 -0.27614522025E+02 -0.10154644302E+03  0.10632235066E+03  0.00000000000E+00 0.  1.
         11    1    1    2    0    0  0.62883806062E+01 -0.12568872802E+02  0.17451488887E+02  0.22407024759E+02  0.00000000000E+00 0. -1.
</event>
<event>
 6    1  0.6981059E-006  0.2245583E+03  0.7561462E-02  0.1130530E+00
          2   -1    0    0  501    0  0.00000000000E+00  0.00000000000E+00  0.97589291317E+03  0.97589291317E+03  0.00000000000E+00 0. -1.
         -2   -1    0    0    0  501 -0.00000000000E+00 -0.00000000000E+00 -0.94209479601E+02  0.94209479601E+02  0.00000000000E+00 0.  1.
          5    1    1    2  502    0 -0.53329317092E+01 -0.16077885798E+02  0.40128916503E+02  0.43757752594E+02  0.41800000000E+01 0.  1.
         -5    1    1    2    0  502  0.21063188869E+03 -0.14095046132E+02  0.70540124969E+02  0.22261591248E+03  0.41800000000E+01 0.  1.
        -11    1    1    2    0    0 -0.17320737506E+03 -0.45185724390E+01  0.67255229368E+03  0.69451263488E+03  0.00000000000E+00 0.  1.
         11    1    1    2    0    0 -0.32091581926E+02  0.34691504369E+02  0.98462098411E+02  0.10921609281E+03  0.00000000000E+00 0. -1.
</event>
<event>
 6    1  0.6981059E-006  0.1118301E+03  0.7561462E-02  0.1257218E+00
          2   -1    0    0  501    0  0.00000000000E+00  0.00000000000E+00  0.45970165913E+03  0.45970165913E+03  0.00000000000E+00 0. -1.
         -2   -1    0    0    0  501 -0.00000000000E+00 -0.00000000000E+00 -0.31701327122E+02  0.31701327122E+02  0.00000000000E+00 0.  1.
          5    1    1    2  502    0 -0.40179268401E+02  0.13843223704E+02  0.77238725854E+02  0.88257020250E+02  0.41800000000E+01 0. -1.
         -5    1    1    2    0  502  0.79987457338E+02 -0.45996379461E+02  0.18223439930E+03  0.20430494107E+03  0.41800000000E+01 0. -1.
        -11    1    1    2    0    0 -0.57115758510E+02  0.39858532442E+02  0.70878267063E+02  0.99371229340E+02  0.00000000000E+00 0.  1.
         11    1    1    2    0    0  0.17307569574E+02 -0.77053766845E+01  0.97648939785E+02  0.99469795594E+02  0.00000000000E+00 0. -1.
</event>
<event>
 6    1  0.6981059E-006  0.8624822E+02  0.7561462E-02  0.1312200E+00
          2   -1    0    0  501    0  0.00000000000E+00  0.00000000000E+00  0.37018536859E+03  0.37018536859E+03  0.00000000000E+00 0. -1.
         -2   -1    0    0    0  501 -0.00000000000E+00 -0.00000000000E+00 -0.34552199407E+02  0.34552199407E+02  0.00000000000E+00 0.  1.
          5    1    1    2  502    0  0.80865817285E+01 -0.65254752334E+02  0.15579641925E+03  0.16915546742E+03  0.41800000000E+01 0.  1.
         -5    1    1    2    0  502  0.20530026673E+02  0.48958807391E+02  0.45108579076E+02  0.69790422857E+02  0.41800000000E+01 0.  1.
        -11    1    1    2    0    0 -0.59641694604E+01  0.27461501175E+02 -0.61897992839E+00  0.28108512950E+02  0.00000000000E+00 0.  1.
         11    1    1    2    0    0 -0.22652438941E+02 -0.11165556232E+02  0.13534715078E+03  0.13768316477E+03  0.00000000000E+00 0. -1.
</event>
<event>
 6    1  0.9969599E-006  0.9285017E+02  0.7561462E-02  0.1296093E+00
          1   -1    0    0  501    0  0.00000000000E+00  0.00000000000E+00  0.56915390931E+03  0.56915390931E+03  0.00000000000E+00 0. -1.
         -1   -1    0    0    0  501 -0.00000000000E+00 -0.00000000000E+00 -0.28521120114E+02  0.28521120114E+02  0.00000000000E+00 0.  1.
          5    1    1    2  502    0 -0.35535960011E+01  0.39217159214E+00 -0.12311467503E+02  0.13484304771E+02  0.41800000000E+01 0. -1.
         -5    1    1    2    0  502  0.64025705173E+02  0.24591823876E+02  0.28997399891E+03  0.29800409589E+03  0.41800000000E+01 0. -1.
        -11    1    1    2    0    0  0.20874537584E+02  0.97444999619E+01  0.74758799383E+02  0.78227742420E+02  0.00000000000E+00 0.  1.
         11    1    1    2    0    0 -0.81346646756E+02 -0.34728495430E+02  0.18821145840E+03  0.20795888634E+03  0.00000000000E+00 0. -1.
</event>
<event>
 6    1  0.6981059E-006  0.1073220E+03  0.7561462E-02  0.1265611E+00
          1   -1    0    0  501    0  0.00000000000E+00  0.00000000000E+00  0.35331212636E+03  0.35331212636E+03  0.00000000000E+00 0. -1.
         -1   -1    0    0    0  501 -0.00000000000E+00 -0.00000000000E+00 -0.47968258454E+02  0.47968258454E+02  0.00000000000E+00 0.  1.
          5    1    1    2  502    0 -0.26631624211E+02 -0.34555329998E+02  0.56593065936E+02  0.71579059448E+02  0.41800000000E+01 0.  1.
         -5    1    1    2    0  502  0.54092380036E+01  0.96675244189E+02  0.15697559196E+03  0.18448352654E+03  0.41800000000E+01 0.  1.
        -11    1    1    2    0    0  0.25294727771E+02 -0.21849925019E+02 -0.10653574008E+02  0.35081920066E+02  0.00000000000E+00 0.  1.
         11    1    1    2    0    0 -0.40723415636E+01 -0.40269989172E+02  0.10242878402E+03  0.11013587876E+03  0.00000000000E+00 0. -1.
</event>
<event>
 6    1  0.6981059E-006  0.8789147E+02  0.7561462E-02  0.1308040E+00
          1   -1    0    0  501    0  0.00000000000E+00  0.00000000000E+00  0.11354504996E+02  0.11354504996E+02  0.00000000000E+00 0. -1.
         -1   -1    0    0    0  501 -0.00000000000E+00 -0.00000000000E+00 -0.15667840843E+04  0.15667840843E+04  0.00000000000E+00 0.  1.
          5    1    1    2  502    0 -0.35937461792E+02  0.13540394314E+02 -0.11127640338E+04  0.11134343765E+04  0.41800000000E+01 0. -1.
         -5    1    1    2    0  502  0.42655434779E+02 -0.20185434748E+02 -0.21063485313E+03  0.21589685418E+03  0.41800000000E+01 0. -1.
        -11    1    1    2    0    0 -0.41337111210E+02  0.27230533533E+02 -0.12430170285E+03  0.13379526169E+03  0.00000000000E+00 0.  1.
         11    1    1    2    0    0  0.34619138222E+02 -0.20585493099E+02 -0.10772898959E+03  0.11501209700E+03  0.00000000000E+00 0. -1.
</event>
<event>
 6    1  0.6981059E-006  0.1166466E+03  0.7561462E-02  0.1248734E+00
          1   -1    0    0  501    0  0.00000000000E+00  0.00000000000E+00  0.17485144467E+02  0.17485144467E+02  0.00000000000E+00 0. -1.
         -1   -1    0    0    0  501 -0.00000000000E+00 -0.00000000000E+00 -0.13881268779E+04  0.13881268779E+04  0.00000000000E+00 0.  1.
          5    1    1    2  502    0 -0.22466042308E+02 -0.10141233151E+03 -0.29222967663E+03  0.31016905124E+03  0.41800000000E+01 0. -1.
         -5    1    1    2    0  502  0.10274160262E+02  0.24706472148E+02 -0.65497112693E+03  0.65553079077E+03  0.41800000000E+01 0.  1.
        -11    1    1    2    0    0  0.16390335322E+02 -0.74439432217E+01 -0.16761991375E+02  0.24597148971E+02  0.00000000000E+00 0. -1.
         11    1    1    2    0    0 -0.41984532763E+01  0.84149802583E+02 -0.40667893852E+03  0.41531503142E+03  0.00000000000E+00 0.  1.
</event>
<event>
 6    1  0.6981059E-006  0.1436903E+03  0.7561462E-02  0.1208448E+00
         -1   -1    0    0    0  501 -0.00000000000E+00  0.00000000000E+00  0.10578529424E+03  0.10578529424E+03  0.00000000000E+00 0.  1.
          1   -1    0    0  501    0  0.00000000000E+00 -0.00000000000E+00 -0.24402796404E+03  0.24402796404E+03  0.00000000000E+00 0. -1.
          5    1    1    2  502    0  0.13279858633E+02 -0.52037250063E+02 -0.22149183119E+02  0.58243358009E+02  0.41800000000E+01 0. -1.
         -5    1    1    2    0  502 -0.11289224900E+03  0.33584302824E+00 -0.16116812789E+02  0.11411396378E+03  0.41800000000E+01 0. -1.
        -11    1    1    2    0    0  0.43528279287E+02 -0.10608349557E+01  0.85642320473E+01  0.44375472269E+02  0.00000000000E+00 0.  1.
         11    1    1    2    0    0  0.56084111077E+02  0.52762241990E+02 -0.10854090594E+03  0.13308046422E+03  0.00000000000E+00 0. -1.
</event>
<event>
 6    1  0.6981059E-006  0.1106169E+03  0.7561462E-02  0.1259432E+00
         -3   -1    0    0    0  501 -0.00000000000E+00  0.00000000000E+00  0.17007419271E+03  0.17007419271E+03  0.00000000000E+00 0.  1.
          3   -1    0    0  501    0  0.00000000000E+00 -0.00000000000E+00 -0.77598623308E+02  0.77598623308E+02  0.00000000000E+00 0. -1.
          5    1    1    2  502    0 -0.17961906865E+02 -0.46721260688E+02  0.40790762503E+02  0.64705988935E+02  0.41800000000E+01 0. -1.
         -5    1    1    2    0  502 -0.28146827547E+02  0.64919325410E+02  0.17176963341E+02  0.72933416088E+02  0.41800000000E+01 0.  1.
        -11    1    1    2    0    0 -0.19034367451E+01  0.31187386196E+02  0.25969773624E+02  0.40628872385E+02  0.00000000000E+00 0.  1.
         11    1    1    2    0    0  0.48012171157E+02 -0.49385450918E+02  0.85380699345E+01  0.69404538611E+02  0.00000000000E+00 0. -1.
</event>
<event>
 6    1  0.6981059E-006  0.1732560E+03  0.7561462E-02  0.1174494E+00
          2   -1    0    0  501    0  0.00000000000E+00  0.00000000000E+00  0.15183332385E+03  0.15183332385E+03  0.00000000000E+00 0. -1.
         -2   -1    0    0    0  501 -0.00000000000E+00 -0.00000000000E+00 -0.25846217827E+03  0.25846217827E+03  0.00000000000E+00 0.  1.
          5    1    1    2  502    0  0.32860701342E+00  0.21165112610E+02  0.35114993043E+02  0.41214137268E+02  0.41800000000E+01 0.  1.
         -5    1    1    2    0  502 -0.67633840108E+02  0.12983966663E+03 -0.95026205553E+02  0.17458558789E+03  0.41800000000E+01 0.  1.
        -11    1    1    2    0    0  0.28473191360E+02 -0.13238349663E+03 -0.64935347040E+01  0.13556651061E+03  0.00000000000E+00 0. -1.
         11    1    1    2    0    0  0.38832041735E+02 -0.18621282613E+02 -0.40224107204E+02  0.58929266343E+02  0.00000000000E+00 0.  1.
</event>
<event>
 6    1  0.6981059E-006  0.1475641E+03  0.7561462E-02  0.1203499E+00
         -2   -1    0    0    0  501 -0.00000000000E+00  0.00000000000E+00  0.47109562921E+02  0.47109562921E+02  0.00000000000E+00 0.  1.
          2   -1    0    0  501    0  0.00000000000E+00 -0.00000000000E+00 -0.56916352429E+03  0.56916352429E+03  0.00000000000E+00 0. -1.
          5    1    1    2  502    0 -0.33296998019E+02  0.16115679790E+02 -0.79128949790E+02  0.87448660979E+02  0.41800000000E+01 0.  1.
         -5    1    1    2    0  502  0.10812376134E+03  0.78485730581E+02 -0.16898563613E+03  0.21546316458E+03  0.41800000000E+01 0.  1.
        -11    1    1    2    0    0 -0.33147988867E+02 -0.65454248112E+02 -0.24299022804E+03  0.25382533105E+03  0.00000000000E+00 0. -1.
         11    1    1    2    0    0 -0.41678774450E+02 -0.29147162259E+02 -0.30949147408E+02  0.59535930603E+02  0.00000000000E+00 0.  1.
</event>
<event>
 6    1  0.6981059E-006  0.1227732E+03  0.7561462E-02  0.1238591E+00
          2   -1    0    0  501    0  0.00000000000E+00  0.00000000000E+00  0.42343581719E+03  0.42343581719E+03  0.00000000000E+00 0. -1.
         -2   -1    0    0    0  501 -0.00000000000E+00 -0.00000000000E+00 -0.38718515571E+02  0.38718515571E+02  0.00000000000E+00 0.  1.
          5    1    1    2  502    0 -0.81658872205E+02 -0.54130219973E+02  0.15593299492E+03  0.18420321232E+03  0.41800000000E+01 0. -1.
         -5    1    1    2    0  502  0.41297245967E+02  0.36177648768E+01  0.90395899467E+02  0.99536133075E+02  0.41800000000E+01 0. -1.
        -11    1    1    2    0    0 -0.18956906101E+02  0.41758594408E+02  0.91313492259E+02  0.10218267155E+03  0.00000000000E+00 0. -1.
         11    1    1    2    0    0  0.59318532339E+02  0.87538606883E+01  0.47074914980E+02  0.76232315826E+02  0.00000000000E+00 0.  1.
</event>
<event>
 6    1  0.6981059E-006  0.1617037E+03  0.7561462E-02  0.1186787E+00
          1   -1    0    0  501    0  0.00000000000E+00  0.00000000000E+00  0.13881654183E+03  0.13881654183E+03  0.00000000000E+00 0. -1.
         -1   -1    0    0    0  501 -0.00000000000E+00 -0.00000000000E+00 -0.31063287061E+03  0.31063287061E+03  0.00000000000E+00 0.  1.
          5    1    1    2  502    0 -0.31293757300E+02  0.14272677563E+02  0.61154613952E+01  0.35183516579E+02  0.41800000000E+01 0.  1.
         -5    1    1    2    0  502 -0.66372402586E+01  0.12464093768E+03 -0.20758517572E+03  0.24225708221E+03  0.41800000000E+01 0.  1.
        -11    1    1    2    0    0 -0.24347423963E+02 -0.33083205827E+02 -0.11234126565E+02  0.42585222333E+02  0.00000000000E+00 0. -1.
         11    1    1    2    0    0  0.62278421521E+02 -0.10583040942E+03  0.40887512104E+02  0.12942359132E+03  0.00000000000E+00 0.  1.
</event>
<event>
 6    1  0.6981059E-006  0.2450725E+03  0.7561462E-02  0.1116459E+00
         -2   -1    0    0    0  501 -0.00000000000E+00  0.00000000000E+00  0.16757443418E+04  0.16757443418E+04  0.00000000000E+00 0.  1.
          2   -1    0    0  501    0  0.00000000000E+00 -0.00000000000E+00 -0.52579311763E+02  0.52579311763E+02  0.00000000000E+00 0. -1.
          5    1    1    2  502    0  0.64651525872E+01 -0.88923614029E+01  0.27337969183E+03  0.27363260149E+03  0.41800000000E+01 0. -1.
         -5    1    1    2    0  502 -0.11202385437E+03 -0.20815093133E+03  0.94941621890E+03  0.97840931274E+03  0.41800000000E+01 0.  1.
        -11    1    1    2    0    0  0.87726287193E+02  0.19325813667E+03  0.39138422261E+03  0.44522603087E+03  0.00000000000E+00 0. -1.
         11    1    1    2    0    0  0.17832414591E+02  0.23785156061E+02  0.89848966818E+01  0.31055708451E+02  0.00000000000E+00 0.  1.
</event>
<event>
 6    1  0.6981059E-006  0.1326875E+03  0.7561462E-02  0.1223522E+00
         -1   -1    0    0    0  501 -0.00000000000E+00  0.00000000000E+00  0.56757732001E+02  0.56757732001E+02  0.00000000000E+00 0.  1.
          1   -1    0    0  501    0  0.00000000000E+00 -0.00000000000E+00 -0.51859279688E+03  0.51859279688E+03  0.00000000000E+00 0. -1.
          5    1    1    2  502    0 -0.61793807714E+02  0.27172328761E+01 -0.39722661350E+02  0.73628936235E+02  0.41800000000E+01 0. -1.
         -5    1    1    2    0  502  0.34168696171E+02 -0.87462663735E+02 -0.43021144174E+02  0.10337073373E+03  0.41800000000E+01 0.  1.
        -11    1    1    2    0    0 -0.17829605044E+02  0.47120533921E+02 -0.26664619230E+03  0.27136402009E+03  0.00000000000E+00 0. -1.
         11    1    1    2    0    0  0.45454716588E+02  0.37624896938E+02 -0.11244506706E+03  0.12698683883E+03  0.00000000000E+00 0.  1.
</event>
<event>
 6    1  0.6981059E-006  0.8241660E+02  0.7561462E-02  0.1322330E+00
         -2   -1    0    0    0  501 -0.00000000000E+00  0.00000000000E+00  0.44384702255E+02  0.44384702255E+02  0.00000000000E+00 0. -1.
          2   -1    0    0  501    0  0.00000000000E+00 -0.00000000000E+00 -0.38095450963E+03  0.38095450963E+03  0.00000000000E+00 0.  1.
          5    1    1    2  502    0 -0.18107756693E+02 -0.12006946993E+02 -0.17328642075E+03  0.17469319862E+03  0.41800000000E+01 0.  1.
         -5    1    1    2    0  502 -0.53086192461E+02  0.11367581480E+01 -0.32845246085E+01  0.53363813123E+02  0.41800000000E+01 0.  1.
        -11    1    1    2    0    0  0.58704109478E+02 -0.15111056672E+02 -0.15700395307E+03  0.16829960720E+03  0.00000000000E+00 0.  1.
         11    1    1    2    0    0  0.12489839676E+02  0.25981245517E+02 -0.29949089411E+01  0.28982592937E+02  0.00000000000E+00 0. -1.
</event>
<event>
 6    1  0.6981059E-006  0.1066979E+03  0.7561462E-02  0.1266810E+00
         -2   -1    0    0    0  501 -0.00000000000E+00  0.00000000000E+00  0.10852561975E+03  0.10852561975E+03  0.00000000000E+00 0.  1.
          2   -1    0    0  501    0  0.00000000000E+00 -0.00000000000E+00 -0.11542187542E+03  0.11542187542E+03  0.00000000000E+00 0. -1.
          5    1    1    2  502    0 -0.67854102329E+01  0.51298470562E+02  0.20811747519E+02  0.55930100203E+02  0.41800000000E+01 0. -1.
         -5    1    1    2    0  502  0.14443197167E+02 -0.68886220806E+02 -0.94142569618E+01  0.71133803466E+02  0.41800000000E+01 0. -1.
        -11    1    1    2    0    0 -0.75476369413E+01  0.54018330384E+02  0.31080162696E+01  0.54631553209E+02  0.00000000000E+00 0.  1.
         11    1    1    2    0    0 -0.11014999311E+00 -0.36430580140E+02 -0.21401762493E+02  0.42252038296E+02  0.00000000000E+00 0. -1.
</event>
<event>
 6    1  0.6981059E-006  0.8772991E+02  0.7561462E-02  0.1308444E+00
         -1   -1    0    0    0  501 -0.00000000000E+00  0.00000000000E+00  0.19487855500E+03  0.19487855500E+03  0.00000000000E+00 0.  1.
          1   -1    0    0  501    0  0.00000000000E+00 -0.00000000000E+00 -0.78183848353E+02  0.78183848353E+02  0.00000000000E+00 0. -1.
          5    1    1    2  502    0 -0.50574444071E+02 -0.17290042507E+02 -0.25073773824E+02  0.59185188154E+02  0.41800000000E+01 0.  1.
         -5    1    1    2    0  502  0.17135942395E+01 -0.14380880732E+02  0.93724489327E+02  0.94928912537E+02  0.41800000000E+01 0.  1.
        -11    1    1    2    0    0  0.26190596376E+02 -0.30733793588E+02  0.72582502684E+01  0.41026766919E+02  0.00000000000E+00 0.  1.
         11    1    1    2    0    0  0.22670253456E+02  0.62404716828E+02  0.40785740880E+02  0.77921535747E+02  0.00000000000E+00 0. -1.
</event>
<event>
 6    1  0.6981059E-006  0.1080466E+03  0.7561462E-02  0.1264231E+00
         -2   -1    0    0    0  501 -0.00000000000E+00  0.00000000000E+00  0.64135710226E+02  0.64135710226E+02  0.00000000000E+00 0.  1.
          2   -1    0    0  501    0  0.00000000000E+00 -0.00000000000E+00 -0.33060881890E+03  0.33060881890E+03  0.00000000000E+00 0. -1.
          5    1    1    2  502    0  0.10453961139E+02  0.30624028767E+02 -0.90179726908E+02  0.95900844556E+02  0.41800000000E+01 0. -1.
         -5    1    1    2    0  502  0.98741808710E+01 -0.78384981554E+02  0.14915503958E+02  0.80508691701E+02  0.41800000000E+01 0.  1.
        -11    1    1    2    0    0 -0.51130105718E+02  0.52386714233E+02 -0.14746914922E+03  0.16463840837E+03  0.00000000000E+00 0. -1.
         11    1    1    2    0    0  0.30801963709E+02 -0.46257614454E+01 -0.43739736502E+02  0.53696584496E+02  0.00000000000E+00 0.  1.
</event>
<event>
 6    1  0.6981059E-006  0.1669505E+03  0.7561462E-02  0.1181066E+00
          3   -1    0    0  501    0  0.00000000000E+00  0.00000000000E+00  0.91639048849E+03  0.91639048849E+03  0.00000000000E+00 0. -1.
         -3   -1    0    0    0  501 -0.00000000000E+00 -0.00000000000E+00 -0.43331645594E+02  0.43331645594E+02  0.00000000000E+00 0.  1.
          5    1    1    2  502    0 -0.51480510298E+02 -0.11354692412E+03  0.34309689964E+03  0.36506999584E+03  0.41800000000E+01 0.  1.
         -5    1    1    2    0  502 -0.38926647765E+02 -0.20416813251E+02  0.13872952111E+02  0.46282408859E+02  0.41800000000E+01 0.  1.
        -11    1    1    2    0    0  0.13752823447E+02  0.47515848680E+02  0.59437307652E+02  0.77328452522E+02  0.00000000000E+00 0.  1.
         11    1    1    2    0    0  0.76654334616E+02  0.86447888690E+02  0.45665168349E+03  0.47104127686E+03  0.00000000000E+00 0. -1.
</event>
<event>
 6    1  0.6981059E-006  0.1285116E+03  0.7561462E-02  0.1229681E+00
         -2   -1    0    0    0  501 -0.00000000000E+00  0.00000000000E+00  0.99610000958E+02  0.99610000958E+02  0.00000000000E+00 0.  1.
          2   -1    0    0  501    0  0.00000000000E+00 -0.00000000000E+00 -0.24277190841E+03  0.24277190841E+03  0.00000000000E+00 0. -1.
          5    1    1    2  502    0  0.10545385467E+03 -0.44760430854E+02  0.75196230877E+01  0.11488267392E+03  0.41800000000E+01 0.  1.
         -5    1    1    2    0  502 -0.24633945278E+01  0.30058750818E+02 -0.41260549445E+02  0.51278671529E+02  0.41800000000E+01 0.  1.
        -11    1    1    2    0    0 -0.63693371441E+01  0.13927491953E+02  0.13120924133E+02  0.20166857412E+02  0.00000000000E+00 0.  1.
         11    1    1    2    0    0 -0.96621123002E+02  0.77418808216E+00 -0.12254190523E+03  0.15605370651E+03  0.00000000000E+00 0. -1.
</event>
<event>
 6    1  0.6981059E-006  0.1388453E+03  0.7561462E-02  0.1214891E+00
         -2   -1    0    0    0  501 -0.00000000000E+00  0.00000000000E+00  0.44488579849E+03  0.44488579849E+03  0.00000000000E+00 0.  1.
          2   -1    0    0  501    0  0.00000000000E+00 -0.00000000000E+00 -0.51647079401E+02  0.51647079401E+02  0.00000000000E+00 0. -1.
          5    1    1    2  502    0 -0.76927381101E+02  0.67070794265E+02  0.85134736851E+02  0.13297258825E+03  0.41800000000E+01 0. -1.
         -5    1    1    2    0  502  0.26091453256E+02  0.26552742160E+02  0.14524699261E+03  0.14999991104E+03  0.41800000000E+01 0. -1.
        -11    1    1    2    0    0  0.53854507818E+02 -0.10453760497E+02  0.61475293640E+02  0.82394179703E+02  0.00000000000E+00 0.  1.
         11    1    1    2    0    0 -0.30185799727E+01 -0.83169775927E+02  0.10138169598E+03  0.13116619890E+03  0.00000000000E+00 0. -1.
</event>
<event>
 6    1  0.6981059E-006  0.1042269E+03  0.7561462E-02  0.1271650E+00
          2   -1    0    0  501    0  0.00000000000E+00  0.00000000000E+00  0.11453820851E+03  0.11453820851E+03  0.00000000000E+00 0. -1.
         -2   -1    0    0    0  501 -0.00000000000E+00 -0.00000000000E+00 -0.13809313025E+03  0.13809313025E+03  0.00000000000E+00 0.  1.
          5    1    1    2  502    0  0.64616952125E+02 -0.38606985518E+02 -0.44991046288E+02  0.87792462540E+02  0.41800000000E+01 0. -1.
         -5    1    1    2    0  502 -0.47389044492E+02  0.21016409161E+02 -0.26225797802E+02  0.58246681126E+02  0.41800000000E+01 0. -1.
        -11    1    1    2    0    0  0.27753825815E+02  0.22608159025E+02  0.49742212440E+02  0.61283696040E+02  0.00000000000E+00 0. -1.
         11    1    1    2    0    0 -0.44981733449E+02 -0.50175826675E+01 -0.20802900948E+01  0.45308499056E+02  0.00000000000E+00 0.  1.
</event>
<event>
 6    1  0.6981059E-006  0.1841364E+03  0.7561462E-02  0.1163859E+00
          1   -1    0    0  501    0  0.00000000000E+00  0.00000000000E+00  0.65089762078E+03  0.65089762078E+03  0.00000000000E+00 0. -1.
         -1   -1    0    0    0  501 -0.00000000000E+00 -0.00000000000E+00 -0.71656309316E+02  0.71656309316E+02  0.00000000000E+00 0.  1.
          5    1    1    2  502    0  0.16759717720E+03  0.30293604039E+02  0.11254846668E+03  0.20418409831E+03  0.41800000000E+01 0. -1.
         -5    1    1    2    0  502 -0.31566145189E+01 -0.32634565971E+02  0.44031152113E+02  0.55056279095E+02  0.41800000000E+01 0. -1.
        -11    1    1    2    0    0 -0.96006739082E+02 -0.42852649985E+01  0.35134862840E+03  0.36425474070E+03  0.00000000000E+00 0. -1.
         11    1    1    2    0    0 -0.68433823603E+02  0.66262269301E+01  0.71313064278E+02  0.99058811990E+02  0.00000000000E+00 0.  1.
</event>
<event>
 6    1  0.6981059E-006  0.1042502E+03  0.7561462E-02  0.1271604E+00
          1   -1    0    0  501    0  0.00000000000E+00  0.00000000000E+00  0.31714683904E+03  0.31714683904E+03  0.00000000000E+00 0. -1.
         -1   -1    0    0    0  501 -0.00000000000E+00 -0.00000000000E+00 -0.41874391317E+02  0.41874391317E+02  0.00000000000E+00 0.  1.
          5    1    1    2  502    0  0.12590893158E+02  0.60271952813E+02  0.98150187661E+02  0.11594037530E+03  0.41800000000E+01 0.  1.
         -5    1    1    2    0  502 -0.42003004179E+02 -0.42204298816E+02  0.31504725517E+02  0.67494261449E+02  0.41800000000E+01 0.  1.
        -11    1    1    2    0    0  0.34159358445E+02  0.25902612720E+02  0.31497999693E+02  0.53197096723E+02  0.00000000000E+00 0.  1.
         11    1    1    2    0    0 -0.47472474244E+01 -0.43970266717E+02  0.11411953485E+03  0.12238949688E+03  0.00000000000E+00 0. -1.
</event>
<event>
 6    1  0.6981059E-006  0.9757257E+02  0.7561462E-02  0.1285485E+00
         -1   -1    0    0    0  501 -0.00000000000E+00  0.00000000000E+00  0.14860886374E+03  0.14860886374E+03  0.00000000000E+00 0.  1.
          1   -1    0    0  501    0  0.00000000000E+00 -0.00000000000E+00 -0.12905660817E+03  0.12905660817E+03  0.00000000000E+00 0. -1.
          5    1    1    2  502    0 -0.36459164243E+01  0.30651632193E+01  0.70938578541E+02  0.71221080149E+02  0.41800000000E+01 0.  1.
         -5    1    1    2    0  502  0.77317202763E+02  0.14863523109E+02 -0.23946829073E+02  0.82400225636E+02  0.41800000000E+01 0.  1.
        -11    1    1    2    0    0 -0.26387465027E+02  0.31814553585E+02  0.14276846929E+02  0.43729766620E+02  0.00000000000E+00 0.  1.
         11    1    1    2    0    0 -0.47283821312E+02 -0.49743239914E+02 -0.41716340827E+02  0.80314399499E+02  0.00000000000E+00 0. -1.
</event>
<event>
 6    1  0.7863957E-006  0.1107322E+03  0.7561462E-02  0.1259220E+00
         -1   -1    0    0    0  501 -0.00000000000E+00  0.00000000000E+00  0.74452023273E+02  0.74452023273E+02  0.00000000000E+00 0.  1.
          1   -1    0    0  501    0  0.00000000000E+00 -0.00000000000E+00 -0.26737679712E+03  0.26737679712E+03  0.00000000000E+00 0. -1.
          5    1    1    2  502    0 -0.38125086594E+02  0.29868688502E+02  0.24224468175E+02  0.54313516172E+02  0.41800000000E+01 0.  1.
         -5    1    1    2    0  502 -0.49166371662E+02 -0.16969091215E+02 -0.10858867428E+03  0.12047512084E+03  0.41800000000E+01 0.  1.
        -11    1    1    2    0    0 -0.66148586603E+01 -0.25117968486E+02 -0.48164811000E+02  0.54722186676E+02  0.00000000000E+00 0. -1.
         11    1    1    2    0    0  0.93906316916E+02  0.12218371200E+02 -0.60395756738E+02  0.11231799670E+03  0.00000000000E+00 0.  1.
</event>
<event>
 6    1  0.6981059E-006  0.1058558E+03  0.7561462E-02  0.1268443E+00
         -3   -1    0    0    0  501 -0.00000000000E+00  0.00000000000E+00  0.10519266042E+03  0.10519266042E+03  0.00000000000E+00 0.  1.
          3   -1    0    0  501    0  0.00000000000E+00 -0.00000000000E+00 -0.16935631935E+03  0.16935631935E+03  0.00000000000E+00 0. -1.
          5    1    1    2  502    0  0.97192977772E+02  0.16030041891E+02 -0.33797252217E+02  0.10422650252E+03  0.41800000000E+01 0.  1.
         -5    1    1    2    0  502 -0.28364130648E+02  0.68625453297E+01  0.27767568322E+02  0.40498502273E+02  0.41800000000E+01 0.  1.
        -11    1    1    2    0    0 -0.31981170923E+02 -0.32459072915E+02  0.14499420972E+02  0.47818614750E+02  0.00000000000E+00 0.  1.
         11    1    1    2    0    0 -0.36847676201E+02  0.95664856947E+01 -0.72633396008E+02  0.82005360225E+02  0.00000000000E+00 0. -1.
</event>
<event>
 6    1  0.6981059E-006  0.1225254E+03  0.7561462E-02  0.1238988E+00
         -2   -1    0    0    0  501 -0.00000000000E+00  0.00000000000E+00  0.12477162314E+03  0.12477162314E+03  0.00000000000E+00 0.  1.
          2   -1    0    0  501    0  0.00000000000E+00 -0.00000000000E+00 -0.13258247801E+03  0.13258247801E+03  0.00000000000E+00 0. -1.
          5    1    1    2  502    0 -0.53276570476E+02 -0.40657375188E+02  0.32586134878E+02  0.74637414915E+02  0.41800000000E+01 0. -1.
         -5    1    1    2    0  502  0.62731121434E+02 -0.23149060220E+02 -0.10540568131E+02  0.67820708946E+02  0.41800000000E+01 0. -1.
        -11    1    1    2    0    0  0.34381165546E+02  0.11025703127E+01 -0.10744346484E+02  0.36037774446E+02  0.00000000000E+00 0.  1.
         11    1    1    2    0    0 -0.43835716504E+02  0.62703865095E+02 -0.19112075133E+02  0.78858202839E+02  0.00000000000E+00 0. -1.
</event>
<event>
 6    1  0.6981059E-006  0.1062478E+03  0.7561462E-02  0.1267680E+00
          1   -1    0    0  501    0  0.00000000000E+00  0.00000000000E+00  0.68329637856E+02  0.68329637856E+02  0.00000000000E+00 0. -1.
         -1   -1    0    0    0  501 -0.00000000000E+00 -0.00000000000E+00 -0.18523535123E+03  0.18523535123E+03  0.00000000000E+00 0.  1.
          5    1    1    2  502    0 -0.65405992578E+02 -0.20856987958E+02 -0.75071730991E+02  0.10181451275E+03  0.41800000000E+01 0. -1.
         -5    1    1    2    0  502  0.47509685437E+02 -0.11038779073E+01 -0.18513437471E+01  0.47741895966E+02  0.41800000000E+01 0. -1.
        -11    1    1    2    0    0  0.21116150663E+01  0.57283536978E+02 -0.23351727984E+02  0.61896411259E+02  0.00000000000E+00 0. -1.
         11    1    1    2    0    0  0.15784692074E+02 -0.35322671113E+02 -0.16630910650E+02  0.42112169114E+02  0.00000000000E+00 0.  1.
</event>
<event>
 6    1  0.6981059E-006  0.1150868E+03  0.7561462E-02  0.1251430E+00
         -2   -1    0    0    0  501 -0.00000000000E+00  0.00000000000E+00  0.34736168192E+02  0.34736168192E+02  0.00000000000E+00 0.  1.
          2   -1    0    0  501    0  0.00000000000E+00 -0.00000000000E+00 -0.53673511480E+03  0.53673511480E+03  0.00000000000E+00 0. -1.
          5    1    1    2  502    0 -0.36561061462E+02 -0.61983065714E+02 -0.42723798845E+02  0.83793836517E+02  0.41800000000E+01 0. -1.
         -5    1    1    2    0  502 -0.67560148592E+01  0.33259116053E+02 -0.12325790323E+03  0.12791323484E+03  0.41800000000E+01 0.  1.
        -11    1    1    2    0    0 -0.30165148873E+02  0.39420959662E+02 -0.18403049270E+03  0.19060737265E+03  0.00000000000E+00 0.  1.
         11    1    1    2    0    0  0.73482225194E+02 -0.10697010001E+02 -0.15198675183E+03  0.16915683899E+03  0.00000000000E+00 0. -1.
</event>
<event>
 6    1  0.6981059E-006  0.1373228E+03  0.7561462E-02  0.1216977E+00
         -4   -1    0    0    0  501 -0.00000000000E+00  0.00000000000E+00  0.54892793721E+03  0.54892793721E+03  0.00000000000E+00 0.  1.
          4   -1    0    0  501    0  0.00000000000E+00 -0.00000000000E+00 -0.54714684118E+02  0.54714684118E+02  0.00000000000E+00 0. -1.
          5    1    1    2  502    0 -0.18030343602E+02 -0.57013907592E+01  0.68314331084E+01  0.20536309924E+02  0.41800000000E+01 0.  1.
         -5    1    1    2    0  502  0.11512198248E+03 -0.29537585600E+02  0.40480369946E+03  0.42191118414E+03  0.41800000000E+01 0.  1.
        -11    1    1    2    0    0 -0.14751248453E+02  0.50501277688E+02  0.18574176971E+02  0.55794071631E+02  0.00000000000E+00 0. -1.
         11    1    1    2    0    0 -0.82340390422E+02 -0.15262301329E+02  0.64003943553E+02  0.10540105563E+03  0.00000000000E+00 0.  1.
</event>
<event>
 6    1  0.6981059E-006  0.1146723E+03  0.7561462E-02  0.1252154E+00
          1   -1    0    0  501    0  0.00000000000E+00  0.00000000000E+00  0.44295014380E+03  0.44295014380E+03  0.00000000000E+00 0. -1.
         -1   -1    0    0    0  501 -0.00000000000E+00 -0.00000000000E+00 -0.35061956207E+02  0.35061956207E+02  0.00000000000E+00 0.  1.
          5    1    1    2  502    0  0.16080965058E+02  0.71052112073E+02  0.12956849049E+03  0.14870260991E+03  0.41800000000E+01 0. -1.
         -5    1    1    2    0  502 -0.43757271583E+02 -0.29355492292E+02  0.32485321527E+02  0.62042020106E+02  0.41800000000E+01 0. -1.
        -11    1    1    2    0    0 -0.42892985253E+01  0.27216338716E+02  0.85863311090E+02  0.90175580765E+02  0.00000000000E+00 0. -1.
         11    1    1    2    0    0  0.31965605051E+02 -0.68912958498E+02  0.15997106449E+03  0.17709188922E+03  0.00000000000E+00 0.  1.
</event>
<event>
 6    1  0.6981059E-006  0.1446693E+03  0.7561462E-02  0.1207181E+00
          1   -1    0    0  501    0  0.00000000000E+00  0.00000000000E+00  0.73100862630E+03  0.73100862630E+03  0.00000000000E+00 0. -1.
         -1   -1    0    0    0  501 -0.00000000000E+00 -0.00000000000E+00 -0.44619197718E+02  0.44619197718E+02  0.00000000000E+00 0.  1.
          5    1    1    2  502    0  0.31035330324E+02  0.52788013909E+02  0.22731757789E+02  0.65452053848E+02  0.41800000000E+01 0. -1.
         -5    1    1    2    0  502 -0.10737418814E+03 -0.66750193191E+02  0.25730904921E+03  0.28672325294E+03  0.41800000000E+01 0.  1.
        -11    1    1    2    0    0 -0.12064746091E+02  0.91367817384E+00  0.64896116706E+01  0.13729820308E+02  0.00000000000E+00 0.  1.
         11    1    1    2    0    0  0.88403603910E+02  0.13048501109E+02  0.39985900991E+03  0.40972269692E+03  0.00000000000E+00 0. -1.
</event>
<event>
 6    1  0.6981059E-006  0.1232943E+03  0.7561462E-02  0.1237759E+00
          2   -1    0    0  501    0  0.00000000000E+00  0.00000000000E+00  0.68100955564E+03  0.68100955564E+03  0.00000000000E+00 0. -1.
         -2   -1    0    0    0  501 -0.00000000000E+00 -0.00000000000E+00 -0.26078924330E+02  0.26078924330E+02  0.00000000000E+00 0.  1.
          5    1    1    2  502    0  0.95941096418E+02  0.49181317772E+02  0.18395879223E+03  0.21326463757E+03  0.41800000000E+01 0. -1.
         -5    1    1    2    0  502 -0.20289772733E+02 -0.18512859860E+02  0.15046610091E+03  0.15300954473E+03  0.41800000000E+01 0. -1.
        -11    1    1    2    0    0 -0.21588910470E+02 -0.49227538033E+02  0.20512746536E+03  0.21205355126E+03  0.00000000000E+00 0. -1.
         11    1    1    2    0    0 -0.54062413215E+02  0.18559080122E+02  0.11537827281E+03  0.12876074640E+03  0.00000000000E+00 0.  1.
</event>
<event>
 6    1  0.6981059E-006  0.2553554E+03  0.7561462E-02  0.1109966E+00
          1   -1    0    0  501    0  0.00000000000E+00  0.00000000000E+00  0.73069271573E+03  0.73069271573E+03  0.00000000000E+00 0. -1.
         -1   -1    0    0    0  501 -0.00000000000E+00 -0.00000000000E+00 -0.11358206987E+03  0.11358206987E+03  0.00000000000E+00 0.  1.
          5    1    1    2  502    0 -0.94570344780E+02 -0.62286924387E+02  0.11420848237E+03  0.16088586298E+03  0.41800000000E+01 0. -1.
         -5    1    1    2    0  502  0.18677866823E+03  0.15731825009E+03  0.12922330675E+03  0.27631763990E+03  0.41800000000E+01 0.  1.
        -11    1    1    2    0    0 -0.37263504397E+02  0.63892598542E+01  0.45193675722E+02  0.58922489142E+02  0.00000000000E+00 0.  1.
         11    1    1    2    0    0 -0.54944819048E+02 -0.10142058556E+03  0.32848518102E+03  0.34814879357E+03  0.00000000000E+00 0. -1.
</event>
<event>
 6    1  0.6981059E-006  0.1364274E+03  0.7561462E-02  0.1218219E+00
         -1   -1    0    0    0  501 -0.00000000000E+00  0.00000000000E+00  0.65345441331E+02  0.65345441331E+02  0.00000000000E+00 0.  1.
          1   -1    0    0  501    0  0.00000000000E+00 -0.00000000000E+00 -0.35221349732E+03  0.35221349732E+03  0.00000000000E+00 0. -1.
          5    1    1    2  502    0 -0.22984407851E+02 -0.24260134382E+02 -0.16085417934E+02  0.37323587644E+02  0.41800000000E+01 0.  1.
         -5    1    1    2    0  502  0.66967201608E+02  0.95864067252E+02 -0.50993110844E+02  0.12764127559E+03  0.41800000000E+01 0.  1.
        -11    1    1    2    0    0 -0.59548071388E+02 -0.12241480093E+02 -0.13367421113E+03  0.14684897467E+03  0.00000000000E+00 0. -1.
         11    1    1    2    0    0  0.15565277631E+02 -0.59362452777E+02 -0.86115316077E+02  0.10574510074E+03  0.00000000000E+00 0.  1.
</event>
<event>
 6    1  0.6981059E-006  0.1111421E+03  0.7561462E-02  0.1258469E+00
          4   -1    0    0  501    0  0.00000000000E+00  0.00000000000E+00  0.26006874059E+03  0.26006874059E+03  0.00000000000E+00 0. -1.
         -4   -1    0    0    0  501 -0.00000000000E+00 -0.00000000000E+00 -0.67941931711E+02  0.67941931711E+02  0.00000000000E+00 0.  1.
          5    1    1    2  502    0 -0.46344702337E+02  0.74186907354E+02  0.66989425595E+02  0.11025690091E+03  0.41800000000E+01 0. -1.
         -5    1    1    2    0  502  0.15937544694E+02 -0.94268190798E+02  0.10376261921E+02  0.96258175438E+02  0.41800000000E+01 0.  1.
        -11    1    1    2    0    0  0.12033141325E+02  0.16291111482E+02  0.46842492760E+02  0.51033478535E+02  0.00000000000E+00 0.  1.
         11    1    1    2    0    0  0.18374016318E+02  0.37901719620E+01  0.67918628602E+02  0.70462117413E+02  0.00000000000E+00 0. -1.
</event>
<event>
 6    1  0.6981059E-006  0.9578120E+02  0.7561462E-02  0.1289426E+00
         -2   -1    0    0    0  501 -0.00000000000E+00  0.00000000000E+00  0.93926836827E+02  0.93926836827E+02  0.00000000000E+00 0.  1.
          2   -1    0    0  501    0  0.00000000000E+00 -0.00000000000E+00 -0.15846748491E+03  0.15846748491E+03  0.00000000000E+00 0. -1.
          5    1    1    2  502    0  0.16100375427E+02  0.89508586663E+02 -0.17969764885E+02  0.92797597088E+02  0.41800000000E+01 0. -1.
         -5    1    1    2    0  502 -0.25804993075E+02 -0.36561726405E+02 -0.37283878032E+01  0.45100230387E+02  0.41800000000E+01 0. -1.
        -11    1    1    2    0    0  0.95337700588E+01 -0.15977797705E+02  0.28562839481E+02  0.34088393776E+02  0.00000000000E+00 0.  1.
         11    1    1    2    0    0  0.17084758936E+00 -0.36969062553E+02 -0.71405334875E+02  0.80408100485E+02  0.00000000000E+00 0. -1.
</event>
<event>
 6    1  0.6981059E-006  0.1303441E+03  0.7561462E-02  0.1226946E+00
          2   -1    0    0  501    0  0.00000000000E+00  0.00000000000E+00  0.13905049573E+03  0.13905049573E+03  0.00000000000E+00 0. -1.
         -2   -1    0    0    0  501 -0.00000000000E+00 -0.00000000000E+00 -0.22778553784E+03  0.22778553784E+03  0.00000000000E+00 0.  1.
          5    1    1    2  502    0 -0.94780666935E+02  0.54423679928E+02 -0.16167275526E+03  0.19519442603E+03  0.41800000000E+01 0. -1.
         -5    1    1    2    0  502  0.16346560369E+02  0.47716602067E+01  0.13555077119E+02  0.22162835846E+02  0.41800000000E+01 0. -1.
        -11    1    1    2    0    0  0.23637931091E+02 -0.73449568987E+02  0.17681281438E+02  0.79159451009E+02  0.00000000000E+00 0.  1.
         11    1    1    2    0    0  0.54796175475E+02  0.14254228853E+02  0.41701354585E+02  0.70319320682E+02  0.00000000000E+00 0. -1.
</event>
<event>
 6    1  0.6981059E-006  0.9210735E+02  0.7561462E-02  0.1297827E+00
         -1   -1    0    0    0  501 -0.00000000000E+00  0.00000000000E+00  0.68377238362E+02  0.68377238362E+02  0.00000000000E+00 0.  1.
          1   -1    0    0  501    0  0.00000000000E+00 -0.00000000000E+00 -0.21306698458E+03  0.21306698458E+03  0.00000000000E+00 0. -1.
          5    1    1    2  502    0  0.63531914913E+02  0.74100387067E+01 -0.74929363617E+02  0.98605754488E+02  0.41800000000E+01 0. -1.
         -5    1    1    2    0  502 -0.66090442385E+01  0.11638074969E+02  0.31135771589E+02  0.34147224296E+02  0.41800000000E+01 0.  1.
        -11    1    1    2    0    0  0.16733153497E+02 -0.27255805865E+02 -0.15253060357E+02  0.35433504336E+02  0.00000000000E+00 0.  1.
         11    1    1    2    0    0 -0.73656024171E+02  0.82076921894E+01 -0.85643093829E+02  0.11325773982E+03  0.00000000000E+00 0. -1.
</event>
<event>
 6    1  0.6981059E-006  0.7921980E+02  0.7561462E-02  0.1331280E+00
          3   -1    0    0  501    0  0.00000000000E+00  0.00000000000E+00  0.45312179631E+03  0.45312179631E+03  0.00000000000E+00 0. -1.
         -3   -1    0    0    0  501 -0.00000000000E+00 -0.00000000000E+00 -0.34330369138E+02  0.34330369138E+02  0.00000000000E+00 0.  1.
          5    1    1    2  502    0  0.52244875822E+01  0.13978927951E+02  0.16935551902E+03  0.17006313510E+03  0.41800000000E+01 0. -1.
         -5    1    1    2    0  502 -0.45824926830E+02 -0.47853521089E+02  0.28665776622E+02  0.72312395541E+02  0.41800000000E+01 0.  1.
        -11    1    1    2    0    0 -0.11399573949E+02  0.19527008816E+02  0.56635774241E+01  0.23309450203E+02  0.00000000000E+00 0.  1.
         11    1    1    2    0    0  0.52000013196E+02  0.14347584322E+02  0.21510655411E+03  0.22176718461E+03  0.00000000000E+00 0. -1.
</event>
<event>
 6    1  0.6981059E-006  0.1203249E+03  0.7561462E-02  0.1242562E+00
          2   -1    0    0  501    0  0.00000000000E+00  0.00000000000E+00  0.49150263755E+03  0.49150263755E+03  0.00000000000E+00 0. -1.
         -2   -1    0    0    0  501 -0.00000000000E+00 -0.00000000000E+00 -0.38202856329E+02  0.38202856329E+02  0.00000000000E+00 0.  1.
          5    1    1    2  502    0 -0.29185571334E+02  0.37177147746E+02  0.67258638646E+02  0.82311206777E+02  0.41800000000E+01 0.  1.
         -5    1    1    2    0  502 -0.13744790228E+02 -0.96345828806E+02  0.14463771824E+03  0.17438170754E+03  0.41800000000E+01 0.  1.
        -11    1    1    2    0    0  0.40917844917E+02  0.45906938564E+01  0.20074735061E+03  0.20492643383E+03  0.00000000000E+00 0. -1.
         11    1    1    2    0    0  0.20125166459E+01  0.54577987203E+02  0.40656073721E+02  0.68086145733E+02  0.00000000000E+00 0.  1.
</event>
<event>
 6    1  0.6981059E-006  0.9946393E+02  0.7561462E-02  0.1281427E+00
          4   -1    0    0  501    0  0.00000000000E+00  0.00000000000E+00  0.19699315016E+03  0.19699315016E+03  0.00000000000E+00 0. -1.
         -4   -1    0    0    0  501 -0.00000000000E+00 -0.00000000000E+00 -0.95108680570E+02  0.95108680570E+02  0.00000000000E+00 0.  1.
          5    1    1    2  502    0  0.20274041986E+02 -0.29888163070E+02 -0.37934818894E+02  0.52543905019E+02  0.41800000000E+01 0. -1.
         -5    1    1    2    0  502  0.43082153615E+02  0.65225350310E+02  0.49285527687E+02  0.92503804909E+02  0.41800000000E+01 0. -1.
        -11    1    1    2    0    0 -0.65739316496E+02 -0.19921536443E+02  0.15503262819E+02  0.70419290721E+02  0.00000000000E+00 0.  1.
         11    1    1    2    0    0  0.23831208946E+01 -0.15415650797E+02  0.75030497977E+02  0.76634830080E+02  0.00000000000E+00 0. -1.
</event>
<event>
 6    1  0.6981059E-006  0.1077592E+03  0.7561462E-02  0.1264777E+00
         -1   -1    0    0    0  501 -0.00000000000E+00  0.00000000000E+00  0.14443400339E+04  0.14443400339E+04  0.00000000000E+00 0.  1.
          1   -1    0    0  501    0  0.00000000000E+00 -0.00000000000E+00 -0.15277754980E+02  0.15277754980E+02  0.00000000000E+00 0. -1.
          5    1    1    2  502    0  0.18451309842E+01  0.35222032294E+02  0.88721415160E+02  0.95566510741E+02  0.41800000000E+01 0.  1.
         -5    1    1    2    0  502  0.70909523130E+02 -0.19594072853E+02  0.10216551110E+04  0.10243089019E+04  0.41800000000E+01 0.  1.
        -11    1    1    2    0    0  0.10034641830E+02 -0.21080620633E+02  0.23531378271E+02  0.33148338816E+02  0.00000000000E+00 0. -1.
         11    1    1    2    0    0 -0.82789295943E+02  0.54526611917E+01  0.29515437441E+03  0.30659403740E+03  0.00000000000E+00 0.  1.
</event>
<event>
 6    1  0.6981059E-006  0.1338210E+03  0.7561462E-02  0.1221894E+00
         -1   -1    0    0    0  501 -0.00000000000E+00  0.00000000000E+00  0.25861730199E+02  0.25861730199E+02  0.00000000000E+00 0.  1.
          1   -1    0    0  501    0  0.00000000000E+00 -0.00000000000E+00 -0.78918111330E+03  0.78918111330E+03  0.00000000000E+00 0. -1.
          5    1    1    2  502    0  0.40736181822E+02 -0.16973932111E+01 -0.10148351749E+03  0.10944722187E+03  0.41800000000E+01 0.  1.
         -5    1    1    2    0  502 -0.79974028630E+02 -0.81634852801E+02 -0.28459080838E+03  0.30670750735E+03  0.41800000000E+01 0.  1.
        -11    1    1    2    0    0  0.29825434949E+02  0.14314588595E+01 -0.31310578591E+02  0.43266129664E+02  0.00000000000E+00 0.  1.
         11    1    1    2    0    0  0.94124118591E+01  0.81900787153E+02 -0.34593447864E+03  0.35562198462E+03  0.00000000000E+00 0. -1.
</event>
<event>
 6    1  0.6981059E-006  0.1132463E+03  0.7561462E-02  0.1254674E+00
          1   -1    0    0  501    0  0.00000000000E+00  0.00000000000E+00  0.14141949924E+03  0.14141949924E+03  0.00000000000E+00 0. -1.
         -1   -1    0    0    0  501 -0.00000000000E+00 -0.00000000000E+00 -0.28697811637E+03  0.28697811637E+03  0.00000000000E+00 0.  1.
          5    1    1    2  502    0 -0.14643589180E+02 -0.10098564252E+02 -0.14807112651E+03  0.14919432500E+03  0.41800000000E+01 0.  1.
         -5    1    1    2    0  502 -0.20690711002E+02  0.96024827931E+02 -0.78632933114E+02  0.12589473250E+03  0.41800000000E+01 0.  1.
        -11    1    1    2    0    0  0.41780304206E+02 -0.25109783857E+02  0.78115086807E+02  0.92076391392E+02  0.00000000000E+00 0.  1.
         11    1    1    2    0    0 -0.64460040238E+01 -0.60816479822E+02  0.30303556924E+01  0.61232166722E+02  0.00000000000E+00 0. -1.
</event>
<event>
 6    1  0.1052801E-005  0.2189164E+03  0.7561462E-02  0.1134693E+00
          1   -1    0    0  501    0  0.00000000000E+00  0.00000000000E+00  0.42748701802E+03  0.42748701802E+03  0.00000000000E+00 0. -1.
         -1   -1    0    0    0  501 -0.00000000000E+00 -0.00000000000E+00 -0.11583286875E+03  0.11583286875E+03  0.00000000000E+00 0.  1.
          5    1    1    2  502    0  0.26301361259E+02 -0.70790692036E+02  0.32337128210E+02  0.82257193873E+02  0.41800000000E+01 0. -1.
         -5    1    1    2    0  502  0.15216808343E+03  0.26349979917E+01  0.88317126114E+02  0.17600981789E+03  0.41800000000E+01 0. -1.
        -11    1    1    2    0    0 -0.47517554844E+02  0.62981653539E+02  0.54932998415E+02  0.96136574808E+02  0.00000000000E+00 0.  1.
         11    1    1    2    0    0 -0.13095188984E+03  0.51740405052E+01  0.13606689654E+03  0.18891630020E+03  0.00000000000E+00 0. -1.
</event>
<event>
 6    1  0.6981059E-006  0.1832421E+03  0.7561462E-02  0.1164702E+00
          1   -1    0    0  501    0  0.00000000000E+00  0.00000000000E+00  0.37150887782E+03  0.37150887782E+03  0.00000000000E+00 0. -1.
         -1   -1    0    0    0  501 -0.00000000000E+00 -0.00000000000E+00 -0.12099494150E+03  0.12099494150E+03  0.00000000000E+00 0.  1.
          5    1    1    2  502    0 -0.12836983173E+02  0.10928540223E+02  0.67308807549E+02  0.69513805119E+02  0.41800000000E+01 0. -1.
         -5    1    1    2    0  502 -0.14689082387E+03  0.61880002693E+02  0.10924778011E+02  0.15982137543E+03  0.41800000000E+01 0. -1.
        -11    1    1    2    0    0  0.47824506735E+02  0.11941800819E+02  0.83839881492E+02  0.97256957488E+02  0.00000000000E+00 0. -1.
         11    1    1    2    0    0  0.11190330031E+03 -0.84750343735E+02  0.88440469268E+02  0.16591168129E+03  0.00000000000E+00 0.  1.
</event>
<event>
 6    1  0.6981059E-006  0.8130623E+02  0.7561462E-02  0.1325385E+00
          1   -1    0    0  501    0  0.00000000000E+00  0.00000000000E+00  0.50678749285E+03  0.50678749285E+03  0.00000000000E+00 0. -1.
         -1   -1    0    0    0  501 -0.00000000000E+00 -0.00000000000E+00 -0.27656515832E+02  0.27656515832E+02  0.00000000000E+00 0.  1.
          5    1    1    2  502    0 -0.30358491437E+02  0.10884986823E+02  0.55303996492E+01  0.32987553118E+02  0.41800000000E+01 0.  1.
         -5    1    1    2    0  502  0.65378151513E+02 -0.98228971241E+01  0.19517126771E+03  0.20610698228E+03  0.41800000000E+01 0.  1.
        -11    1    1    2    0    0  0.88049514085E+01  0.14816502122E+02  0.49582101030E+01  0.17934317714E+02  0.00000000000E+00 0.  1.
         11    1    1    2    0    0 -0.43824611485E+02 -0.15878591821E+02  0.27347109956E+03  0.27741515557E+03  0.00000000000E+00 0. -1.
</event>
<event>
 6    1  0.6981059E-006  0.2328907E+03  0.7561462E-02  0.1124622E+00
         -2   -1    0    0    0  501 -0.00000000000E+00  0.00000000000E+00  0.20226446140E+03  0.20226446140E+03  0.00000000000E+00 0.  1.
          2   -1    0    0  501    0  0.00000000000E+00 -0.00000000000E+00 -0.30453362554E+03  0.30453362554E+03  0.00000000000E+00 0. -1.
          5    1    1    2  502    0 -0.14513500308E+03 -0.45077818027E+02 -0.31498374240E+01  0.15206437016E+03  0.41800000000E+01 0. -1.
         -5    1    1    2    0  502 -0.67025070233E+02  0.65827621025E+02  0.16398705796E+02  0.95456931028E+02  0.41800000000E+01 0. -1.
        -11    1    1    2    0    0  0.69360595610E+02 -0.32167190175E+02 -0.82076093939E+02  0.11216998504E+03  0.00000000000E+00 0. -1.
         11    1    1    2    0    0  0.14279947770E+03  0.11417387177E+02 -0.33441938568E+02  0.14710680071E+03  0.00000000000E+00 0.  1.
</event>
<event>
 6    1  0.6981059E-006  0.4799000E+03  0.7561462E-02  0.1019163E+00
         -2   -1    0    0    0  501 -0.00000000000E+00  0.00000000000E+00  0.10621526480E+03  0.10621526480E+03  0.00000000000E+00 0.  1.
          2   -1    0    0  501    0  0.00000000000E+00 -0.00000000000E+00 -0.22833198287E+04  0.22833198287E+04  0.00000000000E+00 0. -1.
          5    1    1    2  502    0  0.14732800146E+00 -0.22356309446E+02 -0.11238640150E+02  0.25369385290E+02  0.41800000000E+01 0.  1.
         -5    1    1    2    0  502  0.25092282920E+03 -0.38430337997E+03 -0.97952371299E+03  0.10817280299E+04  0.41800000000E+01 0.  1.
        -11    1    1    2    0    0 -0.52323847023E+02  0.75816577951E+02 -0.33981730351E+03  0.35208200498E+03  0.00000000000E+00 0. -1.
         11    1    1    2    0    0 -0.19874631018E+03  0.33084311146E+03 -0.84652490728E+03  0.93035567331E+03  0.00000000000E+00 0.  1.
</event>
<event>
 6    1  0.6981059E-006  0.1017560E+03  0.7561462E-02  0.1276646E+00
          2   -1    0    0  501    0  0.00000000000E+00  0.00000000000E+00  0.14519372715E+03  0.14519372715E+03  0.00000000000E+00 0. -1.
         -2   -1    0    0    0  501 -0.00000000000E+00 -0.00000000000E+00 -0.95877452179E+02  0.95877452179E+02  0.00000000000E+00 0.  1.
          5    1    1    2  502    0  0.18974307593E+02  0.32646472340E+02  0.36742266091E+02  0.52851518638E+02  0.41800000000E+01 0.  1.
         -5    1    1    2    0  502 -0.25426407326E+02 -0.79862270962E+02 -0.72008887972E+01  0.84224757121E+02  0.41800000000E+01 0.  1.
        -11    1    1    2    0    0  0.34128675265E+02  0.40804194079E+02 -0.18507225044E+02  0.56322873760E+02  0.00000000000E+00 0.  1.
         11    1    1    2    0    0 -0.27676575533E+02  0.64116045429E+01  0.38282122719E+02  0.47672029807E+02  0.00000000000E+00 0. -1.
</event>
<event>
 6    1  0.6981059E-006  0.1520543E+03  0.7561462E-02  0.1197971E+00
          3   -1    0    0  501    0  0.00000000000E+00  0.00000000000E+00  0.47453279563E+03  0.47453279563E+03  0.00000000000E+00 0. -1.
         -3   -1    0    0    0  501 -0.00000000000E+00 -0.00000000000E+00 -0.68531114080E+02  0.68531114080E+02  0.00000000000E+00 0.  1.
          5    1    1    2  502    0 -0.51354546495E+01  0.12858149269E+03  0.13303791057E+03  0.18513814087E+03  0.41800000000E+01 0. -1.
         -5    1    1    2    0  502  0.40325699734E+02 -0.12013989841E+00 -0.57853917776E+00  0.40546067629E+02  0.41800000000E+01 0. -1.
        -11    1    1    2    0    0 -0.19410531382E+02 -0.10335104206E+03  0.11395887663E+03  0.15506396160E+03  0.00000000000E+00 0.  1.
         11    1    1    2    0    0 -0.15779713702E+02 -0.25110310732E+02  0.15958343352E+03  0.16231573961E+03  0.00000000000E+00 0. -1.
</event>
<event>
 6    1  0.6981059E-006  0.1145223E+03  0.7561462E-02  0.1252417E+00
          3   -1    0    0  501    0  0.00000000000E+00  0.00000000000E+00  0.58330947048E+02  0.58330947048E+02  0.00000000000E+00 0. -1.
         -3   -1    0    0    0  501 -0.00000000000E+00 -0.00000000000E+00 -0.56577874850E+03  0.56577874850E+03  0.00000000000E+00 0.  1.
          5    1    1    2  502    0  0.16473194849E+02  0.10091341323E+03 -0.26814890670E+03  0.28701252879E+03  0.41800000000E+01 0. -1.
         -5    1    1    2    0  502 -0.25939037531E+02 -0.15767744736E+02 -0.20621416958E+03  0.20847832400E+03  0.41800000000E+01 0.  1.
        -11    1    1    2    0    0 -0.17237580867E+02 -0.26280595022E+02 -0.52446314631E+02  0.61142618420E+02  0.00000000000E+00 0.  1.
         11    1    1    2    0    0  0.26703423550E+02 -0.58865073474E+02  0.19361589459E+02  0.67476224337E+02  0.00000000000E+00 0. -1.
</event>
<event>
 6    1  0.6981059E-006  0.1174828E+03  0.7561462E-02  0.1247308E+00
         -1   -1    0    0    0  501 -0.00000000000E+00  0.00000000000E+00  0.33579634055E+03  0.33579634055E+03  0.00000000000E+00 0.  1.
          1   -1    0    0  501    0  0.00000000000E+00 -0.00000000000E+00 -0.68055840550E+02  0.68055840550E+02  0.00000000000E+00 0. -1.
          5    1    1    2  502    0  0.13114360466E+01  0.49982639657E+02  0.65292513186E+02  0.82344209327E+02  0.41800000000E+01 0. -1.
         -5    1    1    2    0  502  0.69871154012E+02 -0.59822877281E+02  0.18146992349E+03  0.20349339139E+03  0.41800000000E+01 0. -1.
        -11    1    1    2    0    0 -0.77819083315E+02 -0.34110253113E+01  0.44874698247E+02  0.89895402354E+02  0.00000000000E+00 0.  1.
         11    1    1    2    0    0  0.66364932562E+01  0.13251262936E+02 -0.23896634923E+02  0.28119178025E+02  0.00000000000E+00 0. -1.
</event>
<event>
 6    1  0.6981059E-006  0.1212635E+03  0.7561462E-02  0.1241027E+00
         -2   -1    0    0    0  501 -0.00000000000E+00  0.00000000000E+00  0.45246987887E+02  0.45246987887E+02  0.00000000000E+00 0.  1.
          2   -1    0    0  501    0  0.00000000000E+00 -0.00000000000E+00 -0.34262764048E+03  0.34262764048E+03  0.00000000000E+00 0. -1.
          5    1    1    2  502    0 -0.65476414839E+02  0.87896291723E+02 -0.96180019082E+02  0.14588004479E+03  0.41800000000E+01 0. -1.
         -5    1    1    2    0  502  0.32288252314E+02 -0.14515034096E+02 -0.60207802683E+02  0.69969059992E+02  0.41800000000E+01 0. -1.
        -11    1    1    2    0    0  0.14148129123E+02  0.61438219462E+01 -0.13159447601E+02  0.20275284633E+02  0.00000000000E+00 0.  1.
         11    1    1    2    0    0  0.19040033402E+02 -0.79525079573E+02 -0.12783338323E+03  0.15175023895E+03  0.00000000000E+00 0. -1.
</event>
<event>
 6    1  0.6981059E-006  0.1116047E+03  0.7561462E-02  0.1257627E+00
         -2   -1    0    0    0  501 -0.00000000000E+00  0.00000000000E+00  0.82795061807E+02  0.82795061807E+02  0.00000000000E+00 0.  1.
          2   -1    0    0  501    0  0.00000000000E+00 -0.00000000000E+00 -0.19725431822E+03  0.19725431822E+03  0.00000000000E+00 0. -1.
          5    1    1    2  502    0  0.44721765933E+02 -0.26779936820E+02 -0.31400100389E+02  0.60997049672E+02  0.41800000000E+01 0. -1.
         -5    1    1    2    0  502 -0.21673411402E+02  0.65236360067E+02  0.21785899283E+02  0.72233075832E+02  0.41800000000E+01 0. -1.
        -11    1    1    2    0    0 -0.51348355393E+02  0.34663630226E+01 -0.61618803908E+02  0.80284159516E+02  0.00000000000E+00 0. -1.
         11    1    1    2    0    0  0.28300000862E+02 -0.41922786270E+02 -0.43226251397E+02  0.66535095004E+02  0.00000000000E+00 0.  1.
</event>
<event>
 6    1  0.6981059E-006  0.1683129E+03  0.7561462E-02  0.1179619E+00
         -3   -1    0    0    0  501 -0.00000000000E+00  0.00000000000E+00  0.35425242340E+03  0.35425242340E+03  0.00000000000E+00 0.  1.
          3   -1    0    0  501    0  0.00000000000E+00 -0.00000000000E+00 -0.11554301580E+03  0.11554301580E+03  0.00000000000E+00 0. -1.
          5    1    1    2  502    0 -0.27848332508E+02 -0.86091269600E+02  0.17545591874E+03  0.19745756037E+03  0.41800000000E+01 0. -1.
         -5    1    1    2    0  502  0.10422215169E+03  0.80690815367E+02  0.81322428307E+02  0.15493248314E+03  0.41800000000E+01 0.  1.
        -11    1    1    2    0    0 -0.58915204935E+02  0.42851916431E+02 -0.14438965830E+01  0.72865444153E+02  0.00000000000E+00 0. -1.
         11    1    1    2    0    0 -0.17458614247E+02 -0.37451462199E+02 -0.16625042871E+02  0.44539951535E+02  0.00000000000E+00 0.  1.
</event>
<event>
 6    1  0.6981059E-006  0.8627163E+02  0.7561462E-02  0.1312140E+00
          3   -1    0    0  501    0  0.00000000000E+00  0.00000000000E+00  0.39993141724E+03  0.39993141724E+03  0.00000000000E+00 0. -1.
         -3   -1    0    0    0  501 -0.00000000000E+00 -0.00000000000E+00 -0.78758845847E+02  0.78758845847E+02  0.00000000000E+00 0.  1.
          5    1    1    2  502    0 -0.28509220448E+02  0.43310782198E+02  0.41797083356E+02  0.66731312607E+02  0.41800000000E+01 0. -1.
         -5    1    1    2    0  502 -0.13816084822E+02 -0.78759966098E+01 -0.56885903262E+02  0.59214811596E+02  0.41800000000E+01 0.  1.
        -11    1    1    2    0    0 -0.14219377777E+02 -0.44586837455E+02  0.18968518634E+03  0.19537309614E+03  0.00000000000E+00 0.  1.
         11    1    1    2    0    0  0.56544683048E+02  0.91520518671E+01  0.14657620497E+03  0.15737104275E+03  0.00000000000E+00 0. -1.
</event>
<event>
 6    1  0.6981059E-006  0.2002144E+03  0.7561462E-02  0.1149558E+00
         -1   -1    0    0    0  501 -0.00000000000E+00  0.00000000000E+00  0.50782374701E+02  0.50782374701E+02  0.00000000000E+00 0.  1.
          1   -1    0    0  501    0  0.00000000000E+00 -0.00000000000E+00 -0.81527688744E+03  0.81527688744E+03  0.00000000000E+00 0. -1.
          5    1    1    2  502    0 -0.25949690729E+02 -0.32879090210E+02 -0.47303737020E+02  0.63320904589E+02  0.41800000000E+01 0.  1.
         -5    1    1    2    0  502  0.12932997848E+03 -0.10390036312E+03 -0.33925005403E+03  0.37766334261E+03  0.41800000000E+01 0.  1.
        -11    1    1    2    0    0 -0.22748257443E+02 -0.10053324252E+02 -0.30462767758E+02  0.39325980785E+02  0.00000000000E+00 0.  1.
         11    1    1    2    0    0 -0.80632030310E+02  0.14683277759E+03 -0.34747795394E+03  0.38574903416E+03  0.00000000000E+00 0. -1.
</event>
<event>
 6    1  0.6981059E-006  0.1329964E+03  0.7561462E-02  0.1223076E+00
         -1   -1    0    0    0  501 -0.00000000000E+00  0.00000000000E+00  0.67500605253E+02  0.67500605253E+02  0.00000000000E+00 0. -1.
          1   -1    0    0  501    0  0.00000000000E+00 -0.00000000000E+00 -0.30054533113E+03  0.30054533113E+03  0.00000000000E+00 0.  1.
          5    1    1    2  502    0 -0.22644806382E+01  0.68912644492E+02 -0.65260349818E+02  0.95028764602E+02  0.41800000000E+01 0.  1.
         -5    1    1    2    0  502  0.76294775800E+02 -0.21180931201E+02 -0.27691988136E+02  0.83987161327E+02  0.41800000000E+01 0.  1.
        -11    1    1    2    0    0  0.16064224659E+02 -0.90724803411E+00 -0.52575499634E+02  0.54982411503E+02  0.00000000000E+00 0.  1.
         11    1    1    2    0    0 -0.90094519820E+02 -0.46824465257E+02 -0.87516888284E+02  0.13404759895E+03  0.00000000000E+00 0. -1.
</event>
<event>
 6    1  0.6981059E-006  0.1124130E+03  0.7561462E-02  0.1256166E+00
          4   -1    0    0  501    0  0.00000000000E+00  0.00000000000E+00  0.68979511114E+03  0.68979511114E+03  0.00000000000E+00 0.  1.
         -4   -1    0    0    0  501 -0.00000000000E+00 -0.00000000000E+00 -0.20405493390E+02  0.20405493390E+02  0.00000000000E+00 0. -1.
          5    1    1    2  502    0 -0.74273963605E+02 -0.18978010863E+01  0.18387887727E+03  0.19836616955E+03  0.41800000000E+01 0. -1.
         -5    1    1    2    0  502  0.48409436107E+02  0.21719763886E+02  0.91777500102E+02  0.10609337195E+03  0.41800000000E+01 0. -1.
        -11    1    1    2    0    0 -0.28088122862E+02  0.16095010304E+02  0.15650167182E+03  0.15981478431E+03  0.00000000000E+00 0.  1.
         11    1    1    2    0    0  0.53952650359E+02 -0.35916973104E+02  0.23723156856E+03  0.24592627871E+03  0.00000000000E+00 0. -1.
</event>
<event>
 6    1  0.6981059E-006  0.1643481E+03  0.7561462E-02  0.1183873E+00
         -1   -1    0    0    0  501 -0.00000000000E+00  0.00000000000E+00  0.21825251530E+03  0.21825251530E+03  0.00000000000E+00 0.  1.
          1   -1    0    0  501    0  0.00000000000E+00 -0.00000000000E+00 -0.14328798912E+03  0.14328798912E+03  0.00000000000E+00 0. -1.
          5    1    1    2  502    0  0.58360611179E+02 -0.12598498142E+03  0.74174632292E+02  0.15747229901E+03  0.41800000000E+01 0.  1.
         -5    1    1    2    0  502 -0.40451860838E+02 -0.79172480975E+01  0.11201719556E+01  0.41445905080E+02  0.41800000000E+01 0.  1.
        -11    1    1    2    0    0 -0.38592698756E+02  0.57847252151E+02  0.33091741454E+02  0.77011455843E+02  0.00000000000E+00 0.  1.
         11    1    1    2    0    0  0.20683948414E+02  0.76054977366E+02 -0.33422019522E+02  0.85610844483E+02  0.00000000000E+00 0. -1.
</event>
<event>
 6    1  0.6981059E-006  0.8400665E+02  0.7561462E-02  0.1318051E+00
         -2   -1    0    0    0  501 -0.00000000000E+00  0.00000000000E+00  0.33006014947E+03  0.33006014947E+03  0.00000000000E+00 0.  1.
          2   -1    0    0  501    0  0.00000000000E+00 -0.00000000000E+00 -0.32643480144E+02  0.32643480144E+02  0.00000000000E+00 0. -1.
          5    1    1    2  502    0 -0.34407358626E+02 -0.11818009976E+02  0.11605744700E+03  0.12169772016E+03  0.41800000000E+01 0. -1.
         -5    1    1    2    0  502  0.56456309821E+02  0.15542034439E+02  0.39290685745E+02  0.70640640848E+02  0.41800000000E+01 0.  1.
        -11    1    1    2    0    0 -0.31945535575E+02 -0.30484136782E+02  0.26877412988E+02  0.51693279713E+02  0.00000000000E+00 0. -1.
         11    1    1    2    0    0  0.98965843813E+01  0.26760112319E+02  0.11519112359E+03  0.11867198889E+03  0.00000000000E+00 0.  1.
</event>
<event>
 6    1  0.6981059E-006  0.1489171E+03  0.7561462E-02  0.1201810E+00
         -2   -1    0    0    0  501 -0.00000000000E+00  0.00000000000E+00  0.10139490786E+03  0.10139490786E+03  0.00000000000E+00 0. -1.
          2   -1    0    0  501    0  0.00000000000E+00 -0.00000000000E+00 -0.21915217802E+03  0.21915217802E+03  0.00000000000E+00 0.  1.
          5    1    1    2  502    0 -0.82138875324E+02 -0.96340583166E+02 -0.47681768168E+02  0.13534890550E+03  0.41800000000E+01 0. -1.
         -5    1    1    2    0  502  0.17023260501E+02  0.25587777556E+02 -0.88961568648E+01  0.32266697465E+02  0.41800000000E+01 0. -1.
        -11    1    1    2    0    0  0.35373024792E+02 -0.22729697953E+02 -0.19377211354E+02  0.46296504963E+02  0.00000000000E+00 0.  1.
         11    1    1    2    0    0  0.29742590031E+02  0.93482503562E+02 -0.41802133781E+02  0.10663497795E+03  0.00000000000E+00 0. -1.
</event>
<event>
 6    1  0.6981059E-006  0.9960709E+02  0.7561462E-02  0.1281124E+00
          1   -1    0    0  501    0  0.00000000000E+00  0.00000000000E+00  0.20758576302E+03  0.20758576302E+03  0.00000000000E+00 0. -1.
         -1   -1    0    0    0  501 -0.00000000000E+00 -0.00000000000E+00 -0.64719120804E+02  0.64719120804E+02  0.00000000000E+00 0.  1.
          5    1    1    2  502    0 -0.53624668664E+01 -0.39033042332E+02  0.40393894701E+02  0.56581565671E+02  0.41800000000E+01 0. -1.
         -5    1    1    2    0  502  0.32655296760E+02  0.60384552311E+02 -0.57864242141E+01  0.69018966013E+02  0.41800000000E+01 0.  1.
        -11    1    1    2    0    0 -0.25753234691E+02 -0.53108447930E+02  0.95868309753E+02  0.11258094490E+03  0.00000000000E+00 0. -1.
         11    1    1    2    0    0 -0.15395952033E+01  0.31756937951E+02  0.12390861975E+02  0.34123407244E+02  0.00000000000E+00 0.  1.
</event>
<event>
 6    1  0.6981059E-006  0.1731109E+03  0.7561462E-02  0.1174642E+00
         -2   -1    0    0    0  501 -0.00000000000E+00  0.00000000000E+00  0.48474439373E+02  0.48474439373E+02  0.00000000000E+00 0.  1.
          2   -1    0    0  501    0  0.00000000000E+00 -0.00000000000E+00 -0.72042442014E+03  0.72042442014E+03  0.00000000000E+00 0. -1.
          5    1    1    2  502    0  0.42116568426E+02 -0.11884785069E+02 -0.18349085584E+03  0.18868338568E+03  0.41800000000E+01 0. -1.
         -5    1    1    2    0  502  0.97994219097E+01 -0.13038626781E+03 -0.15656115251E+03  0.20402322019E+03  0.41800000000E+01 0. -1.
        -11    1    1    2    0    0  0.21871024561E+02  0.32970994639E+02 -0.12247162397E+03  0.12870402822E+03  0.00000000000E+00 0. -1.
         11    1    1    2    0    0 -0.73787014897E+02  0.10930005824E+03 -0.20942634845E+03  0.24748822542E+03  0.00000000000E+00 0.  1.
</event>
<event>
 6    1  0.6981059E-006  0.8801407E+02  0.7561462E-02  0.1307733E+00
          3   -1    0    0  501    0  0.00000000000E+00  0.00000000000E+00  0.91270379429E+02  0.91270379429E+02  0.00000000000E+00 0. -1.
         -3   -1    0    0    0  501 -0.00000000000E+00 -0.00000000000E+00 -0.21512917627E+03  0.21512917627E+03  0.00000000000E+00 0.  1.
          5    1    1    2  502    0 -0.29407360205E+02  0.28741108420E+02  0.15494827544E+02  0.44140754730E+02  0.41800000000E+01 0. -1.
         -5    1    1    2    0  502 -0.47176025906E+02 -0.30507820410E+02 -0.13087474732E+03  0.14248500417E+03  0.41800000000E+01 0. -1.
        -11    1    1    2    0    0  0.98402208248E+01 -0.54147907998E+01  0.37015162952E+02  0.38681677751E+02  0.00000000000E+00 0. -1.
         11    1    1    2    0    0  0.66743165287E+02  0.71815027894E+01 -0.45494040011E+02  0.81092119046E+02  0.00000000000E+00 0.  1.
</event>
<event>
 6    1  0.6981059E-006  0.1155394E+03  0.7561462E-02  0.1250642E+00
         -2   -1    0    0    0  501 -0.00000000000E+00  0.00000000000E+00  0.71794747471E+02  0.71794747471E+02  0.00000000000E+00 0.  1.
          2   -1    0    0  501    0  0.00000000000E+00 -0.00000000000E+00 -0.23189088172E+03  0.23189088172E+03  0.00000000000E+00 0. -1.
          5    1    1    2  502    0 -0.19171943973E+02  0.85294638250E+02 -0.42726712109E+02  0.97394984868E+02  0.41800000000E+01 0. -1.
         -5    1    1    2    0  502 -0.27607374778E+02 -0.32903831368E+02 -0.13693744586E+02  0.45274941211E+02  0.41800000000E+01 0.  1.
        -11    1    1    2    0    0 -0.18972133213E+02 -0.58780029789E+01 -0.71633146036E+02  0.74335727404E+02  0.00000000000E+00 0. -1.
         11    1    1    2    0    0  0.65751451964E+02 -0.46512803902E+02 -0.32042531514E+02  0.86679975704E+02  0.00000000000E+00 0.  1.
</event>
<event>
 6    1  0.6981059E-006  0.7091428E+02  0.7561462E-02  0.1357011E+00
          1   -1    0    0  501    0  0.00000000000E+00  0.00000000000E+00  0.39076469908E+03  0.39076469908E+03  0.00000000000E+00 0. -1.
         -1   -1    0    0    0  501 -0.00000000000E+00 -0.00000000000E+00 -0.37912694383E+02  0.37912694383E+02  0.00000000000E+00 0.  1.
          5    1    1    2  502    0  0.14767337578E+02  0.26427684654E+02 -0.17854360485E+02  0.35394171323E+02  0.41800000000E+01 0.  1.
         -5    1    1    2    0  502 -0.16563876477E+02 -0.36231365705E+02  0.11968706222E+03  0.12621227803E+03  0.41800000000E+01 0.  1.
        -11    1    1    2    0    0 -0.59356603379E+00 -0.30665461684E+02  0.31976394408E+02  0.44308155686E+02  0.00000000000E+00 0.  1.
         11    1    1    2    0    0  0.23901049327E+01  0.40469142735E+02  0.21904290856E+03  0.22276278842E+03  0.00000000000E+00 0. -1.
</event>
<event>
 6    1  0.6981059E-006  0.2789143E+03  0.7561462E-02  0.1096283E+00
          2   -1    0    0  501    0  0.00000000000E+00  0.00000000000E+00  0.44929589905E+03  0.44929589905E+03  0.00000000000E+00 0. -1.
         -2   -1    0    0    0  501 -0.00000000000E+00 -0.00000000000E+00 -0.17454190520E+03  0.17454190520E+03  0.00000000000E+00 0.  1.
          5    1    1    2  502    0  0.20194373908E+03  0.23525497993E+02  0.94944535073E+02  0.22442517673E+03  0.41800000000E+01 0.  1.
         -5    1    1    2    0  502  0.36487994964E+02  0.71831675684E+02  0.59974474567E+02  0.10052648113E+03  0.41800000000E+01 0.  1.
        -11    1    1    2    0    0 -0.94397529556E+02 -0.88825098335E+02  0.55395219008E+02  0.14095893717E+03  0.00000000000E+00 0. -1.
         11    1    1    2    0    0 -0.14403420449E+03 -0.65320753424E+01  0.64439765201E+02  0.15792720922E+03  0.00000000000E+00 0.  1.
</event>
<event>
 6    1  0.6981059E-006  0.1114416E+03  0.7561462E-02  0.1257923E+00
          1   -1    0    0  501    0  0.00000000000E+00  0.00000000000E+00  0.27417301024E+03  0.27417301024E+03  0.00000000000E+00 0. -1.
         -1   -1    0    0    0  501 -0.00000000000E+00 -0.00000000000E+00 -0.56427095961E+02  0.56427095961E+02  0.00000000000E+00 0.  1.
          5    1    1    2  502    0  0.23993177979E+02  0.81688499842E+02  0.45578902751E+02  0.96662259295E+02  0.41800000000E+01 0. -1.
         -5    1    1    2    0  502 -0.28130760397E+02 -0.37756229730E+02  0.20274793490E+02  0.51433570895E+02  0.41800000000E+01 0. -1.
        -11    1    1    2    0    0 -0.35494735194E+02 -0.34786092260E+02  0.41132094684E+02  0.64511996205E+02  0.00000000000E+00 0.  1.
         11    1    1    2    0    0  0.39632317612E+02 -0.91461778528E+01  0.11076012336E+03  0.11799227981E+03  0.00000000000E+00 0. -1.
</event>
<event>
 6    1  0.6981059E-006  0.1815583E+03  0.7561462E-02  0.1166303E+00
          1   -1    0    0  501    0  0.00000000000E+00  0.00000000000E+00  0.56295124545E+03  0.56295124545E+03  0.00000000000E+00 0. -1.
         -1   -1    0    0    0  501 -0.00000000000E+00 -0.00000000000E+00 -0.84093386530E+02  0.84093386530E+02  0.00000000000E+00 0.  1.
          5    1    1    2  502    0 -0.41119188397E+02  0.12188657004E+03  0.25257822595E+02  0.13115850569E+03  0.41800000000E+01 0. -1.
         -5    1    1    2    0  502 -0.49323298575E+02  0.22429763842E+02  0.10183685716E+03  0.11543006526E+03  0.41800000000E+01 0. -1.
        -11    1    1    2    0    0 -0.85517699003E+01 -0.14175550759E+02  0.53616922428E+01  0.17401918040E+02  0.00000000000E+00 0.  1.
         11    1    1    2    0    0  0.98994256873E+02 -0.13014078313E+03  0.34640148692E+03  0.38305414299E+03  0.00000000000E+00 0. -1.
</event>
<event>
 6    1  0.6981059E-006  0.1174267E+03  0.7561462E-02  0.1247403E+00
         -4   -1    0    0    0  501 -0.00000000000E+00  0.00000000000E+00  0.41681957094E+03  0.41681957094E+03  0.00000000000E+00 0.  1.
          4   -1    0    0  501    0  0.00000000000E+00 -0.00000000000E+00 -0.47509682251E+02  0.47509682251E+02  0.00000000000E+00 0. -1.
          5    1    1    2  502    0 -0.86617844660E+02 -0.15130846964E+02  0.45921402437E+02  0.99286661467E+02  0.41800000000E+01 0.  1.
         -5    1    1    2    0  502 -0.54474322948E+01  0.20916956816E+02  0.14613705857E+03  0.14778601385E+03  0.41800000000E+01 0.  1.
        -11    1    1    2    0    0  0.97119187456E+02 -0.28758643563E+02  0.15285062848E+03  0.18336442070E+03  0.00000000000E+00 0.  1.
         11    1    1    2    0    0 -0.50539105006E+01  0.22972533711E+02  0.24400799197E+02  0.33892157174E+02  0.00000000000E+00 0. -1.
</event>
<event>
 6    1  0.6981059E-006  0.2807853E+03  0.7561462E-02  0.1095261E+00
          1   -1    0    0  501    0  0.00000000000E+00  0.00000000000E+00  0.97359166834E+03  0.97359166834E+03  0.00000000000E+00 0. -1.
         -1   -1    0    0    0  501 -0.00000000000E+00 -0.00000000000E+00 -0.12808343407E+03  0.12808343407E+03  0.00000000000E+00 0.  1.
          5    1    1    2  502    0  0.15022947296E+03 -0.18421607226E+03  0.88389520031E+02  0.25364273196E+03  0.41800000000E+01 0. -1.
         -5    1    1    2    0  502  0.52468146274E+02  0.14591326127E+02  0.17538340452E+02  0.57366183047E+02  0.41800000000E+01 0. -1.
        -11    1    1    2    0    0 -0.98279746630E+02  0.11530360804E+03  0.51881380695E+03  0.54048274431E+03  0.00000000000E+00 0. -1.
         11    1    1    2    0    0 -0.10441787260E+03  0.54321138100E+02  0.22076656684E+03  0.25018344309E+03  0.00000000000E+00 0.  1.
</event>
<event>
 6    1  0.6981059E-006  0.3393516E+03  0.7561462E-02  0.1067072E+00
          1   -1    0    0  501    0  0.00000000000E+00  0.00000000000E+00  0.31839058721E+03  0.31839058721E+03  0.00000000000E+00 0. -1.
         -1   -1    0    0    0  501 -0.00000000000E+00 -0.00000000000E+00 -0.44703879770E+03  0.44703879770E+03  0.00000000000E+00 0.  1.
          5    1    1    2  502    0 -0.44264057451E+02  0.13083395839E+02  0.96193565654E+01  0.47333777046E+02  0.41800000000E+01 0. -1.
         -5    1    1    2    0  502 -0.25560026485E+03  0.13257129836E+03 -0.22042466460E+03  0.36264466038E+03  0.41800000000E+01 0.  1.
        -11    1    1    2    0    0  0.72617405882E+02  0.32748839895E+01  0.30761183867E+02  0.78932014640E+02  0.00000000000E+00 0.  1.
         11    1    1    2    0    0  0.22724691641E+03 -0.14892957819E+03  0.51395913673E+02  0.27651893284E+03  0.00000000000E+00 0. -1.
</event>
<event>
 6    1  0.6981059E-006  0.1679395E+03  0.7561462E-02  0.1180014E+00
          1   -1    0    0  501    0  0.00000000000E+00  0.00000000000E+00  0.27075825789E+03  0.27075825789E+03  0.00000000000E+00 0. -1.
         -1   -1    0    0    0  501 -0.00000000000E+00 -0.00000000000E+00 -0.12061323214E+03  0.12061323214E+03  0.00000000000E+00 0.  1.
          5    1    1    2  502    0 -0.30253551067E+02 -0.78943500701E+02 -0.17158434143E+02  0.86366879748E+02  0.41800000000E+01 0.  1.
         -5    1    1    2    0  502  0.71475707757E+02 -0.52325755431E+02  0.52051837266E+02  0.10282814616E+03  0.41800000000E+01 0.  1.
        -11    1    1    2    0    0 -0.24822063722E+02  0.14121031572E+03  0.85972965518E+02  0.16717607159E+03  0.00000000000E+00 0.  1.
         11    1    1    2    0    0 -0.16400092967E+02 -0.99410595863E+01  0.29278657110E+02  0.35000392529E+02  0.00000000000E+00 0. -1.
</event>
<event>
 6    1  0.6981059E-006  0.2233509E+03  0.7561462E-02  0.1131409E+00
          2   -1    0    0  501    0  0.00000000000E+00  0.00000000000E+00  0.89402338611E+03  0.89402338611E+03  0.00000000000E+00 0. -1.
         -2   -1    0    0    0  501 -0.00000000000E+00 -0.00000000000E+00 -0.17601221551E+03  0.17601221551E+03  0.00000000000E+00 0.  1.
          5    1    1    2  502    0 -0.14758548627E+03  0.30694289725E+02 -0.82806660631E+02  0.17204078187E+03  0.41800000000E+01 0.  1.
         -5    1    1    2    0  502 -0.58454311995E+02 -0.51742562289E+02  0.14190636237E+02  0.79454678276E+02  0.41800000000E+01 0.  1.
        -11    1    1    2    0    0  0.14364288455E+03 -0.16992805346E+02  0.40689012462E+03  0.43183516210E+03  0.00000000000E+00 0.  1.
         11    1    1    2    0    0  0.62396913716E+02  0.38041077910E+02  0.37973707038E+03  0.38670497937E+03  0.00000000000E+00 0. -1.
</event>
<event>
 6    1  0.6981059E-006  0.8637942E+02  0.7561462E-02  0.1311864E+00
         -1   -1    0    0    0  501 -0.00000000000E+00  0.00000000000E+00  0.18732670570E+03  0.18732670570E+03  0.00000000000E+00 0.  1.
          1   -1    0    0  501    0  0.00000000000E+00 -0.00000000000E+00 -0.97546266053E+02  0.97546266053E+02  0.00000000000E+00 0. -1.
          5    1    1    2  502    0 -0.49832095676E+02 -0.32049736589E+02  0.56025137409E+01  0.59659734621E+02  0.41800000000E+01 0.  1.
         -5    1    1    2    0  502 -0.28014591216E+01  0.49744309587E+02  0.10503100188E+03  0.11632423765E+03  0.41800000000E+01 0.  1.
        -11    1    1    2    0    0  0.26996775613E+02 -0.24908391215E+02  0.32636197514E+02  0.49136292439E+02  0.00000000000E+00 0.  1.
         11    1    1    2    0    0  0.25636779184E+02  0.72138182171E+01 -0.53489273488E+02  0.59752707039E+02  0.00000000000E+00 0. -1.
</event>
<event>
 6    1  0.6981059E-006  0.1323600E+03  0.7561462E-02  0.1223995E+00
          1   -1    0    0  501    0  0.00000000000E+00  0.00000000000E+00  0.63051284827E+02  0.63051284827E+02  0.00000000000E+00 0. -1.
         -1   -1    0    0    0  501 -0.00000000000E+00 -0.00000000000E+00 -0.40586987097E+03  0.40586987097E+03  0.00000000000E+00 0.  1.
          5    1    1    2  502    0 -0.52339505977E+02  0.90568584829E+02 -0.21293646911E+03  0.23727938115E+03  0.41800000000E+01 0. -1.
         -5    1    1    2    0  502 -0.33805359566E+02 -0.31041590312E+02 -0.28788894669E+02  0.54338343007E+02  0.41800000000E+01 0. -1.
        -11    1    1    2    0    0 -0.68261717744E+00 -0.17445906807E+02 -0.75481819413E+02  0.77474710018E+02  0.00000000000E+00 0.  1.
         11    1    1    2    0    0  0.86827482721E+02 -0.42081087710E+02 -0.25611402951E+02  0.99828721617E+02  0.00000000000E+00 0. -1.
</event>
<event>
 6    1  0.6981059E-006  0.1096148E+03  0.7561462E-02  0.1261285E+00
          2   -1    0    0  501    0  0.00000000000E+00  0.00000000000E+00  0.11866640449E+03  0.11866640449E+03  0.00000000000E+00 0. -1.
         -2   -1    0    0    0  501 -0.00000000000E+00 -0.00000000000E+00 -0.20015123724E+03  0.20015123724E+03  0.00000000000E+00 0.  1.
          5    1    1    2  502    0 -0.52926158100E+02 -0.82732498683E+02 -0.67783869843E+02  0.11940674169E+03  0.41800000000E+01 0.  1.
         -5    1    1    2    0  502 -0.11208018777E+02 -0.21127141633E+01  0.44771758863E+02  0.46390365786E+02  0.41800000000E+01 0.  1.
        -11    1    1    2    0    0 -0.58254356584E-01  0.10731738897E+02  0.23103144631E+02  0.25474083010E+02  0.00000000000E+00 0. -1.
         11    1    1    2    0    0  0.64192431233E+02  0.74113473949E+02 -0.81575866402E+02  0.12754645126E+03  0.00000000000E+00 0.  1.
</event>
<event>
 6    1  0.6981059E-006  0.1116913E+03  0.7561462E-02  0.1257470E+00
          1   -1    0    0  501    0  0.00000000000E+00  0.00000000000E+00  0.41885765774E+02  0.41885765774E+02  0.00000000000E+00 0. -1.
         -1   -1    0    0    0  501 -0.00000000000E+00 -0.00000000000E+00 -0.30974545344E+03  0.30974545344E+03  0.00000000000E+00 0.  1.
          5    1    1    2  502    0 -0.40350710980E+02  0.71874361142E+02 -0.82507556786E+02  0.11670078403E+03  0.41800000000E+01 0.  1.
         -5    1    1    2    0  502  0.18386903613E+02 -0.41907881920E+02 -0.73585881266E+02  0.86756573890E+02  0.41800000000E+01 0.  1.
        -11    1    1    2    0    0 -0.10199041853E+02 -0.53867472268E+02 -0.80270343191E+02  0.97206239610E+02  0.00000000000E+00 0.  1.
         11    1    1    2    0    0  0.32162849221E+02  0.23900993046E+02 -0.31495906418E+02  0.50967621680E+02  0.00000000000E+00 0. -1.
</event>
<event>
 6    1  0.6981059E-006  0.2430215E+03  0.7561462E-02  0.1117796E+00
          1   -1    0    0  501    0  0.00000000000E+00  0.00000000000E+00  0.69661826103E+03  0.69661826103E+03  0.00000000000E+00 0. -1.
         -1   -1    0    0    0  501 -0.00000000000E+00 -0.00000000000E+00 -0.87788274452E+02  0.87788274452E+02  0.00000000000E+00 0.  1.
          5    1    1    2  502    0 -0.76509931508E+02 -0.13313803165E+03  0.12899962439E+03  0.20059381991E+03  0.41800000000E+01 0.  1.
         -5    1    1    2    0  502 -0.94009309466E+02 -0.56946130764E+01  0.13893601637E+03  0.16790136369E+03  0.41800000000E+01 0.  1.
        -11    1    1    2    0    0  0.16504713847E+02 -0.13656560114E+02  0.34512639826E+02  0.40620555401E+02  0.00000000000E+00 0.  1.
         11    1    1    2    0    0  0.15401452713E+03  0.15248920484E+03  0.30638170599E+03  0.37529079648E+03  0.00000000000E+00 0. -1.
</event>
<event>
 6    1  0.6981059E-006  0.1232057E+03  0.7561462E-02  0.1237900E+00
         -2   -1    0    0    0  501 -0.00000000000E+00  0.00000000000E+00  0.12033631048E+03  0.12033631048E+03  0.00000000000E+00 0.  1.
          2   -1    0    0  501    0  0.00000000000E+00 -0.00000000000E+00 -0.20107132869E+03  0.20107132869E+03  0.00000000000E+00 0. -1.
          5    1    1    2  502    0 -0.18983372307E+02  0.57384900847E+01  0.53868379991E+02  0.57554960302E+02  0.41800000000E+01 0.  1.
         -5    1    1    2    0  502  0.11522818947E+01  0.91229727909E+02 -0.45293652239E+02  0.10194693885E+03  0.41800000000E+01 0.  1.
        -11    1    1    2    0    0  0.89235812158E+01 -0.11465835420E+03 -0.79458377249E+02  0.13978484255E+03  0.00000000000E+00 0.  1.
         11    1    1    2    0    0  0.89075091961E+01  0.17690136211E+02 -0.98513687166E+01  0.22120897469E+02  0.00000000000E+00 0. -1.
</event>
<event>
 6    1  0.6981059E-006  0.1085081E+03  0.7561462E-02  0.1263358E+00
         -1   -1    0    0    0  501 -0.00000000000E+00  0.00000000000E+00  0.12709809557E+04  0.12709809557E+04  0.00000000000E+00 0.  1.
          1   -1    0    0  501    0  0.00000000000E+00 -0.00000000000E+00 -0.35462871096E+02  0.35462871096E+02  0.00000000000E+00 0. -1.
          5    1    1    2  502    0  0.57199628874E+02 -0.87744631328E+02  0.10325479681E+04  0.10378553352E+04  0.41800000000E+01 0.  1.
         -5    1    1    2    0  502 -0.18569552406E+02  0.23971330927E+02  0.11941093794E+03  0.12327164103E+03  0.41800000000E+01 0.  1.
        -11    1    1    2    0    0 -0.32786110568E+02  0.22189787426E+02 -0.11642210700E+02  0.41265685287E+02  0.00000000000E+00 0. -1.
         11    1    1    2    0    0 -0.58439658999E+01  0.41583512974E+02  0.95201389287E+02  0.10405116535E+03  0.00000000000E+00 0.  1.
</event>
<event>
 6    1  0.6981059E-006  0.1118735E+03  0.7561462E-02  0.1257139E+00
          3   -1    0    0  501    0  0.00000000000E+00  0.00000000000E+00  0.11777261408E+03  0.11777261408E+03  0.00000000000E+00 0. -1.
         -3   -1    0    0    0  501 -0.00000000000E+00 -0.00000000000E+00 -0.10978165471E+03  0.10978165471E+03  0.00000000000E+00 0.  1.
          5    1    1    2  502    0  0.33481335195E+02 -0.71637482238E+02  0.12060351692E+02  0.80099020910E+02  0.41800000000E+01 0. -1.
         -5    1    1    2    0  502 -0.18235616398E+02  0.43005852819E+02 -0.14758036214E+02  0.49166178568E+02  0.41800000000E+01 0. -1.
        -11    1    1    2    0    0 -0.13242137202E+01 -0.33734836077E+02  0.22939442903E+01  0.33838659659E+02  0.00000000000E+00 0.  1.
         11    1    1    2    0    0 -0.13921505076E+02  0.62366465495E+02  0.83946996018E+01  0.64450409645E+02  0.00000000000E+00 0. -1.
</event>
<event>
 6    1  0.6981059E-006  0.1152541E+03  0.7561462E-02  0.1251138E+00
          1   -1    0    0  501    0  0.00000000000E+00  0.00000000000E+00  0.64704407101E+02  0.64704407101E+02  0.00000000000E+00 0. -1.
         -1   -1    0    0    0  501 -0.00000000000E+00 -0.00000000000E+00 -0.33710120491E+03  0.33710120491E+03  0.00000000000E+00 0.  1.
          5    1    1    2  502    0  0.54320086543E+02  0.76794275065E+02 -0.10582085556E+03  0.14164589071E+03  0.41800000000E+01 0. -1.
         -5    1    1    2    0  502 -0.18353197207E+02 -0.18583575271E+02 -0.14044862667E+03  0.14291773246E+03  0.41800000000E+01 0. -1.
        -11    1    1    2    0    0  0.27636252289E+02 -0.77244663443E+01 -0.21590205613E+02  0.35910538833E+02  0.00000000000E+00 0.  1.
         11    1    1    2    0    0 -0.63603141624E+02 -0.50486233449E+02 -0.45371099607E+01  0.81331450000E+02  0.00000000000E+00 0. -1.
</event>
<event>
 6    1  0.6981059E-006  0.1017158E+03  0.7561462E-02  0.1276729E+00
         -1   -1    0    0    0  501 -0.00000000000E+00  0.00000000000E+00  0.20710432412E+03  0.20710432412E+03  0.00000000000E+00 0.  1.
          1   -1    0    0  501    0  0.00000000000E+00 -0.00000000000E+00 -0.11952862037E+03  0.11952862037E+03  0.00000000000E+00 0. -1.
          5    1    1    2  502    0  0.11571956599E+02 -0.62158473576E+02 -0.29876863303E+01  0.63434885406E+02  0.41800000000E+01 0. -1.
         -5    1    1    2    0  502 -0.21140505253E+01 -0.17924849366E+02  0.13270426007E+03  0.13399127761E+03  0.41800000000E+01 0. -1.
        -11    1    1    2    0    0 -0.19981202019E+02 -0.15556676194E+02 -0.14113958225E+02  0.28990729986E+02  0.00000000000E+00 0.  1.
         11    1    1    2    0    0  0.10523295946E+02  0.95639999137E+02 -0.28026911771E+02  0.10021605149E+03  0.00000000000E+00 0. -1.
</event>
<event>
 6    1  0.6981059E-006  0.1148851E+03  0.7561462E-02  0.1251782E+00
          3   -1    0    0  501    0  0.00000000000E+00  0.00000000000E+00  0.29552189653E+02  0.29552189653E+02  0.00000000000E+00 0. -1.
         -3   -1    0    0    0  501 -0.00000000000E+00 -0.00000000000E+00 -0.53690189994E+03  0.53690189994E+03  0.00000000000E+00 0.  1.
          5    1    1    2  502    0  0.16416693235E+02  0.38250899849E+02 -0.78366845416E+02  0.88833968821E+02  0.41800000000E+01 0.  1.
         -5    1    1    2    0  502 -0.52445882351E+02 -0.70342556841E+02 -0.29935109577E+03  0.31197307066E+03  0.41800000000E+01 0.  1.
        -11    1    1    2    0    0  0.63596707798E+02  0.91943698888E+01 -0.10131093503E+03  0.11997075992E+03  0.00000000000E+00 0.  1.
         11    1    1    2    0    0 -0.27567518682E+02  0.22897287103E+02 -0.28320834080E+02  0.45676290195E+02  0.00000000000E+00 0. -1.
</event>
<event>
 6    1  0.6981059E-006  0.1087997E+03  0.7561462E-02  0.1262809E+00
         -1   -1    0    0    0  501 -0.00000000000E+00  0.00000000000E+00  0.39625435558E+02  0.39625435558E+02  0.00000000000E+00 0.  1.
          1   -1    0    0  501    0  0.00000000000E+00 -0.00000000000E+00 -0.37242247123E+03  0.37242247123E+03  0.00000000000E+00 0. -1.
          5    1    1    2  502    0 -0.37091736643E+02  0.20869925050E+02 -0.40517026371E+02  0.58910546804E+02  0.41800000000E+01 0. -1.
         -5    1    1    2    0  502  0.61246279753E+01 -0.94341269367E+02 -0.81620677272E+02  0.12496877023E+03  0.41800000000E+01 0.  1.
        -11    1    1    2    0    0  0.82977806833E+01  0.30617657813E+02 -0.41718310905E+02  0.52409079357E+02  0.00000000000E+00 0.  1.
         11    1    1    2    0    0  0.22669327984E+02  0.42853686503E+02 -0.16894102112E+03  0.17575951040E+03  0.00000000000E+00 0. -1.
</event>
<event>
 6    1  0.6981059E-006  0.1039919E+03  0.7561462E-02  0.1272119E+00
         -2   -1    0    0    0  501 -0.00000000000E+00  0.00000000000E+00  0.13835259319E+04  0.13835259319E+04  0.00000000000E+00 0.  1.
          2   -1    0    0  501    0  0.00000000000E+00 -0.00000000000E+00 -0.10803330553E+02  0.10803330553E+02  0.00000000000E+00 0. -1.
          5    1    1    2  502    0 -0.14958895322E+02  0.66966638543E+02  0.37429534409E+03  0.38055587794E+03  0.41800000000E+01 0. -1.
         -5    1    1    2    0  502  0.11847035045E+02 -0.43378773369E+02  0.66109622996E+03  0.66263698047E+03  0.41800000000E+01 0. -1.
        -11    1    1    2    0    0  0.34561306947E+02  0.20302653203E+02  0.99863678874E+02  0.10760778793E+03  0.00000000000E+00 0. -1.
         11    1    1    2    0    0 -0.31449446670E+02 -0.43890518377E+02  0.23746734842E+03  0.24352861611E+03  0.00000000000E+00 0.  1.
</event>
<event>
 6    1  0.6981059E-006  0.2784541E+03  0.7561462E-02  0.1096536E+00
          2   -1    0    0  501    0  0.00000000000E+00  0.00000000000E+00  0.64152933739E+03  0.64152933739E+03  0.00000000000E+00 0.  1.
         -2   -1    0    0    0  501 -0.00000000000E+00 -0.00000000000E+00 -0.13991862936E+03  0.13991862936E+03  0.00000000000E+00 0. -1.
          5    1    1    2  502    0  0.19157390284E+02 -0.13573384631E+03  0.87320232406E+02  0.16258221927E+03  0.41800000000E+01 0.  1.
         -5    1    1    2    0  502  0.82622230357E+02 -0.11394358303E+03  0.25065837991E+03  0.28750072849E+03  0.41800000000E+01 0.  1.
        -11    1    1    2    0    0 -0.11299718065E+03  0.23131207254E+03  0.12283597386E+03  0.28524080040E+03  0.00000000000E+00 0. -1.
         11    1    1    2    0    0  0.11217560009E+02  0.18365356795E+02  0.40796121845E+02  0.46124218588E+02  0.00000000000E+00 0.  1.
</event>
<event>
 6    1  0.6981059E-006  0.9086066E+02  0.7561462E-02  0.1300781E+00
         -2   -1    0    0    0  501 -0.00000000000E+00  0.00000000000E+00  0.21704898442E+02  0.21704898442E+02  0.00000000000E+00 0.  1.
          2   -1    0    0  501    0  0.00000000000E+00 -0.00000000000E+00 -0.40724366275E+03  0.40724366275E+03  0.00000000000E+00 0. -1.
          5    1    1    2  502    0  0.24844467849E+02 -0.55245041768E+02 -0.85268246482E+02  0.10467764079E+03  0.41800000000E+01 0. -1.
         -5    1    1    2    0  502 -0.65651997560E+02  0.37997943975E+02 -0.16908628923E+03  0.18536902151E+03  0.41800000000E+01 0.  1.
        -11    1    1    2    0    0  0.13539343381E+02  0.99574886345E+01 -0.60482901764E+02  0.62774571324E+02  0.00000000000E+00 0.  1.
         11    1    1    2    0    0  0.27268186330E+02  0.72896091583E+01 -0.70701326824E+02  0.76127327564E+02  0.00000000000E+00 0. -1.
</event>
<event>
 6    1  0.6981059E-006  0.1327505E+03  0.7561462E-02  0.1223431E+00
         -2   -1    0    0    0  501 -0.00000000000E+00  0.00000000000E+00  0.81892790702E+02  0.81892790702E+02  0.00000000000E+00 0.  1.
          2   -1    0    0  501    0  0.00000000000E+00 -0.00000000000E+00 -0.27668234509E+03  0.27668234509E+03  0.00000000000E+00 0. -1.
          5    1    1    2  502    0 -0.26714761890E+02  0.64522363196E+02  0.15112194281E+02  0.71572792814E+02  0.41800000000E+01 0.  1.
         -5    1    1    2    0  502  0.56637489098E+02  0.25897430287E+02 -0.72809846520E+02  0.95902180460E+02  0.41800000000E+01 0.  1.
        -11    1    1    2    0    0 -0.61997190821E+02 -0.41421450279E+02 -0.75540210691E+02  0.10614005674E+03  0.00000000000E+00 0. -1.
         11    1    1    2    0    0  0.32074463613E+02 -0.48998343204E+02 -0.61551691453E+02  0.84960105776E+02  0.00000000000E+00 0.  1.
</event>
<event>
 6    1  0.6981059E-006  0.1048260E+03  0.7561462E-02  0.1270463E+00
         -2   -1    0    0    0  501 -0.00000000000E+00  0.00000000000E+00  0.76934068904E+03  0.76934068904E+03  0.00000000000E+00 0.  1.
          2   -1    0    0  501    0  0.00000000000E+00 -0.00000000000E+00 -0.26344672067E+02  0.26344672067E+02  0.00000000000E+00 0. -1.
          5    1    1    2  502    0  0.20888754016E+01  0.60752074549E+02  0.19736372527E+03  0.20655529627E+03  0.41800000000E+01 0.  1.
         -5    1    1    2    0  502  0.43444930384E+02 -0.47164606424E+02  0.44328255541E+03  0.44791612877E+03  0.41800000000E+01 0.  1.
        -11    1    1    2    0    0 -0.57605325376E+02  0.95224128771E+01  0.98988969158E+02  0.11492547965E+03  0.00000000000E+00 0.  1.
         11    1    1    2    0    0  0.12071519591E+02 -0.23109881002E+02  0.33607671277E+01  0.26288456418E+02  0.00000000000E+00 0. -1.
</event>
<event>
 6    1  0.6981059E-006  0.1172527E+03  0.7561462E-02  0.1247699E+00
         -2   -1    0    0    0  501 -0.00000000000E+00  0.00000000000E+00  0.19271987295E+03  0.19271987295E+03  0.00000000000E+00 0.  1.
          2   -1    0    0  501    0  0.00000000000E+00 -0.00000000000E+00 -0.95350093264E+02  0.95350093264E+02  0.00000000000E+00 0. -1.
          5    1    1    2  502    0  0.73464402130E+01  0.43323874909E+02  0.79967878707E+02  0.91341460169E+02  0.41800000000E+01 0. -1.
         -5    1    1    2    0  502  0.63269276120E+02 -0.49444218395E+02  0.17305445802E+02  0.82247692295E+02  0.41800000000E+01 0. -1.
        -11    1    1    2    0    0 -0.90140347085E+02  0.30366164434E+01  0.12635864682E+02  0.91072324491E+02  0.00000000000E+00 0.  1.
         11    1    1    2    0    0  0.19524630751E+02  0.30837270419E+01 -0.12539409508E+02  0.23408489256E+02  0.00000000000E+00 0. -1.
</event>
<event>
 6    1  0.6981059E-006  0.1882785E+03  0.7561462E-02  0.1160023E+00
         -4   -1    0    0    0  501 -0.00000000000E+00  0.00000000000E+00  0.39188255627E+02  0.39188255627E+02  0.00000000000E+00 0.  1.
          4   -1    0    0  501    0  0.00000000000E+00 -0.00000000000E+00 -0.13195718323E+04  0.13195718323E+04  0.00000000000E+00 0. -1.
          5    1    1    2  502    0 -0.89744532302E+02  0.63696881897E+01 -0.14550025177E+03  0.17112115495E+03  0.41800000000E+01 0. -1.
         -5    1    1    2    0  502 -0.15431101683E+02  0.10653801057E+03 -0.13911734294E+03  0.17595332932E+03  0.41800000000E+01 0. -1.
        -11    1    1    2    0    0  0.55335111732E+02  0.53243112989E-02 -0.30363095693E+03  0.30863203434E+03  0.00000000000E+00 0.  1.
         11    1    1    2    0    0  0.49840522254E+02 -0.11291302307E+03 -0.69213502508E+03  0.70305356935E+03  0.00000000000E+00 0. -1.
</event>
<event>
 6    1  0.6981059E-006  0.2052229E+03  0.7561462E-02  0.1145406E+00
          2   -1    0    0  501    0  0.00000000000E+00  0.00000000000E+00  0.12556775833E+03  0.12556775833E+03  0.00000000000E+00 0. -1.
         -2   -1    0    0    0  501 -0.00000000000E+00 -0.00000000000E+00 -0.62526111767E+03  0.62526111767E+03  0.00000000000E+00 0.  1.
          5    1    1    2  502    0  0.25750077727E+02  0.38923911370E+02  0.52640794734E+02  0.70474556043E+02  0.41800000000E+01 0. -1.
         -5    1    1    2    0  502 -0.17163199769E+01 -0.18910445139E+03 -0.41460046091E+03  0.45571312673E+03  0.41800000000E+01 0.  1.
        -11    1    1    2    0    0  0.29192386426E+02  0.87274656989E+02 -0.51891503520E+02  0.10564936969E+03  0.00000000000E+00 0.  1.
         11    1    1    2    0    0 -0.53226144176E+02  0.62905883036E+02 -0.85842189653E+02  0.11899182354E+03  0.00000000000E+00 0. -1.
</event>
<event>
 6    1  0.6981059E-006  0.1362225E+03  0.7561462E-02  0.1218504E+00
         -2   -1    0    0    0  501 -0.00000000000E+00  0.00000000000E+00  0.13905776878E+03  0.13905776878E+03  0.00000000000E+00 0. -1.
          2   -1    0    0  501    0  0.00000000000E+00 -0.00000000000E+00 -0.18105625696E+03  0.18105625696E+03  0.00000000000E+00 0.  1.
          5    1    1    2  502    0  0.88604576307E+02  0.52646765252E+02 -0.49750636128E+01  0.10326992056E+03  0.41800000000E+01 0. -1.
         -5    1    1    2    0  502  0.12319622575E+02 -0.49319956261E+02  0.77940308193E+01  0.51598938966E+02  0.41800000000E+01 0.  1.
        -11    1    1    2    0    0 -0.38131812214E+02  0.28770205385E+02  0.34640721241E+02  0.59006265673E+02  0.00000000000E+00 0. -1.
         11    1    1    2    0    0 -0.62792386669E+02 -0.32097014376E+02 -0.79458176624E+02  0.10623890054E+03  0.00000000000E+00 0.  1.
</event>
<event>
 6    1  0.6981059E-006  0.2454521E+03  0.7561462E-02  0.1116213E+00
          2   -1    0    0  501    0  0.00000000000E+00  0.00000000000E+00  0.15660943624E+04  0.15660943624E+04  0.00000000000E+00 0.  1.
         -2   -1    0    0    0  501 -0.00000000000E+00 -0.00000000000E+00 -0.92853030046E+02  0.92853030046E+02  0.00000000000E+00 0. -1.
          5    1    1    2  502    0  0.53682398490E+02  0.20484566458E+03  0.69514496319E+02  0.22291990446E+03  0.41800000000E+01 0. -1.
         -5    1    1    2    0  502 -0.26883105482E+02  0.22131165137E+02  0.56501645802E+02  0.66501114344E+02  0.41800000000E+01 0. -1.
        -11    1    1    2    0    0  0.21127805167E+00 -0.21411060622E+03  0.12327685324E+04  0.12512240610E+04  0.00000000000E+00 0.  1.
         11    1    1    2    0    0 -0.27010571060E+02 -0.12866223498E+02  0.11445665782E+03  0.11830231264E+03  0.00000000000E+00 0. -1.
</event>
<event>
 6    1  0.6981059E-006  0.9492850E+02  0.7561462E-02  0.1291337E+00
         -1   -1    0    0    0  501 -0.00000000000E+00  0.00000000000E+00  0.72156263482E+02  0.72156263482E+02  0.00000000000E+00 0.  1.
          1   -1    0    0  501    0  0.00000000000E+00 -0.00000000000E+00 -0.17740044056E+03  0.17740044056E+03  0.00000000000E+00 0. -1.
          5    1    1    2  502    0  0.45515759692E+02 -0.17123634932E+02  0.93689330406E+01  0.49700629372E+02  0.41800000000E+01 0.  1.
         -5    1    1    2    0  502 -0.27390093350E+02  0.38946662433E+02 -0.89712206884E+02  0.10165044118E+03  0.41800000000E+01 0.  1.
        -11    1    1    2    0    0  0.90582160287E+01 -0.51914419411E+02 -0.23306305029E+02  0.57622409482E+02  0.00000000000E+00 0. -1.
         11    1    1    2    0    0 -0.27183882370E+02  0.30091391910E+02 -0.15945982108E+01  0.40583224013E+02  0.00000000000E+00 0.  1.
</event>
<event>
 6    1  0.6981059E-006  0.7424020E+02  0.7561462E-02  0.1346240E+00
         -1   -1    0    0    0  501 -0.00000000000E+00  0.00000000000E+00  0.78484581029E+03  0.78484581029E+03  0.00000000000E+00 0.  1.
          1   -1    0    0  501    0  0.00000000000E+00 -0.00000000000E+00 -0.75138025083E+02  0.75138025083E+02  0.00000000000E+00 0. -1.
          5    1    1    2  502    0  0.13595483200E+02  0.52998261707E+02  0.26171590974E+03  0.26740669909E+03  0.41800000000E+01 0. -1.
         -5    1    1    2    0  502 -0.36948263536E+02 -0.41448259387E+02  0.49724776231E+03  0.50035581530E+03  0.41800000000E+01 0.  1.
        -11    1    1    2    0    0  0.99973016899E+01  0.89757079492E+01  0.16951598409E+02  0.21630211809E+02  0.00000000000E+00 0.  1.
         11    1    1    2    0    0  0.13355478647E+02 -0.20525710270E+02 -0.66207485247E+02  0.70591109176E+02  0.00000000000E+00 0. -1.
</event>
<event>
 6    1  0.6981059E-006  0.1340640E+03  0.7561462E-02  0.1221547E+00
          4   -1    0    0  501    0  0.00000000000E+00  0.00000000000E+00  0.44963148656E+02  0.44963148656E+02  0.00000000000E+00 0. -1.
         -4   -1    0    0    0  501 -0.00000000000E+00 -0.00000000000E+00 -0.61013600563E+03  0.61013600563E+03  0.00000000000E+00 0.  1.
          5    1    1    2  502    0 -0.15265241239E+01 -0.11470881046E+02 -0.15564904038E+03  0.15613458156E+03  0.41800000000E+01 0. -1.
         -5    1    1    2    0  502 -0.10347756219E+03  0.79505593920E+02 -0.16860231008E+03  0.21324389019E+03  0.41800000000E+01 0. -1.
        -11    1    1    2    0    0  0.31740753575E+02 -0.23902822674E+02 -0.12253334429E+02  0.41580819784E+02  0.00000000000E+00 0. -1.
         11    1    1    2    0    0  0.73263332739E+02 -0.44131890200E+02 -0.22866817209E+03  0.24413986275E+03  0.00000000000E+00 0.  1.
</event>
<event>
 6    1  0.6981059E-006  0.1402043E+03  0.7561462E-02  0.1213054E+00
          2   -1    0    0  501    0  0.00000000000E+00  0.00000000000E+00  0.44088147751E+03  0.44088147751E+03  0.00000000000E+00 0. -1.
         -2   -1    0    0    0  501 -0.00000000000E+00 -0.00000000000E+00 -0.50789328818E+02  0.50789328818E+02  0.00000000000E+00 0.  1.
          5    1    1    2  502    0  0.10469217928E+03  0.53933303207E+02  0.23958513057E+03  0.26699767937E+03  0.41800000000E+01 0. -1.
         -5    1    1    2    0  502 -0.31473300198E+02  0.86740577331E+01  0.25864248498E+02  0.41859761744E+02  0.41800000000E+01 0. -1.
        -11    1    1    2    0    0 -0.29677421481E+02 -0.78012720041E+02  0.10068489423E+03  0.13078295669E+03  0.00000000000E+00 0. -1.
         11    1    1    2    0    0 -0.43541457597E+02  0.15405359102E+02  0.23957875396E+02  0.52030408534E+02  0.00000000000E+00 0.  1.
</event>
<event>
 6    1  0.6981059E-006  0.1092182E+03  0.7561462E-02  0.1262025E+00
         -2   -1    0    0    0  501 -0.00000000000E+00  0.00000000000E+00  0.80996790117E+02  0.80996790117E+02  0.00000000000E+00 0.  1.
          2   -1    0    0  501    0  0.00000000000E+00 -0.00000000000E+00 -0.15632985495E+03  0.15632985495E+03  0.00000000000E+00 0. -1.
          5    1    1    2  502    0 -0.57078061603E+02  0.11017797787E+01  0.54460881864E+00  0.57244109162E+02  0.41800000000E+01 0.  1.
         -5    1    1    2    0  502  0.59139052102E+02  0.29768995037E+02 -0.40056843948E+02  0.77496088264E+02  0.41800000000E+01 0.  1.
        -11    1    1    2    0    0  0.39667621686E+02 -0.35027180012E+02 -0.11657246747E+02  0.54187774927E+02  0.00000000000E+00 0.  1.
         11    1    1    2    0    0 -0.41728612185E+02  0.41564051961E+01 -0.24163582954E+02  0.48398672711E+02  0.00000000000E+00 0. -1.
</event>
<event>
 6    1  0.6981059E-006  0.2036543E+03  0.7561462E-02  0.1146692E+00
         -1   -1    0    0    0  501 -0.00000000000E+00  0.00000000000E+00  0.61210644919E+02  0.61210644919E+02  0.00000000000E+00 0.  1.
          1   -1    0    0  501    0  0.00000000000E+00 -0.00000000000E+00 -0.89491169851E+03  0.89491169851E+03  0.00000000000E+00 0. -1.
          5    1    1    2  502    0 -0.60919603923E+02  0.10276286195E+03 -0.88447129983E+02  0.14870027283E+03  0.41800000000E+01 0. -1.
         -5    1    1    2    0  502 -0.92377959162E+02 -0.11587344672E+02 -0.12869099641E+03  0.15889241282E+03  0.41800000000E+01 0. -1.
        -11    1    1    2    0    0  0.77159645685E+02 -0.89840876978E+02 -0.29090600626E+03  0.31408804272E+03  0.00000000000E+00 0.  1.
         11    1    1    2    0    0  0.76137917400E+02 -0.13346402963E+01 -0.32565692093E+03  0.33444161506E+03  0.00000000000E+00 0. -1.
</event>
<event>
 6    1  0.6981059E-006  0.1016942E+03  0.7561462E-02  0.1276773E+00
         -3   -1    0    0    0  501 -0.00000000000E+00  0.00000000000E+00  0.79811847004E+02  0.79811847004E+02  0.00000000000E+00 0.  1.
          3   -1    0    0  501    0  0.00000000000E+00 -0.00000000000E+00 -0.19398690960E+03  0.19398690960E+03  0.00000000000E+00 0. -1.
          5    1    1    2  502    0  0.45543372798E+02 -0.38043479767E+02 -0.30454329216E+02  0.66831457612E+02  0.41800000000E+01 0. -1.
         -5    1    1    2    0  502 -0.45478963250E+01  0.77158137748E+02 -0.26388905397E+02  0.81779632610E+02  0.41800000000E+01 0. -1.
        -11    1    1    2    0    0 -0.29432595950E+02 -0.44804522681E+02  0.11778700962E+02  0.54885888472E+02  0.00000000000E+00 0.  1.
         11    1    1    2    0    0 -0.11562880522E+02  0.56898646997E+01 -0.69110528947E+02  0.70301777912E+02  0.00000000000E+00 0. -1.
</event>
<event>
 6    1  0.6981059E-006  0.1231329E+03  0.7561462E-02  0.1238016E+00
         -2   -1    0    0    0  501 -0.00000000000E+00  0.00000000000E+00  0.12198380818E+02  0.12198380818E+02  0.00000000000E+00 0.  1.
          2   -1    0    0  501    0  0.00000000000E+00 -0.00000000000E+00 -0.13005949517E+04  0.13005949517E+04  0.00000000000E+00 0. -1.
          5    1    1    2  502    0  0.52756447217E+02 -0.19594695604E+02 -0.19352948086E+03  0.20158950166E+03  0.41800000000E+01 0. -1.
         -5    1    1    2    0  502 -0.66922479778E+02 -0.46297866954E+02 -0.46632771883E+03  0.47339320288E+03  0.41800000000E+01 0. -1.
        -11    1    1    2    0    0 -0.32988228294E+02  0.47288237927E+02 -0.33140810971E+03  0.33638628961E+03  0.00000000000E+00 0.  1.
         11    1    1    2    0    0  0.47154260856E+02  0.18604324631E+02 -0.29713126149E+03  0.30142433838E+03  0.00000000000E+00 0. -1.
</event>
<event>
 6    1  0.6981059E-006  0.7908962E+02  0.7561462E-02  0.1331655E+00
         -2   -1    0    0    0  501 -0.00000000000E+00  0.00000000000E+00  0.23357232067E+03  0.23357232067E+03  0.00000000000E+00 0. -1.
          2   -1    0    0  501    0  0.00000000000E+00 -0.00000000000E+00 -0.75557838952E+02  0.75557838952E+02  0.00000000000E+00 0.  1.
          5    1    1    2  502    0 -0.60387488475E+01  0.82645622580E+01  0.12066619948E+03  0.12117166985E+03  0.41800000000E+01 0. -1.
         -5    1    1    2    0  502 -0.45718552656E+02 -0.50441483778E+02  0.51587333343E+01  0.68400396726E+02  0.41800000000E+01 0. -1.
        -11    1    1    2    0    0 -0.21145864289E+01  0.20882889898E+02  0.53785304585E+02  0.57735825581E+02  0.00000000000E+00 0. -1.
         11    1    1    2    0    0  0.53871887932E+02  0.21294031622E+02 -0.21595755676E+02  0.61822267472E+02  0.00000000000E+00 0.  1.
</event>
<event>
 6    1  0.6981059E-006  0.2205010E+03  0.7561462E-02  0.1133510E+00
         -2   -1    0    0    0  501 -0.00000000000E+00  0.00000000000E+00  0.63629851504E+02  0.63629851504E+02  0.00000000000E+00 0.  1.
          2   -1    0    0  501    0  0.00000000000E+00 -0.00000000000E+00 -0.95590998622E+03  0.95590998622E+03  0.00000000000E+00 0. -1.
          5    1    1    2  502    0  0.35502874124E+02  0.27133389529E+02 -0.28694729586E+02  0.53268516072E+02  0.41800000000E+01 0. -1.
         -5    1    1    2    0  502  0.11507289268E+03  0.12215270075E+03 -0.56594844004E+03  0.59032038937E+03  0.41800000000E+01 0. -1.
        -11    1    1    2    0    0 -0.12217348592E+03 -0.15689076689E+03 -0.24381917010E+03  0.31462495309E+03  0.00000000000E+00 0. -1.
         11    1    1    2    0    0 -0.28402280887E+02  0.76046766133E+01 -0.53817794991E+02  0.61325979191E+02  0.00000000000E+00 0.  1.
</event>
<event>
 6    1  0.6981059E-006  0.7873489E+02  0.7561462E-02  0.1332680E+00
          2   -1    0    0  501    0  0.00000000000E+00  0.00000000000E+00  0.82775611288E+03  0.82775611288E+03  0.00000000000E+00 0.  1.
         -2   -1    0    0    0  501 -0.00000000000E+00 -0.00000000000E+00 -0.15517679786E+02  0.15517679786E+02  0.00000000000E+00 0. -1.
          5    1    1    2  502    0 -0.38072198991E+02  0.14867320576E+02  0.32724886566E+02  0.52525423919E+02  0.41800000000E+01 0. -1.
         -5    1    1    2    0  502  0.15939375875E+02 -0.12511072044E+02  0.35271112298E+03  0.35331742004E+03  0.41800000000E+01 0. -1.
        -11    1    1    2    0    0  0.35092271717E+02  0.38936148061E+02  0.22168995286E+03  0.22780238444E+03  0.00000000000E+00 0. -1.
         11    1    1    2    0    0 -0.12959448601E+02 -0.41292396593E+02  0.20511247069E+03  0.20962856427E+03  0.00000000000E+00 0.  1.
</event>
<event>
 6    1  0.6981059E-006  0.1925483E+03  0.7561462E-02  0.1156183E+00
          2   -1    0    0  501    0  0.00000000000E+00  0.00000000000E+00  0.45315686934E+03  0.45315686934E+03  0.00000000000E+00 0. -1.
         -2   -1    0    0    0  501 -0.00000000000E+00 -0.00000000000E+00 -0.11123347344E+03  0.11123347344E+03  0.00000000000E+00 0.  1.
          5    1    1    2  502    0  0.22247202492E+02 -0.11342715941E+03 -0.35643918177E+01  0.11571877894E+03  0.41800000000E+01 0. -1.
         -5    1    1    2    0  502 -0.35292607046E+02 -0.70530745240E+02  0.83205022241E+02  0.11472010400E+03  0.41800000000E+01 0.  1.
        -11    1    1    2    0    0  0.30571764734E+02  0.13600463797E+03  0.12408869648E+03  0.18662770143E+03  0.00000000000E+00 0. -1.
         11    1    1    2    0    0 -0.17526360179E+02  0.47953266681E+02  0.13819406899E+03  0.14732375841E+03  0.00000000000E+00 0.  1.
</event>
<event>
 6    1  0.6981059E-006  0.8276017E+02  0.7561462E-02  0.1321396E+00
          2   -1    0    0  501    0  0.00000000000E+00  0.00000000000E+00  0.28283551786E+03  0.28283551786E+03  0.00000000000E+00 0. -1.
         -2   -1    0    0    0  501 -0.00000000000E+00 -0.00000000000E+00 -0.62579562644E+02  0.62579562644E+02  0.00000000000E+00 0.  1.
          5    1    1    2  502    0  0.57709343126E+02  0.20089700800E+02 -0.16999337940E+02  0.63564252947E+02  0.41800000000E+01 0.  1.
         -5    1    1    2    0  502  0.69184630782E+01 -0.35932183650E+02  0.86994964507E+02  0.94470012188E+02  0.41800000000E+01 0.  1.
        -11    1    1    2    0    0 -0.30797177848E+02  0.19174001307E+01  0.14749930671E+03  0.15069236233E+03  0.00000000000E+00 0. -1.
         11    1    1    2    0    0 -0.33830628356E+02  0.13925082719E+02  0.27610219381E+01  0.36688453032E+02  0.00000000000E+00 0.  1.
</event>
<event>
 6    1  0.6981059E-006  0.1264871E+03  0.7561462E-02  0.1232763E+00
         -1   -1    0    0    0  501 -0.00000000000E+00  0.00000000000E+00  0.19898785161E+03  0.19898785161E+03  0.00000000000E+00 0.  1.
          1   -1    0    0  501    0  0.00000000000E+00 -0.00000000000E+00 -0.12071287805E+03  0.12071287805E+03  0.00000000000E+00 0. -1.
          5    1    1    2  502    0 -0.44298711131E+01  0.58135311610E+02 -0.43646032259E+02  0.72950577421E+02  0.41800000000E+01 0.  1.
         -5    1    1    2    0  502 -0.32894049464E+02  0.38525903952E+02  0.77955237100E+02  0.93063178308E+02  0.41800000000E+01 0.  1.
        -11    1    1    2    0    0 -0.33830885739E+02 -0.42192496077E+02  0.33137280009E+02  0.63425664218E+02  0.00000000000E+00 0.  1.
         11    1    1    2    0    0  0.71154806316E+02 -0.54468719484E+02  0.10828488706E+02  0.90261309716E+02  0.00000000000E+00 0. -1.
</event>
<event>
 6    1  0.6981059E-006  0.1908674E+03  0.7561462E-02  0.1157681E+00
          2   -1    0    0  501    0  0.00000000000E+00  0.00000000000E+00  0.82668083870E+03  0.82668083870E+03  0.00000000000E+00 0. -1.
         -2   -1    0    0    0  501 -0.00000000000E+00 -0.00000000000E+00 -0.56156107830E+02  0.56156107830E+02  0.00000000000E+00 0.  1.
          5    1    1    2  502    0 -0.14844023769E+03 -0.96480581394E+02  0.34245128782E+03  0.38552997767E+03  0.41800000000E+01 0.  1.
         -5    1    1    2    0  502 -0.11866693454E+02  0.76532009816E+01 -0.72858220773E+01  0.16430018325E+02  0.41800000000E+01 0.  1.
        -11    1    1    2    0    0  0.66968744444E+02  0.99251496816E+01  0.78458774250E+02  0.10362963179E+03  0.00000000000E+00 0.  1.
         11    1    1    2    0    0  0.93338186701E+02  0.78902230730E+02  0.35690049088E+03  0.37724731874E+03  0.00000000000E+00 0. -1.
</event>
<event>
 6    1  0.6981059E-006  0.1098397E+03  0.7561462E-02  0.1260867E+00
         -2   -1    0    0    0  501 -0.00000000000E+00  0.00000000000E+00  0.15478432096E+03  0.15478432096E+03  0.00000000000E+00 0.  1.
          2   -1    0    0  501    0  0.00000000000E+00 -0.00000000000E+00 -0.10779807315E+03  0.10779807315E+03  0.00000000000E+00 0. -1.
          5    1    1    2  502    0  0.41886459133E+02 -0.17980453763E+02  0.38507665364E+02  0.59817095115E+02  0.41800000000E+01 0. -1.
         -5    1    1    2    0  502 -0.23683540935E+02  0.82927484019E+02 -0.39757295213E+01  0.86435852180E+02  0.41800000000E+01 0. -1.
        -11    1    1    2    0    0  0.19474700311E+02 -0.13103715109E+02  0.40153702435E+02  0.46511193503E+02  0.00000000000E+00 0.  1.
         11    1    1    2    0    0 -0.37677618509E+02 -0.51843315148E+02 -0.27699390467E+02  0.69818253303E+02  0.00000000000E+00 0. -1.
</event>
<event>
 6    1  0.6981059E-006  0.1704547E+03  0.7561462E-02  0.1177374E+00
         -1   -1    0    0    0  501 -0.00000000000E+00  0.00000000000E+00  0.22959497174E+03  0.22959497174E+03  0.00000000000E+00 0.  1.
          1   -1    0    0  501    0  0.00000000000E+00 -0.00000000000E+00 -0.24683370213E+03  0.24683370213E+03  0.00000000000E+00 0. -1.
          5    1    1    2  502    0  0.25847810242E+02 -0.78915100500E+02  0.11900770761E+03  0.14517578742E+03  0.41800000000E+01 0.  1.
         -5    1    1    2    0  502  0.91692039323E+02 -0.12287290233E+02  0.22642422924E+02  0.95333935681E+02  0.41800000000E+01 0.  1.
        -11    1    1    2    0    0 -0.11425545159E+03  0.10243739195E+03 -0.11853789380E+03  0.19390451195E+03  0.00000000000E+00 0.  1.
         11    1    1    2    0    0 -0.32843979756E+01 -0.11235001215E+02 -0.40350967124E+02  0.42014438830E+02  0.00000000000E+00 0. -1.
</event>
<event>
 6    1  0.6981059E-006  0.1226528E+03  0.7561462E-02  0.1238784E+00
          2   -1    0    0  501    0  0.00000000000E+00  0.00000000000E+00  0.31522654205E+03  0.31522654205E+03  0.00000000000E+00 0. -1.
         -2   -1    0    0    0  501 -0.00000000000E+00 -0.00000000000E+00 -0.52346785909E+02  0.52346785909E+02  0.00000000000E+00 0.  1.
          5    1    1    2  502    0 -0.55973980031E+02 -0.10653339518E+01  0.86494311225E+02  0.10311624339E+03  0.41800000000E+01 0. -1.
         -5    1    1    2    0  502  0.52629807648E+02 -0.62686600314E+02  0.77554969380E+02  0.11283506630E+03  0.41800000000E+01 0. -1.
        -11    1    1    2    0    0  0.29594559535E+02 -0.81236991683E+01  0.56188674054E+02  0.64023429573E+02  0.00000000000E+00 0. -1.
         11    1    1    2    0    0 -0.26250387152E+02  0.71875633434E+02  0.42641801481E+02  0.87598588692E+02  0.00000000000E+00 0.  1.
</event>
<event>
 6    1  0.6981059E-006  0.1195360E+03  0.7561462E-02  0.1243864E+00
          1   -1    0    0  501    0  0.00000000000E+00  0.00000000000E+00  0.10514010224E+03  0.10514010224E+03  0.00000000000E+00 0. -1.
         -1   -1    0    0    0  501 -0.00000000000E+00 -0.00000000000E+00 -0.15770008137E+03  0.15770008137E+03  0.00000000000E+00 0.  1.
          5    1    1    2  502    0 -0.13889472138E+02  0.52257533993E+02 -0.52070294810E+02  0.75183477552E+02  0.41800000000E+01 0. -1.
         -5    1    1    2    0  502 -0.50727344333E+02 -0.56446174017E+02 -0.30838631362E+01  0.76068499631E+02  0.41800000000E+01 0. -1.
        -11    1    1    2    0    0  0.53946256976E+02  0.42744304443E+02 -0.10216763195E+02  0.69582012433E+02  0.00000000000E+00 0.  1.
         11    1    1    2    0    0  0.10670559494E+02 -0.38555664418E+02  0.12810942015E+02  0.42006193995E+02  0.00000000000E+00 0. -1.
</event>
<event>
 6    1  0.6981059E-006  0.1415528E+03  0.7561462E-02  0.1211255E+00
          2   -1    0    0  501    0  0.00000000000E+00  0.00000000000E+00  0.41997517960E+03  0.41997517960E+03  0.00000000000E+00 0.  1.
         -2   -1    0    0    0  501 -0.00000000000E+00 -0.00000000000E+00 -0.11235821690E+03  0.11235821690E+03  0.00000000000E+00 0. -1.
          5    1    1    2  502    0 -0.66745629462E+02  0.42639572999E+02 -0.65854427590E+02  0.10308923451E+03  0.41800000000E+01 0. -1.
         -5    1    1    2    0  502 -0.43430545163E+02  0.24491925809E+02  0.58229150210E+02  0.76773517682E+02  0.41800000000E+01 0. -1.
        -11    1    1    2    0    0  0.11410335850E+03 -0.32136652008E+02  0.27196105586E+03  0.29667348505E+03  0.00000000000E+00 0.  1.
         11    1    1    2    0    0 -0.39271838737E+01 -0.34994846801E+02  0.43281184211E+02  0.55797159269E+02  0.00000000000E+00 0. -1.
</event>
<event>
 6    1  0.6981059E-006  0.1324646E+03  0.7561462E-02  0.1223844E+00
          2   -1    0    0  501    0  0.00000000000E+00  0.00000000000E+00  0.10029015217E+03  0.10029015217E+03  0.00000000000E+00 0. -1.
         -2   -1    0    0    0  501 -0.00000000000E+00 -0.00000000000E+00 -0.23752808636E+03  0.23752808636E+03  0.00000000000E+00 0.  1.
          5    1    1    2  502    0 -0.33801234065E+02 -0.11099858614E+02 -0.33532391460E+02  0.49067544901E+02  0.41800000000E+01 0.  1.
         -5    1    1    2    0  502  0.93805537445E+02  0.57865052219E+02 -0.12628145997E+03  0.16766729752E+03  0.41800000000E+01 0.  1.
        -11    1    1    2    0    0 -0.74224555920E+02 -0.62908660204E+02  0.20807506240E+02  0.99497419796E+02  0.00000000000E+00 0.  1.
         11    1    1    2    0    0  0.14220252540E+02  0.16143466599E+02  0.17684110025E+01  0.21585976318E+02  0.00000000000E+00 0. -1.
</event>
<event>
 6    1  0.6981059E-006  0.8437615E+02  0.7561462E-02  0.1317072E+00
         -1   -1    0    0    0  501 -0.00000000000E+00  0.00000000000E+00  0.29369092189E+03  0.29369092189E+03  0.00000000000E+00 0.  1.
          1   -1    0    0  501    0  0.00000000000E+00 -0.00000000000E+00 -0.56979370953E+02  0.56979370953E+02  0.00000000000E+00 0. -1.
          5    1    1    2  502    0 -0.27053375576E+01 -0.22480303889E+02 -0.14319940436E+02  0.27114866924E+02  0.41800000000E+01 0.  1.
         -5    1    1    2    0  502  0.25238647412E+02 -0.30922548494E+02  0.20091850871E+03  0.20488756153E+03  0.41800000000E+01 0.  1.
        -11    1    1    2    0    0 -0.56608167017E+02  0.28418350347E+02  0.40971986001E+02  0.75437330589E+02  0.00000000000E+00 0. -1.
         11    1    1    2    0    0  0.34074857163E+02  0.24984502036E+02  0.91409966656E+01  0.43230533801E+02  0.00000000000E+00 0.  1.
</event>
<event>
 6    1  0.6981059E-006  0.1101653E+03  0.7561462E-02  0.1260264E+00
          2   -1    0    0  501    0  0.00000000000E+00  0.00000000000E+00  0.11365855870E+03  0.11365855870E+03  0.00000000000E+00 0. -1.
         -2   -1    0    0    0  501 -0.00000000000E+00 -0.00000000000E+00 -0.11873711174E+03  0.11873711174E+03  0.00000000000E+00 0.  1.
          5    1    1    2  502    0 -0.18753945556E+02 -0.48048615799E+02 -0.90816292425E+01  0.52538827012E+02  0.41800000000E+01 0.  1.
         -5    1    1    2    0  502  0.29076302661E+02  0.69131278498E+02 -0.25961248588E+02  0.79473416131E+02  0.41800000000E+01 0.  1.
        -11    1    1    2    0    0 -0.22554226126E+02 -0.53909514722E+02  0.78666831597E+01  0.58964511341E+02  0.00000000000E+00 0.  1.
         11    1    1    2    0    0  0.12231869021E+02  0.32826852023E+02  0.22097641634E+02  0.41418915960E+02  0.00000000000E+00 0. -1.
</event>
<event>
 6    1  0.6981059E-006  0.1531401E+03  0.7561462E-02  0.1196667E+00
          1   -1    0    0  501    0  0.00000000000E+00  0.00000000000E+00  0.71225104925E+03  0.71225104925E+03  0.00000000000E+00 0. -1.
         -1   -1    0    0    0  501 -0.00000000000E+00 -0.00000000000E+00 -0.37488102657E+02  0.37488102657E+02  0.00000000000E+00 0.  1.
          5    1    1    2  502    0  0.97289148424E+02  0.23756525108E+01  0.11931147937E+03  0.15402442545E+03  0.41800000000E+01 0. -1.
         -5    1    1    2    0  502  0.10076145004E+02 -0.59506129971E+02  0.21140050000E+03  0.21988667991E+03  0.41800000000E+01 0. -1.
        -11    1    1    2    0    0 -0.32713726774E+02  0.65540012380E+02  0.20638180587E+03  0.21899573269E+03  0.00000000000E+00 0. -1.
         11    1    1    2    0    0 -0.74651566655E+02 -0.84095349197E+01  0.13766916136E+03  0.15683231386E+03  0.00000000000E+00 0.  1.
</event>
<event>
 6    1  0.6981059E-006  0.1241191E+03  0.7561462E-02  0.1236452E+00
         -2   -1    0    0    0  501 -0.00000000000E+00  0.00000000000E+00  0.77141206534E+02  0.77141206534E+02  0.00000000000E+00 0.  1.
          2   -1    0    0  501    0  0.00000000000E+00 -0.00000000000E+00 -0.31561465510E+03  0.31561465510E+03  0.00000000000E+00 0. -1.
          5    1    1    2  502    0  0.95412677307E+01  0.69502558684E+02 -0.76792350458E+02  0.10409696894E+03  0.41800000000E+01 0.  1.
         -5    1    1    2    0  502  0.73386144830E+02 -0.74761928397E+01  0.37279820136E+01  0.73978307376E+02  0.41800000000E+01 0.  1.
        -11    1    1    2    0    0 -0.64700632462E+02 -0.42762891431E+02 -0.17083170350E+03  0.18761212020E+03  0.00000000000E+00 0. -1.
         11    1    1    2    0    0 -0.18226780098E+02 -0.19263474413E+02  0.54226233843E+01  0.27068465113E+02  0.00000000000E+00 0.  1.
</event>
<event>
 6    1  0.6981059E-006  0.1071185E+03  0.7561462E-02  0.1266001E+00
         -2   -1    0    0    0  501 -0.00000000000E+00  0.00000000000E+00  0.11382492247E+03  0.11382492247E+03  0.00000000000E+00 0.  1.
          2   -1    0    0  501    0  0.00000000000E+00 -0.00000000000E+00 -0.12957639800E+03  0.12957639800E+03  0.00000000000E+00 0. -1.
          5    1    1    2  502    0 -0.34694813576E+02 -0.27068064911E+02  0.42023333077E+02  0.60990516886E+02  0.41800000000E+01 0.  1.
         -5    1    1    2    0  502  0.21366686301E+02  0.67940338105E+02 -0.17698264923E+02  0.73505957627E+02  0.41800000000E+01 0.  1.
        -11    1    1    2    0    0  0.49974562870E+02 -0.10434507850E+02 -0.32884344083E+02  0.60726567282E+02  0.00000000000E+00 0. -1.
         11    1    1    2    0    0 -0.36646435595E+02 -0.30437765344E+02 -0.71921995990E+01  0.48178278674E+02  0.00000000000E+00 0.  1.
</event>
<event>
 6    1  0.6981059E-006  0.1614341E+03  0.7561462E-02  0.1187087E+00
         -2   -1    0    0    0  501 -0.00000000000E+00  0.00000000000E+00  0.23901236128E+02  0.23901236128E+02  0.00000000000E+00 0. -1.
          2   -1    0    0  501    0  0.00000000000E+00 -0.00000000000E+00 -0.11410337350E+04  0.11410337350E+04  0.00000000000E+00 0.  1.
          5    1    1    2  502    0  0.11377856116E+03  0.79310233637E+02 -0.38342546132E+03  0.40776001634E+03  0.41800000000E+01 0. -1.
         -5    1    1    2    0  502 -0.30239390792E+02  0.17095532216E+02 -0.17809595924E+03  0.18150019580E+03  0.41800000000E+01 0. -1.
        -11    1    1    2    0    0 -0.68330665994E+02 -0.19967920734E+02 -0.30640767328E+03  0.31456868887E+03  0.00000000000E+00 0.  1.
         11    1    1    2    0    0 -0.15208504376E+02 -0.76437845118E+02 -0.24920340507E+03  0.26110607015E+03  0.00000000000E+00 0. -1.
</event>
<event>
 6    1  0.6981059E-006  0.9382256E+02  0.7561462E-02  0.1293850E+00
          1   -1    0    0  501    0  0.00000000000E+00  0.00000000000E+00  0.50977033998E+02  0.50977033998E+02  0.00000000000E+00 0. -1.
         -1   -1    0    0    0  501 -0.00000000000E+00 -0.00000000000E+00 -0.23215486590E+03  0.23215486590E+03  0.00000000000E+00 0.  1.
          5    1    1    2  502    0  0.11227860317E+02 -0.46983928653E+02 -0.11569181366E+02  0.49848498036E+02  0.41800000000E+01 0. -1.
         -5    1    1    2    0  502 -0.16991808360E+02  0.50439755308E+02 -0.12255096142E+03  0.13367535679E+03  0.41800000000E+01 0. -1.
        -11    1    1    2    0    0 -0.38097029055E+02 -0.14121086956E+02 -0.32962900250E+02  0.52319609255E+02  0.00000000000E+00 0.  1.
         11    1    1    2    0    0  0.43860977099E+02  0.10665260301E+02 -0.14094788867E+02  0.47288435823E+02  0.00000000000E+00 0. -1.
</event>
<event>
 6    1  0.6981059E-006  0.1328062E+03  0.7561462E-02  0.1223350E+00
          2   -1    0    0  501    0  0.00000000000E+00  0.00000000000E+00  0.62447858786E+03  0.62447858786E+03  0.00000000000E+00 0. -1.
         -2   -1    0    0    0  501 -0.00000000000E+00 -0.00000000000E+00 -0.35360822237E+02  0.35360822237E+02  0.00000000000E+00 0.  1.
          5    1    1    2  502    0 -0.20941498177E+02  0.19978530073E+02  0.15003396835E+02  0.32867344377E+02  0.41800000000E+01 0.  1.
         -5    1    1    2    0  502  0.69573906963E+02 -0.92472301434E+02  0.19299228031E+03  0.22506698497E+03  0.41800000000E+01 0.  1.
        -11    1    1    2    0    0  0.65740879438E+01  0.64447309552E+02  0.13778337433E+03  0.15225285739E+03  0.00000000000E+00 0. -1.
         11    1    1    2    0    0 -0.55206496729E+02  0.80464618092E+01  0.24333871414E+03  0.24965222336E+03  0.00000000000E+00 0.  1.
</event>
<event>
 6    1  0.6981059E-006  0.9509402E+02  0.7561462E-02  0.1290964E+00
          2   -1    0    0  501    0  0.00000000000E+00  0.00000000000E+00  0.72831105145E+03  0.72831105145E+03  0.00000000000E+00 0. -1.
         -2   -1    0    0    0  501 -0.00000000000E+00 -0.00000000000E+00 -0.23623911531E+02  0.23623911531E+02  0.00000000000E+00 0.  1.
          5    1    1    2  502    0  0.10182090894E+02  0.73226226168E+02  0.81966886868E+02  0.11046174956E+03  0.41800000000E+01 0. -1.
         -5    1    1    2    0  502 -0.17199156701E+02 -0.27033659987E+01  0.25847205362E+03  0.25909147821E+03  0.41800000000E+01 0. -1.
        -11    1    1    2    0    0  0.28039279579E+02 -0.38215856852E+01  0.31418887286E+02  0.42284183742E+02  0.00000000000E+00 0.  1.
         11    1    1    2    0    0 -0.21022213771E+02 -0.66701274484E+02  0.33282931215E+03  0.34009755147E+03  0.00000000000E+00 0. -1.
</event>
<event>
 6    1  0.6981059E-006  0.1254055E+03  0.7561462E-02  0.1234437E+00
          2   -1    0    0  501    0  0.00000000000E+00  0.00000000000E+00  0.14795261106E+03  0.14795261106E+03  0.00000000000E+00 0. -1.
         -2   -1    0    0    0  501 -0.00000000000E+00 -0.00000000000E+00 -0.16646833735E+03  0.16646833735E+03  0.00000000000E+00 0.  1.
          5    1    1    2  502    0 -0.11190407207E+03 -0.45343517292E+02 -0.54517590177E+02  0.13254507138E+03  0.41800000000E+01 0.  1.
         -5    1    1    2    0  502  0.33761640045E+02 -0.32306727782E+01 -0.21225734820E+02  0.40227972902E+02  0.41800000000E+01 0.  1.
        -11    1    1    2    0    0  0.20510908883E+01  0.10575823916E+02  0.55544637377E+02  0.56579693943E+02  0.00000000000E+00 0. -1.
         11    1    1    2    0    0  0.76091341141E+02  0.37998366154E+02  0.16829613330E+01  0.85068210196E+02  0.00000000000E+00 0.  1.
</event>
<event>
 6    1  0.6981059E-006  0.1603420E+03  0.7561462E-02  0.1188311E+00
          2   -1    0    0  501    0  0.00000000000E+00  0.00000000000E+00  0.72374976326E+02  0.72374976326E+02  0.00000000000E+00 0. -1.
         -2   -1    0    0    0  501 -0.00000000000E+00 -0.00000000000E+00 -0.64551083512E+03  0.64551083512E+03  0.00000000000E+00 0.  1.
          5    1    1    2  502    0  0.10713393646E+02  0.20828643959E+02  0.26002312626E+02  0.35244884373E+02  0.41800000000E+01 0. -1.
         -5    1    1    2    0  502  0.10762220028E+03  0.70063144928E+02 -0.37729906592E+03  0.39857676779E+03  0.41800000000E+01 0.  1.
        -11    1    1    2    0    0 -0.63589683873E+02 -0.15317601206E+01 -0.12997008603E+03  0.14470044038E+03  0.00000000000E+00 0. -1.
         11    1    1    2    0    0 -0.54745910057E+02 -0.89360028766E+02 -0.91869019467E+02  0.13936371890E+03  0.00000000000E+00 0.  1.
</event>
<event>
 6    1  0.6981059E-006  0.1606057E+03  0.7561462E-02  0.1188015E+00
          1   -1    0    0  501    0  0.00000000000E+00  0.00000000000E+00  0.10580698594E+04  0.10580698594E+04  0.00000000000E+00 0. -1.
         -1   -1    0    0    0  501 -0.00000000000E+00 -0.00000000000E+00 -0.38744971583E+02  0.38744971583E+02  0.00000000000E+00 0.  1.
          5    1    1    2  502    0  0.31006934184E+02 -0.12363141546E+03  0.45360995991E+03  0.47119595180E+03  0.41800000000E+01 0.  1.
         -5    1    1    2    0  502 -0.40565036826E+02 -0.82422889775E+01  0.36739849335E+03  0.36974664685E+03  0.41800000000E+01 0.  1.
        -11    1    1    2    0    0  0.41058209870E+02  0.95550930068E+02  0.90659166364E+02  0.13796681224E+03  0.00000000000E+00 0.  1.
         11    1    1    2    0    0 -0.31500107228E+02  0.36322774373E+02  0.10765726818E+03  0.11790542008E+03  0.00000000000E+00 0. -1.
</event>
<event>
 6    1  0.6981059E-006  0.1957919E+03  0.7561462E-02  0.1153339E+00
         -2   -1    0    0    0  501 -0.00000000000E+00  0.00000000000E+00  0.11376623504E+04  0.11376623504E+04  0.00000000000E+00 0.  1.
          2   -1    0    0  501    0  0.00000000000E+00 -0.00000000000E+00 -0.54421474151E+02  0.54421474151E+02  0.00000000000E+00 0. -1.
          5    1    1    2  502    0  0.93305851668E+02 -0.48945298063E+02  0.62211503867E+03  0.63098828665E+03  0.41800000000E+01 0.  1.
         -5    1    1    2    0  502  0.25534842950E+02 -0.94942264484E+02  0.22834831248E+03  0.24864932335E+03  0.41800000000E+01 0.  1.
        -11    1    1    2    0    0 -0.10868277724E+03  0.12072197940E+03  0.13428142995E+03  0.21075399121E+03  0.00000000000E+00 0. -1.
         11    1    1    2    0    0 -0.10157917374E+02  0.23165583146E+02  0.98496095159E+02  0.10169222335E+03  0.00000000000E+00 0.  1.
</event>
<event>
 6    1  0.6981059E-006  0.7322961E+02  0.7561462E-02  0.1349443E+00
          2   -1    0    0  501    0  0.00000000000E+00  0.00000000000E+00  0.89562625282E+02  0.89562625282E+02  0.00000000000E+00 0. -1.
         -2   -1    0    0    0  501 -0.00000000000E+00 -0.00000000000E+00 -0.16205998326E+03  0.16205998326E+03  0.00000000000E+00 0.  1.
          5    1    1    2  502    0 -0.91913027708E+01  0.38860900400E+02  0.94847979848E+01  0.41256313691E+02  0.41800000000E+01 0.  1.
         -5    1    1    2    0  502  0.45527041350E+02 -0.48938414468E+02 -0.90087468588E+02  0.11225374961E+03  0.41800000000E+01 0.  1.
        -11    1    1    2    0    0 -0.26274821751E+02  0.18497419360E+01  0.48766205790E+02  0.55425000049E+02  0.00000000000E+00 0. -1.
         11    1    1    2    0    0 -0.10060916828E+02  0.82277721316E+01 -0.40660893160E+02  0.42687545189E+02  0.00000000000E+00 0.  1.
</event>
<event>
 6    1  0.6981059E-006  0.1024620E+03  0.7561462E-02  0.1275202E+00
         -1   -1    0    0    0  501 -0.00000000000E+00  0.00000000000E+00  0.28138130482E+03  0.28138130482E+03  0.00000000000E+00 0.  1.
          1   -1    0    0  501    0  0.00000000000E+00 -0.00000000000E+00 -0.12310529949E+03  0.12310529949E+03  0.00000000000E+00 0. -1.
          5    1    1    2  502    0 -0.40494568369E+02 -0.19648045302E+02  0.17384383913E+03  0.17962463237E+03  0.41800000000E+01 0.  1.
         -5    1    1    2    0  502  0.65242959115E+02 -0.13278223304E+02  0.65113254793E+02  0.93221045253E+02  0.41800000000E+01 0.  1.
        -11    1    1    2    0    0  0.30859225725E+01  0.56469243305E+02 -0.18394085673E+02  0.59469662394E+02  0.00000000000E+00 0.  1.
         11    1    1    2    0    0 -0.27834313319E+02 -0.23542974699E+02 -0.62287002921E+02  0.72171264285E+02  0.00000000000E+00 0. -1.
</event>
<event>
 6    1  0.8567811E-006  0.9008007E+02  0.7561462E-02  0.1302658E+00
         -1   -1    0    0    0  501 -0.00000000000E+00  0.00000000000E+00  0.66981038207E+02  0.66981038207E+02  0.00000000000E+00 0.  1.
          1   -1    0    0  501    0  0.00000000000E+00 -0.00000000000E+00 -0.23362772221E+03  0.23362772221E+03  0.00000000000E+00 0. -1.
          5    1    1    2  502    0  0.45349762472E+02  0.35876210532E+02 -0.40880244981E+01  0.58119598955E+02  0.41800000000E+01 0. -1.
         -5    1    1    2    0  502 -0.15190882782E+02 -0.69954202758E+02 -0.39979151043E+02  0.82098467229E+02  0.41800000000E+01 0. -1.
        -11    1    1    2    0    0 -0.30964307337E+02  0.21088432862E+02 -0.13637377533E+03  0.14142601220E+03  0.00000000000E+00 0. -1.
         11    1    1    2    0    0  0.80542764692E+00  0.12989559363E+02  0.13794266869E+02  0.18964682032E+02  0.00000000000E+00 0.  1.
</event>
<event>
 6    1  0.6981059E-006  0.1566110E+03  0.7561462E-02  0.1192577E+00
         -2   -1    0    0    0  501 -0.00000000000E+00  0.00000000000E+00  0.58909297153E+03  0.58909297153E+03  0.00000000000E+00 0.  1.
          2   -1    0    0  501    0  0.00000000000E+00 -0.00000000000E+00 -0.45159819278E+02  0.45159819278E+02  0.00000000000E+00 0. -1.
          5    1    1    2  502    0 -0.59131739790E+02 -0.97911533973E+01  0.18488027713E+03  0.19439809312E+03  0.41800000000E+01 0. -1.
         -5    1    1    2    0  502 -0.24346435039E+02  0.99972347040E+02  0.12813748225E+03  0.16438949428E+03  0.41800000000E+01 0. -1.
        -11    1    1    2    0    0 -0.18271322028E+02 -0.15210288367E+02  0.34378413998E+02  0.41797959638E+02  0.00000000000E+00 0.  1.
         11    1    1    2    0    0  0.10174949686E+03 -0.74970905276E+02  0.19653697887E+03  0.23366724377E+03  0.00000000000E+00 0. -1.
</event>
<event>
 6    1  0.6981059E-006  0.1288808E+03  0.7561462E-02  0.1229126E+00
          1   -1    0    0  501    0  0.00000000000E+00  0.00000000000E+00  0.98415132391E+03  0.98415132391E+03  0.00000000000E+00 0. -1.
         -1   -1    0    0    0  501 -0.00000000000E+00 -0.00000000000E+00 -0.18361737682E+02  0.18361737682E+02  0.00000000000E+00 0.  1.
          5    1    1    2  502    0 -0.36131298350E+02 -0.91590837626E+01  0.20750285269E+03  0.21086551593E+03  0.41800000000E+01 0. -1.
         -5    1    1    2    0  502  0.65078089087E+02  0.82465061244E+02  0.30979019921E+03  0.32714382759E+03  0.41800000000E+01 0. -1.
        -11    1    1    2    0    0 -0.47672243332E+02 -0.94822434931E+01  0.12249829196E+03  0.13178917732E+03  0.00000000000E+00 0.  1.
         11    1    1    2    0    0  0.18725452595E+02 -0.63823733989E+02  0.32599824237E+03  0.33271454075E+03  0.00000000000E+00 0. -1.
</event>
<event>
 6    1  0.7558011E-006  0.1168009E+03  0.7561462E-02  0.1248470E+00
         -1   -1    0    0    0  501 -0.00000000000E+00  0.00000000000E+00  0.18955836794E+03  0.18955836794E+03  0.00000000000E+00 0.  1.
          1   -1    0    0  501    0  0.00000000000E+00 -0.00000000000E+00 -0.10127613526E+03  0.10127613526E+03  0.00000000000E+00 0. -1.
          5    1    1    2  502    0 -0.20149523950E+02 -0.57261658428E+02  0.79099485396E+02  0.99795299645E+02  0.41800000000E+01 0. -1.
         -5    1    1    2    0  502  0.65308071834E+02 -0.12949641454E+02 -0.68264607971E+01  0.67059007058E+02  0.41800000000E+01 0. -1.
        -11    1    1    2    0    0  0.16526141637E+02  0.23213848083E+02  0.34010193744E+02  0.44369915244E+02  0.00000000000E+00 0.  1.
         11    1    1    2    0    0 -0.61684689522E+02  0.46997451799E+02 -0.18000985668E+02  0.79610281258E+02  0.00000000000E+00 0. -1.
</event>
<event>
 6    1  0.6981059E-006  0.1030656E+03  0.7561462E-02  0.1273978E+00
         -1   -1    0    0    0  501 -0.00000000000E+00  0.00000000000E+00  0.10879652848E+03  0.10879652848E+03  0.00000000000E+00 0.  1.
          1   -1    0    0  501    0  0.00000000000E+00 -0.00000000000E+00 -0.16671159168E+03  0.16671159168E+03  0.00000000000E+00 0. -1.
          5    1    1    2  502    0  0.77198777579E+02 -0.17359580716E+02 -0.60825797485E+02  0.99891222547E+02  0.41800000000E+01 0. -1.
         -5    1    1    2    0  502 -0.33604415630E+00  0.95698969002E+01  0.46658098659E+02  0.47813663557E+02  0.41800000000E+01 0. -1.
        -11    1    1    2    0    0  0.85544475252E+01 -0.23865092099E+02  0.27993651495E+01  0.25506031416E+02  0.00000000000E+00 0.  1.
         11    1    1    2    0    0 -0.85417180948E+02  0.31654775915E+02 -0.46546729519E+02  0.10229720264E+03  0.00000000000E+00 0. -1.
</event>
<event>
 6    1  0.6981059E-006  0.1101414E+03  0.7561462E-02  0.1260308E+00
         -2   -1    0    0    0  501 -0.00000000000E+00  0.00000000000E+00  0.27760524045E+02  0.27760524045E+02  0.00000000000E+00 0.  1.
          2   -1    0    0  501    0  0.00000000000E+00 -0.00000000000E+00 -0.47031243702E+03  0.47031243702E+03  0.00000000000E+00 0. -1.
          5    1    1    2  502    0 -0.56710971786E+01  0.42950894267E+02 -0.13739919448E+03  0.14412824742E+03  0.41800000000E+01 0.  1.
         -5    1    1    2    0  502  0.27634454958E+02 -0.74382988532E+02 -0.10908991088E+03  0.13496137647E+03  0.41800000000E+01 0.  1.
        -11    1    1    2    0    0 -0.28387723941E+02  0.60871421357E+02 -0.12809894550E+03  0.14463931916E+03  0.00000000000E+00 0.  1.
         11    1    1    2    0    0  0.64243661618E+01 -0.29439327092E+02 -0.67963862123E+02  0.74344018016E+02  0.00000000000E+00 0. -1.
</event>
<event>
 6    1  0.6981059E-006  0.1183787E+03  0.7561462E-02  0.1245796E+00
         -2   -1    0    0    0  501 -0.00000000000E+00  0.00000000000E+00  0.26660139556E+02  0.26660139556E+02  0.00000000000E+00 0.  1.
          2   -1    0    0  501    0  0.00000000000E+00 -0.00000000000E+00 -0.76991062097E+03  0.76991062097E+03  0.00000000000E+00 0. -1.
          5    1    1    2  502    0 -0.81028596715E+02  0.49356595176E+02 -0.23296674598E+03  0.25158037305E+03  0.41800000000E+01 0.  1.
         -5    1    1    2    0  502  0.26151502252E+02 -0.30716607130E+01 -0.56773142565E+01  0.27258768622E+02  0.41800000000E+01 0.  1.
        -11    1    1    2    0    0  0.23247933923E+02  0.26807938632E+02 -0.13024274303E+03  0.13499001488E+03  0.00000000000E+00 0.  1.
         11    1    1    2    0    0  0.31629160540E+02 -0.73092873095E+02 -0.37436367815E+03  0.38274160397E+03  0.00000000000E+00 0. -1.
</event>
<event>
 6    1  0.6981059E-006  0.1252503E+03  0.7561462E-02  0.1234679E+00
          2   -1    0    0  501    0  0.00000000000E+00  0.00000000000E+00  0.44642819019E+03  0.44642819019E+03  0.00000000000E+00 0. -1.
         -2   -1    0    0    0  501 -0.00000000000E+00 -0.00000000000E+00 -0.45059222715E+02  0.45059222715E+02  0.00000000000E+00 0.  1.
          5    1    1    2  502    0 -0.10573721040E+03 -0.16007243110E+02  0.83095459888E+02  0.13549508238E+03  0.41800000000E+01 0. -1.
         -5    1    1    2    0  502  0.35336733407E+02 -0.11370473713E+02  0.47947845576E+02  0.60781910925E+02  0.41800000000E+01 0. -1.
        -11    1    1    2    0    0  0.23067603840E+02  0.48943362509E+02  0.71331727528E+02  0.89530902111E+02  0.00000000000E+00 0.  1.
         11    1    1    2    0    0  0.47332873151E+02 -0.21565645686E+02  0.19899393448E+03  0.20567951749E+03  0.00000000000E+00 0. -1.
</event>
<event>
 6    1  0.6981059E-006  0.1217123E+03  0.7561462E-02  0.1240299E+00
         -1   -1    0    0    0  501 -0.00000000000E+00  0.00000000000E+00  0.37519901582E+02  0.37519901582E+02  0.00000000000E+00 0.  1.
          1   -1    0    0  501    0  0.00000000000E+00 -0.00000000000E+00 -0.53694555003E+03  0.53694555003E+03  0.00000000000E+00 0. -1.
          5    1    1    2  502    0  0.36742130993E+02 -0.90005668347E+01 -0.47998293728E+02  0.61256044551E+02  0.41800000000E+01 0.  1.
         -5    1    1    2    0  502 -0.10328489926E+03 -0.12606280880E+01 -0.97849179555E+02  0.14234217203E+03  0.41800000000E+01 0.  1.
        -11    1    1    2    0    0 -0.17061308355E+02 -0.30493436598E+01 -0.18881125801E+02  0.25629741533E+02  0.00000000000E+00 0.  1.
         11    1    1    2    0    0  0.83604076622E+02  0.13310538583E+02 -0.33469704936E+03  0.34523749350E+03  0.00000000000E+00 0. -1.
</event>
<event>
 6    1  0.6981059E-006  0.1392064E+03  0.7561462E-02  0.1214401E+00
         -2   -1    0    0    0  501 -0.00000000000E+00  0.00000000000E+00  0.11453675132E+03  0.11453675132E+03  0.00000000000E+00 0.  1.
          2   -1    0    0  501    0  0.00000000000E+00 -0.00000000000E+00 -0.17829146437E+03  0.17829146437E+03  0.00000000000E+00 0. -1.
          5    1    1    2  502    0  0.53899385144E+01  0.12204937792E+03 -0.28988985845E+02  0.12563015478E+03  0.41800000000E+01 0. -1.
         -5    1    1    2    0  502  0.49615082781E+01 -0.30295421160E+02  0.59369656947E+01  0.31545983410E+02  0.41800000000E+01 0. -1.
        -11    1    1    2    0    0 -0.47650128984E+02 -0.46963273503E+02 -0.45385428892E+01  0.67057305507E+02  0.00000000000E+00 0. -1.
         11    1    1    2    0    0  0.37298682191E+02 -0.44790683260E+02 -0.36164150005E+02  0.68594772000E+02  0.00000000000E+00 0.  1.
</event>
<event>
 6    1  0.6981059E-006  0.1086837E+03  0.7561462E-02  0.1263027E+00
         -1   -1    0    0    0  501 -0.00000000000E+00  0.00000000000E+00  0.33547315912E+03  0.33547315912E+03  0.00000000000E+00 0.  1.
          1   -1    0    0  501    0  0.00000000000E+00 -0.00000000000E+00 -0.36958012289E+02  0.36958012289E+02  0.00000000000E+00 0. -1.
          5    1    1    2  502    0 -0.53085063807E+02 -0.41739826974E+02  0.92565970308E+02  0.11465674169E+03  0.41800000000E+01 0. -1.
         -5    1    1    2    0  502  0.36783392143E+02  0.43419907686E+02  0.11166169407E+03  0.12539582386E+03  0.41800000000E+01 0. -1.
        -11    1    1    2    0    0  0.54070367444E+02  0.49742360752E+01  0.50244160054E+02  0.73978532559E+02  0.00000000000E+00 0.  1.
         11    1    1    2    0    0 -0.37768695780E+02 -0.66543167866E+01  0.44043322403E+02  0.58400073297E+02  0.00000000000E+00 0. -1.
</event>
<event>
 6    1  0.6981059E-006  0.1456456E+03  0.7561462E-02  0.1205928E+00
         -2   -1    0    0    0  501 -0.00000000000E+00  0.00000000000E+00  0.28043906218E+03  0.28043906218E+03  0.00000000000E+00 0.  1.
          2   -1    0    0  501    0  0.00000000000E+00 -0.00000000000E+00 -0.12248763733E+03  0.12248763733E+03  0.00000000000E+00 0. -1.
          5    1    1    2  502    0  0.39602020300E+02  0.16350348304E+02  0.24985096839E+02  0.49773299725E+02  0.41800000000E+01 0.  1.
         -5    1    1    2    0  502  0.60533222239E+01 -0.12137225447E+03  0.16377307342E+03  0.20397783910E+03  0.41800000000E+01 0.  1.
        -11    1    1    2    0    0  0.98811589155E+01  0.39688538302E+02  0.23987380803E+02  0.47415311998E+02  0.00000000000E+00 0.  1.
         11    1    1    2    0    0 -0.55536501439E+02  0.65333367861E+02 -0.54794126213E+02  0.10176024870E+03  0.00000000000E+00 0. -1.
</event>
<event>
 6    1  0.6981059E-006  0.8630533E+02  0.7561462E-02  0.1312054E+00
          1   -1    0    0  501    0  0.00000000000E+00  0.00000000000E+00  0.16231000724E+02  0.16231000724E+02  0.00000000000E+00 0. -1.
         -1   -1    0    0    0  501 -0.00000000000E+00 -0.00000000000E+00 -0.83776983118E+03  0.83776983118E+03  0.00000000000E+00 0.  1.
          5    1    1    2  502    0  0.18002240347E+02  0.11323856369E+02 -0.81491848113E+01  0.23155819866E+02  0.41800000000E+01 0.  1.
         -5    1    1    2    0  502 -0.57918994475E+02  0.57320478007E+01 -0.44920209539E+03  0.45297622586E+03  0.41800000000E+01 0.  1.
        -11    1    1    2    0    0 -0.11346046248E+00  0.30456480854E+02 -0.58734740717E+02  0.66161770430E+02  0.00000000000E+00 0. -1.
         11    1    1    2    0    0  0.40030214590E+02 -0.47512385024E+02 -0.30545280953E+03  0.31170701574E+03  0.00000000000E+00 0.  1.
</event>
<event>
 6    1  0.6981059E-006  0.1433175E+03  0.7561462E-02  0.1208933E+00
         -2   -1    0    0    0  501 -0.00000000000E+00  0.00000000000E+00  0.64722921349E+02  0.64722921349E+02  0.00000000000E+00 0.  1.
          2   -1    0    0  501    0  0.00000000000E+00 -0.00000000000E+00 -0.42626802550E+03  0.42626802550E+03  0.00000000000E+00 0. -1.
          5    1    1    2  502    0  0.39128748576E+02 -0.21354474190E+02 -0.90281882581E+02  0.10077382227E+03  0.41800000000E+01 0.  1.
         -5    1    1    2    0  502 -0.36919735688E+02 -0.89782602912E+02 -0.18766471536E+02  0.98962798682E+02  0.41800000000E+01 0.  1.
        -11    1    1    2    0    0 -0.44127866888E+02  0.29969275501E+02 -0.10465803432E+03  0.11746799674E+03  0.00000000000E+00 0. -1.
         11    1    1    2    0    0  0.41918854000E+02  0.81167801601E+02 -0.14783871572E+03  0.17378632916E+03  0.00000000000E+00 0.  1.
</event>
<event>
 6    1  0.6981059E-006  0.1089424E+03  0.7561462E-02  0.1262541E+00
          1   -1    0    0  501    0  0.00000000000E+00  0.00000000000E+00  0.36088760465E+03  0.36088760465E+03  0.00000000000E+00 0. -1.
         -1   -1    0    0    0  501 -0.00000000000E+00 -0.00000000000E+00 -0.51011165013E+02  0.51011165013E+02  0.00000000000E+00 0.  1.
          5    1    1    2  502    0  0.16599742275E+02 -0.54140082761E+02  0.16574302457E+02  0.59151330559E+02  0.41800000000E+01 0.  1.
         -5    1    1    2    0  502 -0.38423703977E+02  0.57982138884E+02  0.34673782862E+02  0.77833495841E+02  0.41800000000E+01 0.  1.
        -11    1    1    2    0    0 -0.25815962259E+02 -0.27932115993E+02  0.13491415975E+03  0.14017309839E+03  0.00000000000E+00 0. -1.
         11    1    1    2    0    0  0.47639923960E+02  0.24090059870E+02  0.12371419457E+03  0.13474084487E+03  0.00000000000E+00 0.  1.
</event>
<event>
 6    1  0.6981059E-006  0.8678951E+02  0.7561462E-02  0.1310818E+00
         -2   -1    0    0    0  501 -0.00000000000E+00  0.00000000000E+00  0.32168402860E+02  0.32168402860E+02  0.00000000000E+00 0.  1.
          2   -1    0    0  501    0  0.00000000000E+00 -0.00000000000E+00 -0.51503955168E+03  0.51503955168E+03  0.00000000000E+00 0. -1.
          5    1    1    2  502    0 -0.88490399198E+01 -0.34586426052E+01 -0.17673325865E+03  0.17703780621E+03  0.41800000000E+01 0. -1.
         -5    1    1    2    0  502  0.55363152275E+02 -0.41037996172E+02 -0.35590678605E+02  0.77674735682E+02  0.41800000000E+01 0. -1.
        -11    1    1    2    0    0  0.10776880767E+02  0.34317554646E+02 -0.18854685575E+03  0.19194726497E+03  0.00000000000E+00 0. -1.
         11    1    1    2    0    0 -0.57290993123E+02  0.10179084131E+02 -0.82000355812E+02  0.10054814767E+03  0.00000000000E+00 0.  1.
</event>
<event>
 6    1  0.6981059E-006  0.1070090E+03  0.7561462E-02  0.1266211E+00
         -2   -1    0    0    0  501 -0.00000000000E+00  0.00000000000E+00  0.42247093469E+02  0.42247093469E+02  0.00000000000E+00 0.  1.
          2   -1    0    0  501    0  0.00000000000E+00 -0.00000000000E+00 -0.40370973623E+03  0.40370973623E+03  0.00000000000E+00 0. -1.
          5    1    1    2  502    0 -0.28808590063E+02 -0.19295509118E+02 -0.10865645569E+03  0.11413128097E+03  0.41800000000E+01 0.  1.
         -5    1    1    2    0  502  0.87218933585E+02 -0.20836565623E+02 -0.62425591455E+02  0.10934226864E+03  0.41800000000E+01 0.  1.
        -11    1    1    2    0    0 -0.63263656601E+02  0.16751656237E+02 -0.56406866666E+02  0.86398164566E+02  0.00000000000E+00 0.  1.
         11    1    1    2    0    0  0.48533130800E+01  0.23380418505E+02 -0.13397372895E+03  0.13608511552E+03  0.00000000000E+00 0. -1.
</event>
<event>
 6    1  0.6981059E-006  0.7886011E+02  0.7561462E-02  0.1332318E+00
         -1   -1    0    0    0  501 -0.00000000000E+00  0.00000000000E+00  0.14094548700E+03  0.14094548700E+03  0.00000000000E+00 0.  1.
          1   -1    0    0  501    0  0.00000000000E+00 -0.00000000000E+00 -0.16360659590E+03  0.16360659590E+03  0.00000000000E+00 0. -1.
          5    1    1    2  502    0 -0.85928026362E+01  0.22479000440E+01 -0.23175029564E+02  0.25168307592E+02  0.41800000000E+01 0. -1.
         -5    1    1    2    0  502  0.45599187727E+02 -0.16613715650E+02  0.11678703198E+03  0.12653847125E+03  0.41800000000E+01 0.  1.
        -11    1    1    2    0    0  0.16171145519E+02  0.37774917678E+02 -0.46842176094E+02  0.62310832238E+02  0.00000000000E+00 0.  1.
         11    1    1    2    0    0 -0.53177530609E+02 -0.23409102072E+02 -0.69430935217E+02  0.90534471814E+02  0.00000000000E+00 0. -1.
</event>
<event>
 6    1  0.6981059E-006  0.1054533E+03  0.7561462E-02  0.1269229E+00
         -1   -1    0    0    0  501 -0.00000000000E+00  0.00000000000E+00  0.52077427643E+02  0.52077427643E+02  0.00000000000E+00 0.  1.
          1   -1    0    0  501    0  0.00000000000E+00 -0.00000000000E+00 -0.32975235214E+03  0.32975235214E+03  0.00000000000E+00 0. -1.
          5    1    1    2  502    0  0.76367538965E+02 -0.63143109063E+01 -0.13023854947E+02  0.77839352049E+02  0.41800000000E+01 0.  1.
         -5    1    1    2    0  502 -0.16892775852E+02 -0.23444944096E+02 -0.97693825076E+02  0.10196365596E+03  0.41800000000E+01 0.  1.
        -11    1    1    2    0    0 -0.75809354239E+02  0.58823725570E+01 -0.15081359120E+03  0.16889760148E+03  0.00000000000E+00 0. -1.
         11    1    1    2    0    0  0.16334591126E+02  0.23876882446E+02 -0.16143653274E+02  0.33129170282E+02  0.00000000000E+00 0.  1.
</event>
<event>
 6    1  0.6981059E-006  0.2167251E+03  0.7561462E-02  0.1136348E+00
          1   -1    0    0  501    0  0.00000000000E+00  0.00000000000E+00  0.78330551095E+02  0.78330551095E+02  0.00000000000E+00 0. -1.
         -1   -1    0    0    0  501 -0.00000000000E+00 -0.00000000000E+00 -0.63731745313E+03  0.63731745313E+03  0.00000000000E+00 0.  1.
          5    1    1    2  502    0 -0.62048045985E+02  0.11579098273E+03 -0.18462396035E+03  0.22662963360E+03  0.41800000000E+01 0.  1.
         -5    1    1    2    0  502 -0.99041763338E+02 -0.75609368476E+01 -0.13315641791E+03  0.16617623982E+03  0.41800000000E+01 0.  1.
        -11    1    1    2    0    0  0.23203999230E+02 -0.45580090166E+02 -0.11440352638E+03  0.12531614840E+03  0.00000000000E+00 0.  1.
         11    1    1    2    0    0  0.13788581009E+03 -0.62649955720E+02 -0.12680299740E+03  0.19752598241E+03  0.00000000000E+00 0. -1.
</event>
<event>
 6    1  0.6981059E-006  0.1124438E+03  0.7561462E-02  0.1256110E+00
          2   -1    0    0  501    0  0.00000000000E+00  0.00000000000E+00  0.19180200150E+02  0.19180200150E+02  0.00000000000E+00 0. -1.
         -2   -1    0    0    0  501 -0.00000000000E+00 -0.00000000000E+00 -0.79714147544E+03  0.79714147544E+03  0.00000000000E+00 0.  1.
          5    1    1    2  502    0 -0.11655978522E+02  0.81643314619E+02 -0.38498715987E+03  0.39374367083E+03  0.41800000000E+01 0.  1.
         -5    1    1    2    0  502 -0.24669736165E+02 -0.34401133016E+02 -0.70364506363E+02  0.82223293481E+02  0.41800000000E+01 0.  1.
        -11    1    1    2    0    0 -0.17863831098E+02 -0.41620234956E+02 -0.82226800860E+02  0.93875487743E+02  0.00000000000E+00 0. -1.
         11    1    1    2    0    0  0.54189545785E+02 -0.56219466476E+01 -0.24038280820E+03  0.24647922353E+03  0.00000000000E+00 0.  1.
</event>
<event>
 6    1  0.6981059E-006  0.1262371E+03  0.7561462E-02  0.1233149E+00
          2   -1    0    0  501    0  0.00000000000E+00  0.00000000000E+00  0.11955716755E+03  0.11955716755E+03  0.00000000000E+00 0. -1.
         -2   -1    0    0    0  501 -0.00000000000E+00 -0.00000000000E+00 -0.17264798826E+03  0.17264798826E+03  0.00000000000E+00 0.  1.
          5    1    1    2  502    0  0.59380530107E+01 -0.77512162386E+02  0.24808004886E+02  0.81708661093E+02  0.41800000000E+01 0.  1.
         -5    1    1    2    0  502 -0.65536071384E+02  0.73879412923E+01 -0.32838989390E+02  0.73793156547E+02  0.41800000000E+01 0.  1.
        -11    1    1    2    0    0 -0.11330329624E+02  0.14494814251E+02 -0.42740691031E+02  0.46532168222E+02  0.00000000000E+00 0.  1.
         11    1    1    2    0    0  0.70928347997E+02  0.55629406842E+02 -0.23191451711E+01  0.90171169947E+02  0.00000000000E+00 0. -1.
</event>
<event>
 6    1  0.6981059E-006  0.7121296E+02  0.7561462E-02  0.1356016E+00
         -1   -1    0    0    0  501 -0.00000000000E+00  0.00000000000E+00  0.68511012235E+02  0.68511012235E+02  0.00000000000E+00 0.  1.
          1   -1    0    0  501    0  0.00000000000E+00 -0.00000000000E+00 -0.20568248552E+03  0.20568248552E+03  0.00000000000E+00 0. -1.
          5    1    1    2  502    0 -0.47421241445E+02  0.10266422445E+02 -0.12043602763E+03  0.12990951744E+03  0.41800000000E+01 0. -1.
         -5    1    1    2    0  502  0.92434313408E+01  0.21309681505E+02  0.25508389780E+02  0.34751890566E+02  0.41800000000E+01 0. -1.
        -11    1    1    2    0    0  0.31146360769E+02  0.61514309637E+01 -0.59510483479E+02  0.67449488774E+02  0.00000000000E+00 0. -1.
         11    1    1    2    0    0  0.70314493350E+01 -0.37727534914E+02  0.17266648042E+02  0.42082600977E+02  0.00000000000E+00 0.  1.
</event>
<event>
 6    1  0.6981059E-006  0.1808137E+03  0.7561462E-02  0.1167018E+00
         -1   -1    0    0    0  501 -0.00000000000E+00  0.00000000000E+00  0.15986678586E+03  0.15986678586E+03  0.00000000000E+00 0.  1.
          1   -1    0    0  501    0  0.00000000000E+00 -0.00000000000E+00 -0.23129766760E+03  0.23129766760E+03  0.00000000000E+00 0. -1.
          5    1    1    2  502    0 -0.87656462013E+02 -0.19577995677E+02 -0.21822326631E+02  0.92523724455E+02  0.41800000000E+01 0.  1.
         -5    1    1    2    0  502 -0.46721707308E+02  0.83239385992E+02  0.36712811699E+02  0.10235729704E+03  0.41800000000E+01 0.  1.
        -11    1    1    2    0    0 -0.14921814070E+02 -0.69232079213E+01 -0.10181263561E+02  0.19345528443E+02  0.00000000000E+00 0.  1.
         11    1    1    2    0    0  0.14929998339E+03 -0.56738182394E+02 -0.76140103245E+02  0.17693790353E+03  0.00000000000E+00 0. -1.
</event>
<event>
 6    1  0.6981059E-006  0.1464747E+03  0.7561462E-02  0.1204873E+00
         -2   -1    0    0    0  501 -0.00000000000E+00  0.00000000000E+00  0.32335500602E+03  0.32335500602E+03  0.00000000000E+00 0.  1.
          2   -1    0    0  501    0  0.00000000000E+00 -0.00000000000E+00 -0.15688870067E+03  0.15688870067E+03  0.00000000000E+00 0. -1.
          5    1    1    2  502    0  0.64252873523E+02 -0.78823004241E+02  0.80362944759E+02  0.12968104350E+03  0.41800000000E+01 0.  1.
         -5    1    1    2    0  502  0.50903313678E+02  0.21987105914E+02  0.16555550316E+03  0.17464443076E+03  0.41800000000E+01 0.  1.
        -11    1    1    2    0    0 -0.99467656033E+02  0.28995416227E+02 -0.94830293273E+02  0.14045402551E+03  0.00000000000E+00 0. -1.
         11    1    1    2    0    0 -0.15688531168E+02  0.27840482100E+02  0.15378150703E+02  0.35464206925E+02  0.00000000000E+00 0.  1.
</event>
<event>
 6    1  0.6981059E-006  0.1034761E+03  0.7561462E-02  0.1273151E+00
         -2   -1    0    0    0  501 -0.00000000000E+00  0.00000000000E+00  0.40226169103E+03  0.40226169103E+03  0.00000000000E+00 0.  1.
          2   -1    0    0  501    0  0.00000000000E+00 -0.00000000000E+00 -0.44636639856E+02  0.44636639856E+02  0.00000000000E+00 0. -1.
          5    1    1    2  502    0 -0.66486514685E+02  0.44501107014E+02  0.17626759826E+03  0.19361958516E+03  0.41800000000E+01 0. -1.
         -5    1    1    2    0  502  0.54368704048E+02  0.16002829014E+02  0.79724179612E+02  0.97905381523E+02  0.41800000000E+01 0. -1.
        -11    1    1    2    0    0 -0.10413926420E+02 -0.32139962600E+02  0.11257288095E+03  0.11753331691E+03  0.00000000000E+00 0.  1.
         11    1    1    2    0    0  0.22531737057E+02 -0.28363973428E+02 -0.10939607649E+02  0.37840047290E+02  0.00000000000E+00 0. -1.
</event>
<event>
 6    1  0.6981059E-006  0.8516100E+02  0.7561462E-02  0.1315012E+00
          3   -1    0    0  501    0  0.00000000000E+00  0.00000000000E+00  0.81481912936E+02  0.81481912936E+02  0.00000000000E+00 0. -1.
         -3   -1    0    0    0  501 -0.00000000000E+00 -0.00000000000E+00 -0.19287282024E+03  0.19287282024E+03  0.00000000000E+00 0.  1.
          5    1    1    2  502    0 -0.21046562672E+02 -0.11082633826E+02  0.27608013158E+02  0.36680476597E+02  0.41800000000E+01 0. -1.
         -5    1    1    2    0  502  0.34883484630E+01 -0.38823897885E+02 -0.12351516571E+03  0.12958754640E+03  0.41800000000E+01 0. -1.
        -11    1    1    2    0    0  0.49109898089E+02  0.56368559072E+02 -0.11269266978E+02  0.75605508532E+02  0.00000000000E+00 0.  1.
         11    1    1    2    0    0 -0.31551683879E+02 -0.64620273612E+01 -0.42144877733E+01  0.32481201647E+02  0.00000000000E+00 0. -1.
</event>
<event>
 6    1  0.6981059E-006  0.1133302E+03  0.7561462E-02  0.1254524E+00
          1   -1    0    0  501    0  0.00000000000E+00  0.00000000000E+00  0.22510162972E+03  0.22510162972E+03  0.00000000000E+00 0. -1.
         -1   -1    0    0    0  501 -0.00000000000E+00 -0.00000000000E+00 -0.61420974976E+02  0.61420974976E+02  0.00000000000E+00 0.  1.
          5    1    1    2  502    0 -0.38700758816E+02  0.17842371343E+02  0.10612599915E+02  0.44115741239E+02  0.41800000000E+01 0. -1.
         -5    1    1    2    0  502  0.58875112679E+02 -0.57684369741E+02  0.92962572749E+02  0.12431121324E+03  0.41800000000E+01 0. -1.
        -11    1    1    2    0    0  0.38558534896E+00 -0.29235325843E+02  0.21846386640E+02  0.36498185742E+02  0.00000000000E+00 0. -1.
         11    1    1    2    0    0 -0.20559939212E+02  0.69077324241E+02  0.38259095440E+02  0.81597464474E+02  0.00000000000E+00 0.  1.
</event>
<event>
 6    1  0.6981059E-006  0.1191448E+03  0.7561462E-02  0.1244515E+00
         -2   -1    0    0    0  501 -0.00000000000E+00  0.00000000000E+00  0.18349868113E+03  0.18349868113E+03  0.00000000000E+00 0.  1.
          2   -1    0    0  501    0  0.00000000000E+00 -0.00000000000E+00 -0.10191596533E+03  0.10191596533E+03  0.00000000000E+00 0. -1.
          5    1    1    2  502    0  0.21074636827E+02 -0.35037984404E+02 -0.67262658786E+01  0.41647517588E+02  0.41800000000E+01 0.  1.
         -5    1    1    2    0  502  0.37063243339E+02  0.73590452404E+02  0.98374537719E+02  0.12839104627E+03  0.41800000000E+01 0.  1.
        -11    1    1    2    0    0 -0.31270592370E+02 -0.67986745871E+02 -0.10184573681E+02  0.75523328200E+02  0.00000000000E+00 0.  1.
         11    1    1    2    0    0 -0.26867287796E+02  0.29434277871E+02  0.11901764109E+00  0.39852754390E+02  0.00000000000E+00 0. -1.
</event>
<event>
 6    1  0.6981059E-006  0.1217302E+03  0.7561462E-02  0.1240270E+00
         -1   -1    0    0    0  501 -0.00000000000E+00  0.00000000000E+00  0.11028978515E+03  0.11028978515E+03  0.00000000000E+00 0.  1.
          1   -1    0    0  501    0  0.00000000000E+00 -0.00000000000E+00 -0.14647160876E+03  0.14647160876E+03  0.00000000000E+00 0. -1.
          5    1    1    2  502    0  0.48804878551E+02 -0.77147598953E+02 -0.18262457972E+02  0.93191512306E+02  0.41800000000E+01 0.  1.
         -5    1    1    2    0  502  0.99079447036E+01  0.44852317113E+02  0.15745372565E+02  0.48736914919E+02  0.41800000000E+01 0.  1.
        -11    1    1    2    0    0  0.11795575347E+02  0.33414250873E+02 -0.25895950719E+02  0.43889042172E+02  0.00000000000E+00 0. -1.
         11    1    1    2    0    0 -0.70508398602E+02 -0.11189690330E+01 -0.77687874852E+01  0.70943924505E+02  0.00000000000E+00 0.  1.
</event>
<event>
 6    1  0.6981059E-006  0.1913906E+03  0.7561462E-02  0.1157213E+00
         -1   -1    0    0    0  501 -0.00000000000E+00  0.00000000000E+00  0.24101701511E+03  0.24101701511E+03  0.00000000000E+00 0.  1.
          1   -1    0    0  501    0  0.00000000000E+00 -0.00000000000E+00 -0.23019974270E+03  0.23019974270E+03  0.00000000000E+00 0. -1.
          5    1    1    2  502    0 -0.33554253310E+02  0.69830653418E+02  0.55102540855E+02  0.95162862928E+02  0.41800000000E+01 0.  1.
         -5    1    1    2    0  502 -0.11975982961E+03 -0.31632383278E+02  0.87223109584E+02  0.15155318441E+03  0.41800000000E+01 0.  1.
        -11    1    1    2    0    0  0.16494572824E+03 -0.31804732437E+02 -0.12660559086E+03  0.21035115856E+03  0.00000000000E+00 0. -1.
         11    1    1    2    0    0 -0.11631645322E+02 -0.63935377020E+01 -0.49027871727E+01  0.14149551912E+02  0.00000000000E+00 0.  1.
</event>
<event>
 6    1  0.6981059E-006  0.1045825E+03  0.7561462E-02  0.1270944E+00
          1   -1    0    0  501    0  0.00000000000E+00  0.00000000000E+00  0.25009795993E+02  0.25009795993E+02  0.00000000000E+00 0. -1.
         -1   -1    0    0    0  501 -0.00000000000E+00 -0.00000000000E+00 -0.59525798320E+03  0.59525798320E+03  0.00000000000E+00 0.  1.
          5    1    1    2  502    0 -0.36149815137E+02  0.24314444659E+02 -0.17671192461E+03  0.18205103145E+03  0.41800000000E+01 0.  1.
         -5    1    1    2    0  502  0.44675737454E+02 -0.79289541747E+02 -0.24991242283E+03  0.26600083540E+03  0.41800000000E+01 0.  1.
        -11    1    1    2    0    0  0.12324835450E+02  0.51746630802E+02 -0.40236988541E+02  0.66698055557E+02  0.00000000000E+00 0. -1.
         11    1    1    2    0    0 -0.20850757767E+02  0.32284662857E+01 -0.10338685123E+03  0.10551785679E+03  0.00000000000E+00 0.  1.
</event>
<event>
 6    1  0.6981059E-006  0.7099919E+02  0.7561462E-02  0.1356728E+00
          2   -1    0    0  501    0  0.00000000000E+00  0.00000000000E+00  0.43080475653E+03  0.43080475653E+03  0.00000000000E+00 0. -1.
         -2   -1    0    0    0  501 -0.00000000000E+00 -0.00000000000E+00 -0.30208596285E+02  0.30208596285E+02  0.00000000000E+00 0.  1.
          5    1    1    2  502    0 -0.14682135410E+02 -0.12967980928E+02  0.20335977558E+03  0.20434383855E+03  0.41800000000E+01 0.  1.
         -5    1    1    2    0  502  0.44515496795E+02 -0.39716721150E+01  0.11017828168E+02  0.46219785502E+02  0.41800000000E+01 0.  1.
        -11    1    1    2    0    0  0.16226247057E+02  0.25507502190E+02  0.16618464651E+02  0.34497784405E+02  0.00000000000E+00 0.  1.
         11    1    1    2    0    0 -0.46059608442E+02 -0.85678491470E+01  0.16960009185E+03  0.17595194436E+03  0.00000000000E+00 0. -1.
</event>
<event>
 6    1  0.6981059E-006  0.1193340E+03  0.7561462E-02  0.1244200E+00
         -1   -1    0    0    0  501 -0.00000000000E+00  0.00000000000E+00  0.30921995743E+02  0.30921995743E+02  0.00000000000E+00 0.  1.
          1   -1    0    0  501    0  0.00000000000E+00 -0.00000000000E+00 -0.60644079689E+03  0.60644079689E+03  0.00000000000E+00 0. -1.
          5    1    1    2  502    0  0.10750318235E+02  0.23813862436E+02 -0.89619404961E+01  0.27936681330E+02  0.41800000000E+01 0. -1.
         -5    1    1    2    0  502  0.52248063976E+02 -0.83069246549E+02 -0.23251368312E+03  0.25240928103E+03  0.41800000000E+01 0.  1.
        -11    1    1    2    0    0 -0.20545239153E+02  0.67657135434E+02 -0.27416970542E+03  0.28314064032E+03  0.00000000000E+00 0.  1.
         11    1    1    2    0    0 -0.42453143057E+02 -0.84017513215E+01 -0.59873472110E+02  0.73876189961E+02  0.00000000000E+00 0. -1.
</event>
<event>
 6    1  0.6981059E-006  0.1675313E+03  0.7561462E-02  0.1180447E+00
         -1   -1    0    0    0  501 -0.00000000000E+00  0.00000000000E+00  0.27201971462E+03  0.27201971462E+03  0.00000000000E+00 0.  1.
          1   -1    0    0  501    0  0.00000000000E+00 -0.00000000000E+00 -0.12968140353E+03  0.12968140353E+03  0.00000000000E+00 0. -1.
          5    1    1    2  502    0 -0.89750038366E+00 -0.30787465964E+02  0.18337766488E+02  0.36089051625E+02  0.41800000000E+01 0. -1.
         -5    1    1    2    0  502  0.13574198694E+03  0.65670955978E+02 -0.11136352683E+02  0.15126153586E+03  0.41800000000E+01 0. -1.
        -11    1    1    2    0    0 -0.11707675015E+03 -0.52319085054E+02  0.13904712858E+03  0.18915167473E+03  0.00000000000E+00 0.  1.
         11    1    1    2    0    0 -0.17767736415E+02  0.17435595040E+02 -0.39102312971E+01  0.25198855936E+02  0.00000000000E+00 0. -1.
</event>
<event>
 6    1  0.6981059E-006  0.8164458E+02  0.7561462E-02  0.1324448E+00
         -3   -1    0    0    0  501 -0.00000000000E+00  0.00000000000E+00  0.16827794792E+02  0.16827794792E+02  0.00000000000E+00 0.  1.
          3   -1    0    0  501    0  0.00000000000E+00 -0.00000000000E+00 -0.11956521597E+04  0.11956521597E+04  0.00000000000E+00 0. -1.
          5    1    1    2  502    0 -0.15922214405E+02  0.20064716114E+02 -0.59962260068E+03  0.60018400961E+03  0.41800000000E+01 0. -1.
         -5    1    1    2    0  502  0.17948474312E+02  0.28519660118E+02 -0.12432908847E+02  0.36160314790E+02  0.41800000000E+01 0.  1.
        -11    1    1    2    0    0  0.40019179306E+02 -0.46405525649E+02 -0.32428380162E+03  0.33002271364E+03  0.00000000000E+00 0.  1.
         11    1    1    2    0    0 -0.42045439213E+02 -0.21788505829E+01 -0.24248505373E+03  0.24611291643E+03  0.00000000000E+00 0. -1.
</event>
<event>
 6    1  0.6981059E-006  0.1569355E+03  0.7561462E-02  0.1192201E+00
          3   -1    0    0  501    0  0.00000000000E+00  0.00000000000E+00  0.14627471236E+03  0.14627471236E+03  0.00000000000E+00 0. -1.
         -3   -1    0    0    0  501 -0.00000000000E+00 -0.00000000000E+00 -0.21499117302E+03  0.21499117302E+03  0.00000000000E+00 0.  1.
          5    1    1    2  502    0  0.22374918069E+02  0.38994234162E+02 -0.20808431172E+02  0.49715696358E+02  0.41800000000E+01 0.  1.
         -5    1    1    2    0  502  0.92179694962E+02 -0.97376181190E+02 -0.71467495787E+02  0.15200096112E+03  0.41800000000E+01 0.  1.
        -11    1    1    2    0    0 -0.55900667557E+02  0.50598588618E+02 -0.28630831216E+02  0.80652503368E+02  0.00000000000E+00 0.  1.
         11    1    1    2    0    0 -0.58653945474E+02  0.77833584098E+01  0.52190297516E+02  0.78896724537E+02  0.00000000000E+00 0. -1.
</event>
<event>
 6    1  0.6981059E-006  0.9145619E+02  0.7561462E-02  0.1299363E+00
         -1   -1    0    0    0  501 -0.00000000000E+00  0.00000000000E+00  0.56195296255E+02  0.56195296255E+02  0.00000000000E+00 0.  1.
          1   -1    0    0  501    0  0.00000000000E+00 -0.00000000000E+00 -0.27754146908E+03  0.27754146908E+03  0.00000000000E+00 0. -1.
          5    1    1    2  502    0  0.33703135333E+02  0.39741072974E+02 -0.79400398346E+02  0.95063925176E+02  0.41800000000E+01 0.  1.
         -5    1    1    2    0  502 -0.46136806115E+02 -0.31009918402E+01  0.17689834035E+02  0.49685245869E+02  0.41800000000E+01 0.  1.
        -11    1    1    2    0    0  0.39204985369E+02 -0.41398686805E+02 -0.49375680849E+02  0.75424399277E+02  0.00000000000E+00 0.  1.
         11    1    1    2    0    0 -0.26771314587E+02  0.47586056714E+01 -0.11025992767E+03  0.11356319501E+03  0.00000000000E+00 0. -1.
</event>
<event>
 6    1  0.6981059E-006  0.1782012E+03  0.7561462E-02  0.1169555E+00
          2   -1    0    0  501    0  0.00000000000E+00  0.00000000000E+00  0.21793893875E+02  0.21793893875E+02  0.00000000000E+00 0. -1.
         -2   -1    0    0    0  501 -0.00000000000E+00 -0.00000000000E+00 -0.15326663656E+04  0.15326663656E+04  0.00000000000E+00 0.  1.
          5    1    1    2  502    0 -0.34069884821E+01 -0.35249298054E+02 -0.95378658552E+02  0.10182672287E+03  0.41800000000E+01 0.  1.
         -5    1    1    2    0  502 -0.14120708918E+03  0.50553052951E+02 -0.78426853792E+03  0.79849211966E+03  0.41800000000E+01 0.  1.
        -11    1    1    2    0    0  0.57771275524E+02 -0.50756148032E+02 -0.31845409389E+03  0.32760756516E+03  0.00000000000E+00 0.  1.
         11    1    1    2    0    0  0.86842802134E+02  0.35452393136E+02 -0.31277118137E+03  0.32653385178E+03  0.00000000000E+00 0. -1.
</event>
<event>
 6    1  0.6981059E-006  0.8454936E+02  0.7561462E-02  0.1316615E+00
         -1   -1    0    0    0  501 -0.00000000000E+00  0.00000000000E+00  0.26915419593E+03  0.26915419593E+03  0.00000000000E+00 0.  1.
          1   -1    0    0  501    0  0.00000000000E+00 -0.00000000000E+00 -0.11279055034E+03  0.11279055034E+03  0.00000000000E+00 0. -1.
          5    1    1    2  502    0 -0.41376635076E+02 -0.11939536219E+02  0.37918735739E+02  0.57531568512E+02  0.41800000000E+01 0. -1.
         -5    1    1    2    0  502  0.40319220239E+02  0.33326323965E+02  0.19634849635E+03  0.20323997591E+03  0.41800000000E+01 0.  1.
        -11    1    1    2    0    0 -0.33255948060E+02 -0.64937923191E+00  0.33063204970E+00  0.33263930801E+02  0.00000000000E+00 0.  1.
         11    1    1    2    0    0  0.34313362898E+02 -0.20737408514E+02 -0.78234218543E+02  0.87909271048E+02  0.00000000000E+00 0. -1.
</event>
<event>
 6    1  0.6981059E-006  0.1118450E+03  0.7561462E-02  0.1257191E+00
          3   -1    0    0  501    0  0.00000000000E+00  0.00000000000E+00  0.11633652541E+03  0.11633652541E+03  0.00000000000E+00 0. -1.
         -3   -1    0    0    0  501 -0.00000000000E+00 -0.00000000000E+00 -0.15226207053E+03  0.15226207053E+03  0.00000000000E+00 0.  1.
          5    1    1    2  502    0 -0.38069248005E+02  0.59576102571E+02  0.10170345358E+02  0.71550597244E+02  0.41800000000E+01 0. -1.
         -5    1    1    2    0  502 -0.38592494488E+02 -0.59697632522E+02 -0.26861937205E+02  0.76106662192E+02  0.41800000000E+01 0. -1.
        -11    1    1    2    0    0  0.45657987288E+02 -0.13761918357E+02 -0.54199246918E+02  0.72191416156E+02  0.00000000000E+00 0.  1.
         11    1    1    2    0    0  0.31003755205E+02  0.13883448308E+02  0.34965293645E+02  0.48749920343E+02  0.00000000000E+00 0. -1.
</event>
<event>
 6    1  0.6981059E-006  0.1282407E+03  0.7561462E-02  0.1230090E+00
         -1   -1    0    0    0  501 -0.00000000000E+00  0.00000000000E+00  0.24377251335E+03  0.24377251335E+03  0.00000000000E+00 0.  1.
          1   -1    0    0  501    0  0.00000000000E+00 -0.00000000000E+00 -0.71769240723E+02  0.71769240723E+02  0.00000000000E+00 0. -1.
          5    1    1    2  502    0  0.10070213288E+02  0.37669159358E+02  0.31069136810E+02  0.50031374402E+02  0.41800000000E+01 0. -1.
         -5    1    1    2    0  502  0.26970904870E+02 -0.10317219595E+03  0.79609328951E+02  0.13314296595E+03  0.41800000000E+01 0. -1.
        -11    1    1    2    0    0 -0.63003461219E+02  0.48518594669E+02  0.62770163320E+02  0.10130934585E+03  0.00000000000E+00 0.  1.
         11    1    1    2    0    0  0.25962343060E+02  0.16984441918E+02 -0.14453564536E+01  0.31058067869E+02  0.00000000000E+00 0. -1.
</event>
<event>
 6    1  0.6981059E-006  0.1158331E+03  0.7561462E-02  0.1250134E+00
         -3   -1    0    0    0  501 -0.00000000000E+00  0.00000000000E+00  0.46396130920E+03  0.46396130920E+03  0.00000000000E+00 0.  1.
          3   -1    0    0  501    0  0.00000000000E+00 -0.00000000000E+00 -0.50815992601E+02  0.50815992601E+02  0.00000000000E+00 0. -1.
          5    1    1    2  502    0  0.13317441916E+02  0.62048110363E+02  0.62305978179E+02  0.89032744401E+02  0.41800000000E+01 0. -1.
         -5    1    1    2    0  502 -0.35560310953E+02 -0.70532085659E+02  0.31732891065E+03  0.32703886735E+03  0.41800000000E+01 0.  1.
        -11    1    1    2    0    0  0.37085155761E+02 -0.30013162716E+02  0.37942559557E+01  0.47859117128E+02  0.00000000000E+00 0.  1.
         11    1    1    2    0    0 -0.14842286725E+02  0.38497138012E+02  0.29716171808E+02  0.50846572916E+02  0.00000000000E+00 0. -1.
</event>
<event>
 6    1  0.6981059E-006  0.2952806E+03  0.7561462E-02  0.1087624E+00
          1   -1    0    0  501    0  0.00000000000E+00  0.00000000000E+00  0.37043358708E+03  0.37043358708E+03  0.00000000000E+00 0. -1.
         -1   -1    0    0    0  501 -0.00000000000E+00 -0.00000000000E+00 -0.26484197167E+03  0.26484197167E+03  0.00000000000E+00 0.  1.
          5    1    1    2  502    0 -0.42215557337E+02 -0.15338768716E+03 -0.85516908287E+01  0.15937546759E+03  0.41800000000E+01 0. -1.
         -5    1    1    2    0  502 -0.20676874904E+02 -0.12881890593E+03  0.11261579077E+03  0.17239962996E+03  0.41800000000E+01 0. -1.
        -11    1    1    2    0    0 -0.19302973767E+02  0.86245487914E+02 -0.17688649626E+02  0.90131999353E+02  0.00000000000E+00 0. -1.
         11    1    1    2    0    0  0.82195406008E+02  0.19596110518E+03  0.19216165093E+02  0.21336846185E+03  0.00000000000E+00 0.  1.
</event>
<event>
 6    1  0.6981059E-006  0.1245028E+03  0.7561462E-02  0.1235848E+00
         -2   -1    0    0    0  501 -0.00000000000E+00  0.00000000000E+00  0.22015177650E+02  0.22015177650E+02  0.00000000000E+00 0.  1.
          2   -1    0    0  501    0  0.00000000000E+00 -0.00000000000E+00 -0.10966194054E+04  0.10966194054E+04  0.00000000000E+00 0. -1.
          5    1    1    2  502    0  0.89010244150E+01  0.62280395241E+02 -0.36253563176E+03  0.36797776097E+03  0.41800000000E+01 0. -1.
         -5    1    1    2    0  502 -0.40571823565E+02  0.32182951506E+02 -0.41301039672E+02  0.66370652498E+02  0.41800000000E+01 0. -1.
        -11    1    1    2    0    0 -0.31437479055E+02 -0.38000551492E+02 -0.20215817816E+03  0.20808720768E+03  0.00000000000E+00 0. -1.
         11    1    1    2    0    0  0.63108278205E+02 -0.56462795256E+02 -0.46860937819E+03  0.47619896194E+03  0.00000000000E+00 0.  1.
</event>
<event>
 6    1  0.6981059E-006  0.1032978E+03  0.7561462E-02  0.1273510E+00
         -2   -1    0    0    0  501 -0.00000000000E+00  0.00000000000E+00  0.48203579042E+03  0.48203579042E+03  0.00000000000E+00 0.  1.
          2   -1    0    0  501    0  0.00000000000E+00 -0.00000000000E+00 -0.27602539488E+02  0.27602539488E+02  0.00000000000E+00 0. -1.
          5    1    1    2  502    0 -0.29928762655E+02 -0.58215739434E+02  0.74560403625E+02  0.99305233199E+02  0.41800000000E+01 0. -1.
         -5    1    1    2    0  502  0.34024037036E+02  0.26902521093E+02  0.19135946814E+03  0.19625824616E+03  0.41800000000E+01 0. -1.
        -11    1    1    2    0    0 -0.42640742008E+02  0.39384775319E+02  0.14022053492E+03  0.15176031042E+03  0.00000000000E+00 0.  1.
         11    1    1    2    0    0  0.38545467626E+02 -0.80715569787E+01  0.48292844249E+02  0.62314540135E+02  0.00000000000E+00 0. -1.
</event>
<event>
 6    1  0.6981059E-006  0.1221970E+03  0.7561462E-02  0.1239516E+00
         -2   -1    0    0    0  501 -0.00000000000E+00  0.00000000000E+00  0.74910530153E+02  0.74910530153E+02  0.00000000000E+00 0.  1.
          2   -1    0    0  501    0  0.00000000000E+00 -0.00000000000E+00 -0.48500598897E+03  0.48500598897E+03  0.00000000000E+00 0. -1.
          5    1    1    2  502    0  0.32049594256E+01  0.72417622457E+02 -0.67693689312E+00  0.72612081989E+02  0.41800000000E+01 0.  1.
         -5    1    1    2    0  502  0.51636240698E+02 -0.42679507444E+02 -0.43911008045E+01  0.67265116333E+02  0.41800000000E+01 0.  1.
        -11    1    1    2    0    0  0.19958273755E+02 -0.21621655046E+02 -0.59047158477E+02  0.65972688155E+02  0.00000000000E+00 0.  1.
         11    1    1    2    0    0 -0.74799473879E+02 -0.81164599677E+01 -0.34598026264E+03  0.35406663265E+03  0.00000000000E+00 0. -1.
</event>
<event>
 6    1  0.6981059E-006  0.1421977E+03  0.7561462E-02  0.1210402E+00
          2   -1    0    0  501    0  0.00000000000E+00  0.00000000000E+00  0.34515351924E+03  0.34515351924E+03  0.00000000000E+00 0. -1.
         -2   -1    0    0    0  501 -0.00000000000E+00 -0.00000000000E+00 -0.10952472338E+03  0.10952472338E+03  0.00000000000E+00 0.  1.
          5    1    1    2  502    0  0.21746674831E+02  0.10569073731E+03 -0.37425675915E+02  0.11428737216E+03  0.41800000000E+01 0. -1.
         -5    1    1    2    0  502 -0.57669800233E+01  0.33890087511E+02  0.67975388606E+02  0.76288412922E+02  0.41800000000E+01 0. -1.
        -11    1    1    2    0    0  0.37363092245E+01 -0.45583793426E+02  0.14203386668E+03  0.14921615701E+03  0.00000000000E+00 0. -1.
         11    1    1    2    0    0 -0.19716004032E+02 -0.93997031391E+02  0.63045216490E+02  0.11488630052E+03  0.00000000000E+00 0.  1.
</event>
<event>
 6    1  0.6981059E-006  0.1951186E+03  0.7561462E-02  0.1153924E+00
         -2   -1    0    0    0  501 -0.00000000000E+00  0.00000000000E+00  0.10507106331E+03  0.10507106331E+03  0.00000000000E+00 0.  1.
          2   -1    0    0  501    0  0.00000000000E+00 -0.00000000000E+00 -0.56914689894E+03  0.56914689894E+03  0.00000000000E+00 0. -1.
          5    1    1    2  502    0 -0.10984328950E+03  0.42012146331E+02 -0.47872284816E+02  0.12704249974E+03  0.41800000000E+01 0. -1.
         -5    1    1    2    0  502  0.21657577682E+01  0.91402968154E+02 -0.49271212833E+01  0.91656652886E+02  0.41800000000E+01 0. -1.
        -11    1    1    2    0    0  0.69529699933E+02 -0.12332647756E+03 -0.23066878182E+03  0.27065085654E+03  0.00000000000E+00 0.  1.
         11    1    1    2    0    0  0.38147831796E+02 -0.10088636924E+02 -0.18060764771E+03  0.18486795309E+03  0.00000000000E+00 0. -1.
</event>
<event>
 6    1  0.6981059E-006  0.5704136E+02  0.7561462E-02  0.1410685E+00
          1   -1    0    0  501    0  0.00000000000E+00  0.00000000000E+00  0.85268162605E+02  0.85268162605E+02  0.00000000000E+00 0. -1.
         -1   -1    0    0    0  501 -0.00000000000E+00 -0.00000000000E+00 -0.16578459404E+03  0.16578459404E+03  0.00000000000E+00 0.  1.
          5    1    1    2  502    0 -0.25434106071E+02  0.61591254120E+01  0.30311527416E+02  0.40262757876E+02  0.41800000000E+01 0.  1.
         -5    1    1    2    0  502  0.28461523330E+00 -0.37035982209E+02 -0.10359389882E+03  0.11009501921E+03  0.41800000000E+01 0.  1.
        -11    1    1    2    0    0  0.22162083752E+02  0.31062401132E+01 -0.47025737414E+02  0.52079042457E+02  0.00000000000E+00 0.  1.
         11    1    1    2    0    0  0.29874070853E+01  0.27770616684E+02  0.39791677374E+02  0.48615937102E+02  0.00000000000E+00 0. -1.
</event>
<event>
 6    1  0.6981059E-006  0.1038020E+03  0.7561462E-02  0.1272498E+00
          2   -1    0    0  501    0  0.00000000000E+00  0.00000000000E+00  0.64293011995E+03  0.64293011995E+03  0.00000000000E+00 0. -1.
         -2   -1    0    0    0  501 -0.00000000000E+00 -0.00000000000E+00 -0.22958302324E+02  0.22958302324E+02  0.00000000000E+00 0.  1.
          5    1    1    2  502    0 -0.43396061596E+02  0.31294667926E+02  0.95938606118E+02  0.10992844467E+03  0.41800000000E+01 0.  1.
         -5    1    1    2    0  502  0.26690992714E+02 -0.74618304299E+02  0.16952032188E+03  0.18717615329E+03  0.41800000000E+01 0.  1.
        -11    1    1    2    0    0  0.27351425060E+02  0.53351464699E+02  0.34737271557E+03  0.35250855700E+03  0.00000000000E+00 0. -1.
         11    1    1    2    0    0 -0.10646356178E+02 -0.10027828325E+02  0.71401740611E+01  0.16275267322E+02  0.00000000000E+00 0.  1.
</event>
<event>
 6    1  0.6981059E-006  0.1169145E+03  0.7561462E-02  0.1248276E+00
          1   -1    0    0  501    0  0.00000000000E+00  0.00000000000E+00  0.93894016921E+03  0.93894016921E+03  0.00000000000E+00 0. -1.
         -1   -1    0    0    0  501 -0.00000000000E+00 -0.00000000000E+00 -0.21522874796E+02  0.21522874796E+02  0.00000000000E+00 0.  1.
          5    1    1    2  502    0  0.40852841175E+02 -0.84896404875E+02  0.38644474238E+03  0.39778557730E+03  0.41800000000E+01 0. -1.
         -5    1    1    2    0  502 -0.14671284606E+02  0.39284827790E+01 -0.15001187209E+01  0.15824105824E+02  0.41800000000E+01 0. -1.
        -11    1    1    2    0    0 -0.52888957810E+02  0.18840663358E+02  0.21075429596E+03  0.21810452934E+03  0.00000000000E+00 0.  1.
         11    1    1    2    0    0  0.26707401242E+02  0.62127258738E+02  0.32171837479E+03  0.32874883154E+03  0.00000000000E+00 0. -1.
</event>
<event>
 6    1  0.6981059E-006  0.2533495E+03  0.7561462E-02  0.1111206E+00
         -2   -1    0    0    0  501 -0.00000000000E+00  0.00000000000E+00  0.23205143859E+03  0.23205143859E+03  0.00000000000E+00 0. -1.
          2   -1    0    0  501    0  0.00000000000E+00 -0.00000000000E+00 -0.30271935623E+03  0.30271935623E+03  0.00000000000E+00 0.  1.
          5    1    1    2  502    0 -0.53056291191E+01  0.13665605467E+02  0.80186907311E+01  0.17224118967E+02  0.41800000000E+01 0.  1.
         -5    1    1    2    0  502  0.15485348939E+03 -0.19724527058E+03  0.39108237879E+01  0.25083474018E+03  0.41800000000E+01 0.  1.
        -11    1    1    2    0    0 -0.11408309535E+03  0.10768492550E+03 -0.12313969849E+02  0.15736146186E+03  0.00000000000E+00 0. -1.
         11    1    1    2    0    0 -0.35464764917E+02  0.75894739609E+02 -0.70283462307E+02  0.10935047382E+03  0.00000000000E+00 0.  1.
</event>
<event>
 6    1  0.6981059E-006  0.9983229E+02  0.7561462E-02  0.1280649E+00
          1   -1    0    0  501    0  0.00000000000E+00  0.00000000000E+00  0.38030647556E+02  0.38030647556E+02  0.00000000000E+00 0. -1.
         -1   -1    0    0    0  501 -0.00000000000E+00 -0.00000000000E+00 -0.50354275955E+03  0.50354275955E+03  0.00000000000E+00 0.  1.
          5    1    1    2  502    0  0.43883018371E+02 -0.35141185781E+02 -0.52148447947E+02  0.76795541946E+02  0.41800000000E+01 0. -1.
         -5    1    1    2    0  502 -0.15906153325E+02  0.73138189461E+02 -0.32490062438E+03  0.33343678350E+03  0.41800000000E+01 0.  1.
        -11    1    1    2    0    0 -0.12109710963E+02 -0.48042882520E+02 -0.98489999648E+01  0.50515012232E+02  0.00000000000E+00 0. -1.
         11    1    1    2    0    0 -0.15867154083E+02  0.10045878840E+02 -0.78614039707E+02  0.80826069429E+02  0.00000000000E+00 0.  1.
</event>
<event>
 6    1  0.6981059E-006  0.1033570E+03  0.7561462E-02  0.1273391E+00
         -1   -1    0    0    0  501 -0.00000000000E+00  0.00000000000E+00  0.11334397910E+03  0.11334397910E+03  0.00000000000E+00 0.  1.
          1   -1    0    0  501    0  0.00000000000E+00 -0.00000000000E+00 -0.11106941135E+03  0.11106941135E+03  0.00000000000E+00 0. -1.
          5    1    1    2  502    0  0.50809151181E+01 -0.56055519622E+02  0.37533947542E+02  0.67781314510E+02  0.41800000000E+01 0. -1.
         -5    1    1    2    0  502 -0.25745898297E+02  0.47268406815E+02 -0.25815685021E+02  0.59842088492E+02  0.41800000000E+01 0. -1.
        -11    1    1    2    0    0 -0.24392675736E+02 -0.28705680469E+02 -0.23049856215E+01  0.37740319017E+02  0.00000000000E+00 0.  1.
         11    1    1    2    0    0  0.45057658914E+02  0.37492793277E+02 -0.71387091507E+01  0.59049668440E+02  0.00000000000E+00 0. -1.
</event>
<event>
 6    1  0.6981059E-006  0.2896969E+03  0.7561462E-02  0.1090508E+00
          1   -1    0    0  501    0  0.00000000000E+00  0.00000000000E+00  0.45293494142E+03  0.45293494142E+03  0.00000000000E+00 0. -1.
         -1   -1    0    0    0  501 -0.00000000000E+00 -0.00000000000E+00 -0.39736797819E+03  0.39736797819E+03  0.00000000000E+00 0.  1.
          5    1    1    2  502    0  0.25835693075E+02 -0.98634169610E+01  0.37991724140E+01  0.28225452022E+02  0.41800000000E+01 0. -1.
         -5    1    1    2    0  502  0.21461449262E+03  0.15486773343E+03 -0.27522053653E+03  0.38184710478E+03  0.41800000000E+01 0. -1.
        -11    1    1    2    0    0 -0.85680619555E+02 -0.85146432341E+02  0.18953309629E+03  0.22475292678E+03  0.00000000000E+00 0. -1.
         11    1    1    2    0    0 -0.15476956614E+03 -0.59857884128E+02  0.13745523106E+03  0.21547743603E+03  0.00000000000E+00 0.  1.
</event>
<event>
 6    1  0.6981059E-006  0.1654502E+03  0.7561462E-02  0.1182677E+00
         -1   -1    0    0    0  501 -0.00000000000E+00  0.00000000000E+00  0.22526153862E+03  0.22526153862E+03  0.00000000000E+00 0.  1.
          1   -1    0    0  501    0  0.00000000000E+00 -0.00000000000E+00 -0.15932569949E+03  0.15932569949E+03  0.00000000000E+00 0. -1.
          5    1    1    2  502    0 -0.80450981455E+02 -0.38578132385E+02  0.80865261766E+02  0.12048774077E+03  0.41800000000E+01 0.  1.
         -5    1    1    2    0  502 -0.43648476876E+02  0.75961130335E+02  0.39743620142E+02  0.96292837726E+02  0.41800000000E+01 0.  1.
        -11    1    1    2    0    0  0.11937481294E+03 -0.32558649957E+01 -0.24276545892E+02  0.12186179591E+03  0.00000000000E+00 0.  1.
         11    1    1    2    0    0  0.47246453911E+01 -0.34127132954E+02 -0.30396496889E+02  0.45944863705E+02  0.00000000000E+00 0. -1.
</event>
<event>
 6    1  0.6981059E-006  0.1029658E+03  0.7561462E-02  0.1274180E+00
         -2   -1    0    0    0  501 -0.00000000000E+00  0.00000000000E+00  0.91646994101E+02  0.91646994101E+02  0.00000000000E+00 0.  1.
          2   -1    0    0  501    0  0.00000000000E+00 -0.00000000000E+00 -0.17456298920E+03  0.17456298920E+03  0.00000000000E+00 0. -1.
          5    1    1    2  502    0 -0.42475209542E+02  0.81997125336E+01 -0.26694406937E+02  0.51004337786E+02  0.41800000000E+01 0.  1.
         -5    1    1    2    0  502  0.71055816663E+02  0.29382895997E+02  0.30287762803E+02  0.82747233394E+02  0.41800000000E+01 0.  1.
        -11    1    1    2    0    0 -0.32418611992E+02 -0.57053320774E+02 -0.29225573855E+02  0.71834406672E+02  0.00000000000E+00 0.  1.
         11    1    1    2    0    0  0.38380048717E+01  0.19470712243E+02 -0.57283777112E+02  0.60624005451E+02  0.00000000000E+00 0. -1.
</event>
<event>
 6    1  0.6981059E-006  0.1508616E+03  0.7561462E-02  0.1199418E+00
          2   -1    0    0  501    0  0.00000000000E+00  0.00000000000E+00  0.44761553886E+03  0.44761553886E+03  0.00000000000E+00 0. -1.
         -2   -1    0    0    0  501 -0.00000000000E+00 -0.00000000000E+00 -0.69359902990E+02  0.69359902990E+02  0.00000000000E+00 0.  1.
          5    1    1    2  502    0  0.83476031421E+02 -0.15545002745E+02  0.11109877717E+03  0.13989390845E+03  0.41800000000E+01 0. -1.
         -5    1    1    2    0  502  0.80050649934E+01 -0.68562656698E+02  0.12174371008E+01  0.69165551484E+02  0.41800000000E+01 0. -1.
        -11    1    1    2    0    0 -0.61155677155E+02  0.96945944967E+02  0.24010050569E+03  0.26605786199E+03  0.00000000000E+00 0. -1.
         11    1    1    2    0    0 -0.30325419259E+02 -0.12838285524E+02  0.25838915905E+02  0.41858119924E+02  0.00000000000E+00 0.  1.
</event>
<event>
 6    1  0.6981059E-006  0.9711722E+02  0.7561462E-02  0.1286478E+00
          1   -1    0    0  501    0  0.00000000000E+00  0.00000000000E+00  0.26683611738E+03  0.26683611738E+03  0.00000000000E+00 0. -1.
         -1   -1    0    0    0  501 -0.00000000000E+00 -0.00000000000E+00 -0.54971662688E+02  0.54971662688E+02  0.00000000000E+00 0.  1.
          5    1    1    2  502    0 -0.18114793699E+02 -0.39430396782E+02  0.74542849830E+02  0.86353985444E+02  0.41800000000E+01 0. -1.
         -5    1    1    2    0  502 -0.13120833479E+02  0.73338267636E+02  0.20537157285E+02  0.77394476550E+02  0.41800000000E+01 0. -1.
        -11    1    1    2    0    0  0.38553287469E+02 -0.47141665470E+02  0.12628388079E+03  0.14020096699E+03  0.00000000000E+00 0. -1.
         11    1    1    2    0    0 -0.73176602906E+01  0.13233794616E+02 -0.94994332123E+01  0.17858351084E+02  0.00000000000E+00 0.  1.
</event>
<event>
 6    1  0.6981059E-006  0.3005946E+03  0.7561462E-02  0.1084944E+00
          1   -1    0    0  501    0  0.00000000000E+00  0.00000000000E+00  0.29227837294E+03  0.29227837294E+03  0.00000000000E+00 0. -1.
         -1   -1    0    0    0  501 -0.00000000000E+00 -0.00000000000E+00 -0.44007742778E+03  0.44007742778E+03  0.00000000000E+00 0.  1.
          5    1    1    2  502    0 -0.85462322854E+02  0.22824886307E+03 -0.24588641599E+03  0.34623540270E+03  0.41800000000E+01 0.  1.
         -5    1    1    2    0  502 -0.40966471675E+02  0.41492442235E+02  0.21316248967E+01  0.58496929738E+02  0.41800000000E+01 0.  1.
        -11    1    1    2    0    0  0.11714696725E+03 -0.22945351070E+03  0.44216711177E+02  0.26139518560E+03  0.00000000000E+00 0. -1.
         11    1    1    2    0    0  0.92818272811E+01 -0.40287794602E+02  0.51739025075E+02  0.66228282684E+02  0.00000000000E+00 0.  1.
</event>
<event>
 6    1  0.6981059E-006  0.9173823E+02  0.7561462E-02  0.1298696E+00
          1   -1    0    0  501    0  0.00000000000E+00  0.00000000000E+00  0.22526177807E+03  0.22526177807E+03  0.00000000000E+00 0. -1.
         -1   -1    0    0    0  501 -0.00000000000E+00 -0.00000000000E+00 -0.63254197000E+02  0.63254197000E+02  0.00000000000E+00 0.  1.
          5    1    1    2  502    0 -0.26467930293E+01 -0.27169561382E+02 -0.24959384184E+02  0.37224102915E+02  0.41800000000E+01 0. -1.
         -5    1    1    2    0  502 -0.46489770374E+02  0.28035176752E+02  0.10750231380E+03  0.12050514411E+03  0.41800000000E+01 0. -1.
        -11    1    1    2    0    0  0.88553272768E+01  0.41803782297E+02  0.19778621506E+02  0.47086801805E+02  0.00000000000E+00 0. -1.
         11    1    1    2    0    0  0.40281236127E+02 -0.42669397667E+02  0.59686029948E+02  0.83699926237E+02  0.00000000000E+00 0.  1.
</event>
<event>
 6    1  0.6981059E-006  0.2848116E+03  0.7561462E-02  0.1093090E+00
         -2   -1    0    0    0  501 -0.00000000000E+00  0.00000000000E+00  0.93739069032E+02  0.93739069032E+02  0.00000000000E+00 0.  1.
          2   -1    0    0  501    0  0.00000000000E+00 -0.00000000000E+00 -0.99349266197E+03  0.99349266197E+03  0.00000000000E+00 0. -1.
          5    1    1    2  502    0  0.24865723804E+03  0.28838493679E+02 -0.29288822221E+03  0.38530904979E+03  0.41800000000E+01 0.  1.
         -5    1    1    2    0  502  0.33196359360E+02  0.95449010423E+01 -0.16129706182E+03  0.16500702398E+03  0.41800000000E+01 0.  1.
        -11    1    1    2    0    0 -0.12041273326E+03 -0.17896923885E+02 -0.27721547148E+03  0.30276714459E+03  0.00000000000E+00 0. -1.
         11    1    1    2    0    0 -0.16144086413E+03 -0.20486470836E+02 -0.16835283743E+03  0.23414851264E+03  0.00000000000E+00 0.  1.
</event>
<event>
 6    1  0.6981059E-006  0.6408260E+02  0.7561462E-02  0.1381456E+00
          1   -1    0    0  501    0  0.00000000000E+00  0.00000000000E+00  0.64034297611E+02  0.64034297611E+02  0.00000000000E+00 0. -1.
         -1   -1    0    0    0  501 -0.00000000000E+00 -0.00000000000E+00 -0.20027178126E+03  0.20027178126E+03  0.00000000000E+00 0.  1.
          5    1    1    2  502    0  0.56707400573E+02  0.60734361876E+01 -0.22834634720E+01  0.57230258712E+02  0.41800000000E+01 0.  1.
         -5    1    1    2    0  502 -0.38203035964E+02  0.43579062119E+01 -0.95269584664E+02  0.10282134732E+03  0.41800000000E+01 0.  1.
        -11    1    1    2    0    0 -0.20921549853E+02  0.67936737528E+00 -0.68879208797E+02  0.71989708936E+02  0.00000000000E+00 0.  1.
         11    1    1    2    0    0  0.24171852437E+01 -0.11110709775E+02  0.30194773280E+02  0.32264763902E+02  0.00000000000E+00 0. -1.
</event>
<event>
 6    1  0.6981059E-006  0.1711357E+03  0.7561462E-02  0.1176669E+00
         -2   -1    0    0    0  501 -0.00000000000E+00  0.00000000000E+00  0.19628786324E+03  0.19628786324E+03  0.00000000000E+00 0.  1.
          2   -1    0    0  501    0  0.00000000000E+00 -0.00000000000E+00 -0.18008611860E+03  0.18008611860E+03  0.00000000000E+00 0. -1.
          5    1    1    2  502    0  0.86558891866E+02  0.40478567764E+02  0.88484393047E+01  0.96055835260E+02  0.41800000000E+01 0.  1.
         -5    1    1    2    0  502 -0.19075112836E+02  0.93509086528E+02 -0.31493541070E+02  0.10058391880E+03  0.41800000000E+01 0.  1.
        -11    1    1    2    0    0 -0.42865455232E+02 -0.10269365660E+03  0.67975800766E+02  0.13039993806E+03  0.00000000000E+00 0. -1.
         11    1    1    2    0    0 -0.24618323799E+02 -0.31293997695E+02 -0.29128954362E+02  0.49334289704E+02  0.00000000000E+00 0.  1.
</event>
<event>
 6    1  0.6981059E-006  0.1636901E+03  0.7561462E-02  0.1184593E+00
          2   -1    0    0  501    0  0.00000000000E+00  0.00000000000E+00  0.12024706929E+04  0.12024706929E+04  0.00000000000E+00 0. -1.
         -2   -1    0    0    0  501 -0.00000000000E+00 -0.00000000000E+00 -0.33952171764E+02  0.33952171764E+02  0.00000000000E+00 0.  1.
          5    1    1    2  502    0  0.15888104699E+02 -0.99173137902E+02  0.30692810963E+03  0.32297071080E+03  0.41800000000E+01 0. -1.
         -5    1    1    2    0  502  0.12589301466E+02 -0.48745784270E+02  0.21538217952E+02  0.54918204888E+02  0.41800000000E+01 0.  1.
        -11    1    1    2    0    0  0.30715777950E+02  0.82909544929E+02  0.37936572143E+03  0.38953279997E+03  0.00000000000E+00 0.  1.
         11    1    1    2    0    0 -0.59193184115E+02  0.65009377243E+02  0.46068647215E+03  0.46900114904E+03  0.00000000000E+00 0. -1.
</event>
<event>
 6    1  0.6981059E-006  0.1644102E+03  0.7561462E-02  0.1183806E+00
         -1   -1    0    0    0  501 -0.00000000000E+00  0.00000000000E+00  0.16521579598E+03  0.16521579598E+03  0.00000000000E+00 0.  1.
          1   -1    0    0  501    0  0.00000000000E+00 -0.00000000000E+00 -0.41731853942E+03  0.41731853942E+03  0.00000000000E+00 0. -1.
          5    1    1    2  502    0  0.13986838519E+03  0.13804229374E+02  0.10592845800E+03  0.17604554110E+03  0.41800000000E+01 0.  1.
         -5    1    1    2    0  502  0.14135275354E+02  0.82136541235E+01 -0.32524255755E+02  0.36641093540E+02  0.41800000000E+01 0.  1.
        -11    1    1    2    0    0 -0.40911943990E+02 -0.39538193353E+02 -0.14894123429E+03  0.15943822367E+03  0.00000000000E+00 0. -1.
         11    1    1    2    0    0 -0.11309171656E+03  0.17520309856E+02 -0.17656571139E+03  0.21040947710E+03  0.00000000000E+00 0.  1.
</event>
<event>
 6    1  0.6981059E-006  0.1937338E+03  0.7561462E-02  0.1155136E+00
         -2   -1    0    0    0  501 -0.00000000000E+00  0.00000000000E+00  0.28664904847E+02  0.28664904847E+02  0.00000000000E+00 0.  1.
          2   -1    0    0  501    0  0.00000000000E+00 -0.00000000000E+00 -0.14811167616E+04  0.14811167616E+04  0.00000000000E+00 0. -1.
          5    1    1    2  502    0 -0.13321498918E+03 -0.58708010125E+02 -0.73326711331E+03  0.74759012544E+03  0.41800000000E+01 0. -1.
         -5    1    1    2    0  502  0.62588577300E+01 -0.56745836280E+02 -0.14278664784E+03  0.15383355432E+03  0.41800000000E+01 0. -1.
        -11    1    1    2    0    0  0.77459450846E+02  0.24855602608E+02 -0.16179511965E+03  0.18109508069E+03  0.00000000000E+00 0. -1.
         11    1    1    2    0    0  0.49496680602E+02  0.90598243798E+02 -0.41460297596E+03  0.42726290600E+03  0.00000000000E+00 0.  1.
</event>
<event>
 6    1  0.6981059E-006  0.3854741E+03  0.7561462E-02  0.1048929E+00
          1   -1    0    0  501    0  0.00000000000E+00  0.00000000000E+00  0.43795494539E+03  0.43795494539E+03  0.00000000000E+00 0. -1.
         -1   -1    0    0    0  501 -0.00000000000E+00 -0.00000000000E+00 -0.64666235023E+03  0.64666235023E+03  0.00000000000E+00 0.  1.
          5    1    1    2  502    0 -0.13814721428E+03  0.92619539795E+02 -0.27459393398E+03  0.32106437508E+03  0.41800000000E+01 0.  1.
         -5    1    1    2    0  502 -0.21717861744E+03  0.27704825405E+02 -0.19867625126E+03  0.29567521783E+03  0.41800000000E+01 0.  1.
        -11    1    1    2    0    0  0.14383623060E+03 -0.95500986728E+02  0.12767465396E+03  0.21473266394E+03  0.00000000000E+00 0. -1.
         11    1    1    2    0    0  0.21148960112E+03 -0.24823378472E+02  0.13688812643E+03  0.25314503878E+03  0.00000000000E+00 0.  1.
</event>
<event>
 6    1  0.6981059E-006  0.1548717E+03  0.7561462E-02  0.1194611E+00
          2   -1    0    0  501    0  0.00000000000E+00  0.00000000000E+00  0.35135833104E+03  0.35135833104E+03  0.00000000000E+00 0. -1.
         -2   -1    0    0    0  501 -0.00000000000E+00 -0.00000000000E+00 -0.11748250566E+03  0.11748250566E+03  0.00000000000E+00 0.  1.
          5    1    1    2  502    0  0.38631952772E+02 -0.61769585306E+02 -0.23742954833E+02  0.76740535234E+02  0.41800000000E+01 0. -1.
         -5    1    1    2    0  502 -0.83965623631E+02 -0.51463818737E+02  0.67302262697E+01  0.98800399475E+02  0.41800000000E+01 0. -1.
        -11    1    1    2    0    0  0.41342476832E+02  0.21914923124E+02  0.15015575289E+03  0.15727750752E+03  0.00000000000E+00 0.  1.
         11    1    1    2    0    0  0.39911940269E+01  0.91318480919E+02  0.10073280106E+03  0.13602239447E+03  0.00000000000E+00 0. -1.
</event>
<event>
 6    1  0.6981059E-006  0.1073552E+03  0.7561462E-02  0.1265547E+00
         -2   -1    0    0    0  501 -0.00000000000E+00  0.00000000000E+00  0.24386861516E+03  0.24386861516E+03  0.00000000000E+00 0.  1.
          2   -1    0    0  501    0  0.00000000000E+00 -0.00000000000E+00 -0.62545351815E+02  0.62545351815E+02  0.00000000000E+00 0. -1.
          5    1    1    2  502    0  0.53361073286E+02  0.46595685416E+02  0.39789437227E+02  0.81358673517E+02  0.41800000000E+01 0. -1.
         -5    1    1    2    0  502 -0.43100245519E+02 -0.58795249613E+01  0.10941038295E+03  0.11781470314E+03  0.41800000000E+01 0. -1.
        -11    1    1    2    0    0 -0.26453302618E+02  0.22537567698E+02  0.65216324441E+00  0.34758373006E+02  0.00000000000E+00 0.  1.
         11    1    1    2    0    0  0.16192474851E+02 -0.63253728153E+02  0.31471279924E+02  0.72482217317E+02  0.00000000000E+00 0. -1.
</event>
<event>
 6    1  0.6981059E-006  0.1064362E+03  0.7561462E-02  0.1267315E+00
         -1   -1    0    0    0  501 -0.00000000000E+00  0.00000000000E+00  0.48524836985E+02  0.48524836985E+02  0.00000000000E+00 0.  1.
          1   -1    0    0  501    0  0.00000000000E+00 -0.00000000000E+00 -0.45817845753E+03  0.45817845753E+03  0.00000000000E+00 0. -1.
          5    1    1    2  502    0 -0.29185330879E+02  0.34481101714E+02  0.10744220048E+02  0.46622318458E+02  0.41800000000E+01 0.  1.
         -5    1    1    2    0  502  0.36958803435E+02  0.50186407703E+02 -0.13635825440E+03  0.14998558135E+03  0.41800000000E+01 0.  1.
        -11    1    1    2    0    0 -0.33344386077E+02 -0.63976858090E+02 -0.10098084891E+03  0.12410486816E+03  0.00000000000E+00 0.  1.
         11    1    1    2    0    0  0.25570913521E+02 -0.20690651327E+02 -0.18305873728E+03  0.18599052655E+03  0.00000000000E+00 0. -1.
</event>
<event>
 6    1  0.6981059E-006  0.1528865E+03  0.7561462E-02  0.1196970E+00
          2   -1    0    0  501    0  0.00000000000E+00  0.00000000000E+00  0.41231631375E+03  0.41231631375E+03  0.00000000000E+00 0. -1.
         -2   -1    0    0    0  501 -0.00000000000E+00 -0.00000000000E+00 -0.75671046326E+02  0.75671046326E+02  0.00000000000E+00 0.  1.
          5    1    1    2  502    0  0.92690362516E+02 -0.24323585347E+02  0.25541302634E+02  0.99262130985E+02  0.41800000000E+01 0.  1.
         -5    1    1    2    0  502 -0.26833002603E+02 -0.63649004329E+02  0.38016396909E+02  0.78955206381E+02  0.41800000000E+01 0.  1.
        -11    1    1    2    0    0 -0.19218053610E+02  0.91862813840E+02  0.13872239468E+03  0.16748735157E+03  0.00000000000E+00 0.  1.
         11    1    1    2    0    0 -0.46639306303E+02 -0.38902241642E+01  0.13436517320E+03  0.14228267114E+03  0.00000000000E+00 0. -1.
</event>
<event>
 6    1  0.6981059E-006  0.1340698E+03  0.7561462E-02  0.1221539E+00
          3   -1    0    0  501    0  0.00000000000E+00  0.00000000000E+00  0.54188220326E+03  0.54188220326E+03  0.00000000000E+00 0. -1.
         -3   -1    0    0    0  501 -0.00000000000E+00 -0.00000000000E+00 -0.63693571782E+02  0.63693571782E+02  0.00000000000E+00 0.  1.
          5    1    1    2  502    0  0.71162093154E+02 -0.79121550667E+02  0.97292355763E+02  0.14424818256E+03  0.41800000000E+01 0.  1.
         -5    1    1    2    0  502 -0.24371293831E+02 -0.14494917213E+02 -0.21277419537E+02  0.35696828573E+02  0.41800000000E+01 0.  1.
        -11    1    1    2    0    0  0.14074039233E+02  0.63557118796E+02  0.13366214662E+03  0.14867129975E+03  0.00000000000E+00 0.  1.
         11    1    1    2    0    0 -0.60864838556E+02  0.30059349084E+02  0.26851154863E+03  0.27695946416E+03  0.00000000000E+00 0. -1.
</event>
<event>
 6    1  0.6981059E-006  0.1058008E+03  0.7561462E-02  0.1268550E+00
          2   -1    0    0  501    0  0.00000000000E+00  0.00000000000E+00  0.11908205762E+03  0.11908205762E+03  0.00000000000E+00 0. -1.
         -2   -1    0    0    0  501 -0.00000000000E+00 -0.00000000000E+00 -0.18594378613E+03  0.18594378613E+03  0.00000000000E+00 0.  1.
          5    1    1    2  502    0 -0.57288687375E+02 -0.25953868165E+02  0.30899995942E+01  0.63107982628E+02  0.41800000000E+01 0. -1.
         -5    1    1    2    0  502  0.15023671352E+02 -0.32384980468E+02 -0.11226364195E+03  0.11787745911E+03  0.41800000000E+01 0. -1.
        -11    1    1    2    0    0 -0.26125391329E+02  0.26410344462E+02  0.29603428955E+02  0.47501635472E+02  0.00000000000E+00 0. -1.
         11    1    1    2    0    0  0.68390407351E+02  0.31928504171E+02  0.12708484889E+02  0.76538766546E+02  0.00000000000E+00 0.  1.
</event>
<event>
 6    1  0.6981059E-006  0.1375651E+03  0.7561462E-02  0.1216643E+00
         -4   -1    0    0    0  501 -0.00000000000E+00  0.00000000000E+00  0.12817816604E+03  0.12817816604E+03  0.00000000000E+00 0.  1.
          4   -1    0    0  501    0  0.00000000000E+00 -0.00000000000E+00 -0.21946211907E+03  0.21946211907E+03  0.00000000000E+00 0. -1.
          5    1    1    2  502    0 -0.31512482308E+02  0.27805863004E+02  0.50864961606E+02  0.66112928220E+02  0.41800000000E+01 0.  1.
         -5    1    1    2    0  502 -0.17913523324E+02  0.85214338485E+02 -0.67690596785E+02  0.11037149584E+03  0.41800000000E+01 0.  1.
        -11    1    1    2    0    0 -0.10557359537E+02  0.62118273873E+01 -0.26739828555E+02  0.29411954560E+02  0.00000000000E+00 0.  1.
         11    1    1    2    0    0  0.59983365169E+02 -0.11923202888E+03 -0.47718489297E+02  0.14174390649E+03  0.00000000000E+00 0. -1.
</event>
<event>
 6    1  0.6981059E-006  0.1413987E+03  0.7561462E-02  0.1211459E+00
          2   -1    0    0  501    0  0.00000000000E+00  0.00000000000E+00  0.70879931423E+03  0.70879931423E+03  0.00000000000E+00 0.  1.
         -2   -1    0    0    0  501 -0.00000000000E+00 -0.00000000000E+00 -0.37919852764E+02  0.37919852764E+02  0.00000000000E+00 0. -1.
          5    1    1    2  502    0  0.86999238940E+01 -0.71102435217E+02  0.69043898997E+02  0.99577996356E+02  0.41800000000E+01 0. -1.
         -5    1    1    2    0  502  0.77025908495E+02 -0.16351914287E+02  0.28017261455E+03  0.29105762663E+03  0.41800000000E+01 0. -1.
        -11    1    1    2    0    0 -0.50689672210E+02  0.16930745197E+02  0.22572810693E+03  0.23196825486E+03  0.00000000000E+00 0.  1.
         11    1    1    2    0    0 -0.35036160179E+02  0.70523604307E+02  0.95934840990E+02  0.12411528915E+03  0.00000000000E+00 0. -1.
</event>
<event>
 6    1  0.6981059E-006  0.1997352E+03  0.7561462E-02  0.1149963E+00
          3   -1    0    0  501    0  0.00000000000E+00  0.00000000000E+00  0.22962522354E+03  0.22962522354E+03  0.00000000000E+00 0. -1.
         -3   -1    0    0    0  501 -0.00000000000E+00 -0.00000000000E+00 -0.21377967668E+03  0.21377967668E+03  0.00000000000E+00 0.  1.
          5    1    1    2  502    0 -0.11358244142E+03  0.73076499914E+01 -0.47981918495E+02  0.12358846892E+03  0.41800000000E+01 0. -1.
         -5    1    1    2    0  502 -0.78692189834E+02 -0.18768696006E+02  0.70133276073E+02  0.10714883809E+03  0.41800000000E+01 0. -1.
        -11    1    1    2    0    0  0.17041486681E+03  0.33334903076E+02  0.16232342682E+02  0.17440163859E+03  0.00000000000E+00 0. -1.
         11    1    1    2    0    0  0.21859764449E+02 -0.21873857061E+02 -0.22538153398E+02  0.38265954621E+02  0.00000000000E+00 0.  1.
</event>
<event>
 6    1  0.6981059E-006  0.1007046E+03  0.7561462E-02  0.1278821E+00
         -3   -1    0    0    0  501 -0.00000000000E+00  0.00000000000E+00  0.44455064649E+03  0.44455064649E+03  0.00000000000E+00 0.  1.
          3   -1    0    0  501    0  0.00000000000E+00 -0.00000000000E+00 -0.32267037347E+02  0.32267037347E+02  0.00000000000E+00 0. -1.
          5    1    1    2  502    0 -0.31791900607E+02  0.54525265551E+02  0.66779240011E+02  0.91981894002E+02  0.41800000000E+01 0. -1.
         -5    1    1    2    0  502  0.14357981189E+01 -0.30110660277E+02  0.20035540596E+03  0.20265358244E+03  0.41800000000E+01 0.  1.
        -11    1    1    2    0    0  0.49125632395E+02 -0.53798806617E+02  0.79392533670E+02  0.10775348604E+03  0.00000000000E+00 0.  1.
         11    1    1    2    0    0 -0.18769529907E+02  0.29384201343E+02  0.65756429501E+02  0.74428721353E+02  0.00000000000E+00 0. -1.
</event>
<event>
 6    1  0.6981059E-006  0.1212225E+03  0.7561462E-02  0.1241094E+00
          1   -1    0    0  501    0  0.00000000000E+00  0.00000000000E+00  0.42838179240E+03  0.42838179240E+03  0.00000000000E+00 0. -1.
         -1   -1    0    0    0  501 -0.00000000000E+00 -0.00000000000E+00 -0.36955379895E+02  0.36955379895E+02  0.00000000000E+00 0.  1.
          5    1    1    2  502    0 -0.41220770895E+02  0.89111226183E+01  0.51505100332E+02  0.66699383953E+02  0.41800000000E+01 0. -1.
         -5    1    1    2    0  502  0.81637203276E+02 -0.47697166487E+02  0.12313178869E+03  0.15530152103E+03  0.41800000000E+01 0. -1.
        -11    1    1    2    0    0 -0.61159742170E+02 -0.31515911108E+00  0.88108285495E+02  0.10725522533E+03  0.00000000000E+00 0. -1.
         11    1    1    2    0    0  0.20743309789E+02  0.39101202980E+02  0.12868123799E+03  0.13608104198E+03  0.00000000000E+00 0.  1.
</event>
<event>
 6    1  0.1011735E-005  0.8832454E+02  0.7561462E-02  0.1306961E+00
          1   -1    0    0  501    0  0.00000000000E+00  0.00000000000E+00  0.89033972960E+03  0.89033972960E+03  0.00000000000E+00 0. -1.
         -1   -1    0    0    0  501 -0.00000000000E+00 -0.00000000000E+00 -0.13922853592E+02  0.13922853592E+02  0.00000000000E+00 0.  1.
          5    1    1    2  502    0  0.35971090520E+02 -0.43748478312E+02  0.46937671558E+03  0.47279998121E+03  0.41800000000E+01 0.  1.
         -5    1    1    2    0  502 -0.31730117105E+02  0.12285640349E+02  0.40042290186E+02  0.52712377044E+02  0.41800000000E+01 0.  1.
        -11    1    1    2    0    0 -0.40358040001E+02  0.28359298931E+02  0.28296424468E+03  0.28723123959E+03  0.00000000000E+00 0. -1.
         11    1    1    2    0    0  0.36117066587E+02  0.31035390316E+01  0.84033625569E+02  0.91518985351E+02  0.00000000000E+00 0.  1.
</event>
<event>
 6    1  0.6981059E-006  0.1092190E+03  0.7561462E-02  0.1262023E+00
          1   -1    0    0  501    0  0.00000000000E+00  0.00000000000E+00  0.38137895892E+03  0.38137895892E+03  0.00000000000E+00 0. -1.
         -1   -1    0    0    0  501 -0.00000000000E+00 -0.00000000000E+00 -0.78368337658E+02  0.78368337658E+02  0.00000000000E+00 0.  1.
          5    1    1    2  502    0 -0.10628605483E+02  0.76914951025E+02 -0.38531391008E+02  0.86781434873E+02  0.41800000000E+01 0.  1.
         -5    1    1    2    0  502 -0.81782589813E+01  0.13578160231E+02  0.70012274785E+02  0.71905781240E+02  0.41800000000E+01 0.  1.
        -11    1    1    2    0    0 -0.29149113532E+02 -0.10427362082E+02  0.34690485465E+02  0.46495488829E+02  0.00000000000E+00 0.  1.
         11    1    1    2    0    0  0.47955977996E+02 -0.80065749175E+02  0.23683925202E+03  0.25456459163E+03  0.00000000000E+00 0. -1.
</event>
<event>
 6    1  0.6981059E-006  0.1096382E+03  0.7561462E-02  0.1261241E+00
         -1   -1    0    0    0  501 -0.00000000000E+00  0.00000000000E+00  0.56292654947E+02  0.56292654947E+02  0.00000000000E+00 0. -1.
          1   -1    0    0  501    0  0.00000000000E+00 -0.00000000000E+00 -0.29061360498E+03  0.29061360498E+03  0.00000000000E+00 0.  1.
          5    1    1    2  502    0 -0.10137104788E+02 -0.10210965475E+03 -0.72321827778E+02  0.12560677394E+03  0.41800000000E+01 0. -1.
         -5    1    1    2    0  502  0.87889964396E+01  0.36871015936E+02 -0.33804291150E+02  0.50959991903E+02  0.41800000000E+01 0. -1.
        -11    1    1    2    0    0  0.17763727423E+02  0.91053332551E+01 -0.10587580895E+03  0.10774109720E+03  0.00000000000E+00 0.  1.
         11    1    1    2    0    0 -0.16415619075E+02  0.56133305556E+02 -0.22319022156E+02  0.62598396883E+02  0.00000000000E+00 0. -1.
</event>
<event>
 6    1  0.6981059E-006  0.1742622E+03  0.7561462E-02  0.1173475E+00
         -1   -1    0    0    0  501 -0.00000000000E+00  0.00000000000E+00  0.96260346424E+02  0.96260346424E+02  0.00000000000E+00 0.  1.
          1   -1    0    0  501    0  0.00000000000E+00 -0.00000000000E+00 -0.37789607302E+03  0.37789607302E+03  0.00000000000E+00 0. -1.
          5    1    1    2  502    0 -0.29881467096E+02 -0.69445214959E+01 -0.56663360589E+02  0.64570405665E+02  0.41800000000E+01 0. -1.
         -5    1    1    2    0  502 -0.45018930546E+01  0.15926460124E+03 -0.85588379263E+02  0.18090971039E+03  0.41800000000E+01 0. -1.
        -11    1    1    2    0    0  0.31420717082E+02 -0.82249590776E+02 -0.13128663036E+03  0.15807731006E+03  0.00000000000E+00 0. -1.
         11    1    1    2    0    0  0.29626430683E+01 -0.70070488966E+02 -0.80973563793E+01  0.70598993323E+02  0.00000000000E+00 0.  1.
</event>
<event>
 6    1  0.6981059E-006  0.9648147E+02  0.7561462E-02  0.1287874E+00
          1   -1    0    0  501    0  0.00000000000E+00  0.00000000000E+00  0.32006531240E+03  0.32006531240E+03  0.00000000000E+00 0. -1.
         -1   -1    0    0    0  501 -0.00000000000E+00 -0.00000000000E+00 -0.44405999380E+02  0.44405999380E+02  0.00000000000E+00 0.  1.
          5    1    1    2  502    0  0.42835818386E+02 -0.51982252244E+02  0.13012146611E+03  0.14658147982E+03  0.41800000000E+01 0.  1.
         -5    1    1    2    0  502  0.61734210392E+01  0.51351478543E+02  0.21426528593E+02  0.56139593902E+02  0.41800000000E+01 0.  1.
        -11    1    1    2    0    0 -0.23718046429E+02  0.27749049631E+02  0.48110432670E+01  0.36819853600E+02  0.00000000000E+00 0.  1.
         11    1    1    2    0    0 -0.25291192996E+02 -0.27118275930E+02  0.11930027505E+03  0.12493038445E+03  0.00000000000E+00 0. -1.
</event>
<event>
 6    1  0.6981059E-006  0.1760919E+03  0.7561462E-02  0.1171640E+00
         -1   -1    0    0    0  501 -0.00000000000E+00  0.00000000000E+00  0.23286147736E+02  0.23286147736E+02  0.00000000000E+00 0.  1.
          1   -1    0    0  501    0  0.00000000000E+00 -0.00000000000E+00 -0.15380199273E+04  0.15380199273E+04  0.00000000000E+00 0. -1.
          5    1    1    2  502    0 -0.11216676860E+02  0.15875127587E+02 -0.16611249647E+02  0.25908290768E+02  0.41800000000E+01 0. -1.
         -5    1    1    2    0  502  0.15566676269E+03  0.30261683286E+02 -0.65045571443E+03  0.66952073852E+03  0.41800000000E+01 0. -1.
        -11    1    1    2    0    0 -0.46786092383E+02  0.24805087136E+02 -0.19086392236E+03  0.19807389441E+03  0.00000000000E+00 0.  1.
         11    1    1    2    0    0 -0.97663993446E+02 -0.70941898010E+02 -0.65680289312E+03  0.66780315133E+03  0.00000000000E+00 0. -1.
</event>
<event>
 6    1  0.6981059E-006  0.9186586E+02  0.7561462E-02  0.1298395E+00
         -2   -1    0    0    0  501 -0.00000000000E+00  0.00000000000E+00  0.10451861819E+03  0.10451861819E+03  0.00000000000E+00 0. -1.
          2   -1    0    0  501    0  0.00000000000E+00 -0.00000000000E+00 -0.16303635683E+03  0.16303635683E+03  0.00000000000E+00 0.  1.
          5    1    1    2  502    0 -0.28281859463E+02  0.41911064844E+02 -0.23408578073E+02  0.55873382379E+02  0.41800000000E+01 0. -1.
         -5    1    1    2    0  502  0.21341603435E+02 -0.36449389445E+02  0.62370657651E+02  0.75442649502E+02  0.41800000000E+01 0. -1.
        -11    1    1    2    0    0  0.15271159879E+02  0.40791796738E+02 -0.68021796190E+02  0.80772171953E+02  0.00000000000E+00 0.  1.
         11    1    1    2    0    0 -0.83309038503E+01 -0.46253472137E+02 -0.29458022029E+02  0.55466771184E+02  0.00000000000E+00 0. -1.
</event>
<event>
 6    1  0.6981059E-006  0.1808521E+03  0.7561462E-02  0.1166981E+00
         -2   -1    0    0    0  501 -0.00000000000E+00  0.00000000000E+00  0.21134046176E+03  0.21134046176E+03  0.00000000000E+00 0.  1.
          2   -1    0    0  501    0  0.00000000000E+00 -0.00000000000E+00 -0.16834049984E+03  0.16834049984E+03  0.00000000000E+00 0. -1.
          5    1    1    2  502    0 -0.18132644811E+02  0.40902648483E+02  0.37624756811E+02  0.58608140952E+02  0.41800000000E+01 0.  1.
         -5    1    1    2    0  502 -0.12580828882E+03 -0.64827366521E+02  0.26892383946E+02  0.14412142693E+03  0.41800000000E+01 0.  1.
        -11    1    1    2    0    0  0.88968295929E+02  0.61882475188E+02 -0.70754204666E+01  0.10860414352E+03  0.00000000000E+00 0. -1.
         11    1    1    2    0    0  0.54972637706E+02 -0.37957757150E+02 -0.14441758367E+02  0.68347250193E+02  0.00000000000E+00 0.  1.
</event>
<event>
 6    1  0.6981059E-006  0.9821985E+02  0.7561462E-02  0.1284085E+00
         -2   -1    0    0    0  501 -0.00000000000E+00  0.00000000000E+00  0.26225795558E+02  0.26225795558E+02  0.00000000000E+00 0.  1.
          2   -1    0    0  501    0  0.00000000000E+00 -0.00000000000E+00 -0.57691342201E+03  0.57691342201E+03  0.00000000000E+00 0. -1.
          5    1    1    2  502    0  0.18706958152E+02 -0.60876339004E+02 -0.18314939985E+03  0.19395116395E+03  0.41800000000E+01 0.  1.
         -5    1    1    2    0  502 -0.63086873995E+02  0.24812269676E+02 -0.10068795674E+03  0.12145426888E+03  0.41800000000E+01 0.  1.
        -11    1    1    2    0    0  0.13898116035E+02 -0.39003176358E+01  0.16869350296E+01  0.14533267243E+02  0.00000000000E+00 0.  1.
         11    1    1    2    0    0  0.30481799809E+02  0.39964386964E+02 -0.26853720489E+03  0.27320051749E+03  0.00000000000E+00 0. -1.
</event>
<event>
 6    1  0.6981059E-006  0.8816018E+02  0.7561462E-02  0.1307369E+00
          3   -1    0    0  501    0  0.00000000000E+00  0.00000000000E+00  0.48795672864E+02  0.48795672864E+02  0.00000000000E+00 0. -1.
         -3   -1    0    0    0  501 -0.00000000000E+00 -0.00000000000E+00 -0.25943648099E+03  0.25943648099E+03  0.00000000000E+00 0.  1.
          5    1    1    2  502    0 -0.53348186977E+02  0.34209621260E+02 -0.82861744390E+02  0.10440243447E+03  0.41800000000E+01 0. -1.
         -5    1    1    2    0  502  0.55918871125E+02 -0.24472037357E+02 -0.59031065734E+02  0.85017291664E+02  0.41800000000E+01 0. -1.
        -11    1    1    2    0    0 -0.22623772704E+02 -0.18993590632E+02  0.14341936028E+02  0.32837215252E+02  0.00000000000E+00 0. -1.
         11    1    1    2    0    0  0.20053088556E+02  0.92560067293E+01 -0.83089934028E+02  0.85975212463E+02  0.00000000000E+00 0.  1.
</event>
<event>
 6    1  0.7545746E-006  0.2311510E+03  0.7561462E-02  0.1125832E+00
         -1   -1    0    0    0  501 -0.00000000000E+00  0.00000000000E+00  0.95446717145E+02  0.95446717145E+02  0.00000000000E+00 0.  1.
          1   -1    0    0  501    0  0.00000000000E+00 -0.00000000000E+00 -0.76160430457E+03  0.76160430457E+03  0.00000000000E+00 0. -1.
          5    1    1    2  502    0  0.33667971638E+02 -0.47989843517E+02 -0.32568625824E+02  0.67191853547E+02  0.41800000000E+01 0.  1.
         -5    1    1    2    0  502 -0.11480658166E+03 -0.13933374773E+03 -0.89547998243E+02  0.20157073408E+03  0.41800000000E+01 0.  1.
        -11    1    1    2    0    0 -0.17318659143E+02  0.57226626491E+02 -0.12362451754E+03  0.13732386563E+03  0.00000000000E+00 0.  1.
         11    1    1    2    0    0  0.98457269168E+02  0.13009696475E+03 -0.42041644582E+03  0.45096456846E+03  0.00000000000E+00 0. -1.
</event>
<event>
 6    1  0.6981059E-006  0.1162165E+03  0.7561462E-02  0.1249473E+00
          2   -1    0    0  501    0  0.00000000000E+00  0.00000000000E+00  0.12200447827E+04  0.12200447827E+04  0.00000000000E+00 0.  1.
         -2   -1    0    0    0  501 -0.00000000000E+00 -0.00000000000E+00 -0.16860454197E+02  0.16860454197E+02  0.00000000000E+00 0. -1.
          5    1    1    2  502    0 -0.81943608263E+02 -0.53554105909E+02  0.62140177204E+03  0.62907903469E+03  0.41800000000E+01 0.  1.
         -5    1    1    2    0  502  0.11308448130E+01  0.82993691895E+01 -0.20057346416E+01  0.95735944341E+01  0.41800000000E+01 0.  1.
        -11    1    1    2    0    0 -0.17158840913E+02 -0.31810423968E-01  0.35345395082E+02  0.39290250532E+02  0.00000000000E+00 0. -1.
         11    1    1    2    0    0  0.97971604363E+02  0.45286547143E+02  0.54844289606E+03  0.55896235728E+03  0.00000000000E+00 0.  1.
</event>
<event>
 6    1  0.6981059E-006  0.1314135E+03  0.7561462E-02  0.1225373E+00
          1   -1    0    0  501    0  0.00000000000E+00  0.00000000000E+00  0.33630040720E+03  0.33630040720E+03  0.00000000000E+00 0. -1.
         -1   -1    0    0    0  501 -0.00000000000E+00 -0.00000000000E+00 -0.10077462258E+03  0.10077462258E+03  0.00000000000E+00 0.  1.
          5    1    1    2  502    0 -0.47269803847E+01  0.11439729424E+03  0.45043621698E+02  0.12310761767E+03  0.41800000000E+01 0. -1.
         -5    1    1    2    0  502  0.15002142078E+02 -0.23002266157E+02 -0.41242726034E+02  0.49725278944E+02  0.41800000000E+01 0.  1.
        -11    1    1    2    0    0 -0.29240108173E+02 -0.96503839251E+02  0.15401497579E+03  0.18408853219E+03  0.00000000000E+00 0. -1.
         11    1    1    2    0    0  0.18964946479E+02  0.51088111682E+01  0.77709913159E+02  0.80153600978E+02  0.00000000000E+00 0.  1.
</event>
<event>
 6    1  0.6981059E-006  0.2480354E+03  0.7561462E-02  0.1114553E+00
          1   -1    0    0  501    0  0.00000000000E+00  0.00000000000E+00  0.73692352203E+03  0.73692352203E+03  0.00000000000E+00 0. -1.
         -1   -1    0    0    0  501 -0.00000000000E+00 -0.00000000000E+00 -0.11489029979E+03  0.11489029979E+03  0.00000000000E+00 0.  1.
          5    1    1    2  502    0  0.89770714705E+02 -0.16384971514E+03  0.14521904118E+03  0.23666759958E+03  0.41800000000E+01 0.  1.
         -5    1    1    2    0  502 -0.41511494057E+01 -0.56355985727E+02 -0.17917929670E+02  0.59428560241E+02  0.41800000000E+01 0.  1.
        -11    1    1    2    0    0 -0.10106294850E+03  0.15153007821E+03  0.33954837124E+03  0.38531568950E+03  0.00000000000E+00 0. -1.
         11    1    1    2    0    0  0.15443383196E+02  0.68675622659E+02  0.15518373948E+03  0.17040197250E+03  0.00000000000E+00 0.  1.
</event>
<event>
 6    1  0.6981059E-006  0.1180280E+03  0.7561462E-02  0.1246386E+00
          1   -1    0    0  501    0  0.00000000000E+00  0.00000000000E+00  0.25019587417E+03  0.25019587417E+03  0.00000000000E+00 0. -1.
         -1   -1    0    0    0  501 -0.00000000000E+00 -0.00000000000E+00 -0.78247167722E+02  0.78247167722E+02  0.00000000000E+00 0.  1.
          5    1    1    2  502    0  0.16237807317E+02 -0.32145793061E+02  0.36705187995E+02  0.51592263216E+02  0.41800000000E+01 0. -1.
         -5    1    1    2    0  502  0.52890655466E+02  0.82928592470E+02  0.85475099769E+01  0.98818546900E+02  0.41800000000E+01 0.  1.
        -11    1    1    2    0    0 -0.45609216435E+02 -0.24551516760E+00  0.72002710809E+01  0.46174720413E+02  0.00000000000E+00 0. -1.
         11    1    1    2    0    0 -0.23519246347E+02 -0.50537284242E+02  0.11949573740E+03  0.13185751137E+03  0.00000000000E+00 0.  1.
</event>
<event>
 6    1  0.6981059E-006  0.1781421E+03  0.7561462E-02  0.1169613E+00
         -1   -1    0    0    0  501 -0.00000000000E+00  0.00000000000E+00  0.51473693205E+03  0.51473693205E+03  0.00000000000E+00 0.  1.
          1   -1    0    0  501    0  0.00000000000E+00 -0.00000000000E+00 -0.94716118241E+02  0.94716118241E+02  0.00000000000E+00 0. -1.
          5    1    1    2  502    0  0.32804436508E+02  0.11664650482E+03  0.29181376797E+03  0.31599886981E+03  0.41800000000E+01 0. -1.
         -5    1    1    2    0  502 -0.60916395032E+02  0.25691594344E+02  0.97246671983E+02  0.11766585238E+03  0.41800000000E+01 0. -1.
        -11    1    1    2    0    0  0.56265652439E+02 -0.62281339607E+02 -0.39480954715E+01  0.84026045757E+02  0.00000000000E+00 0. -1.
         11    1    1    2    0    0 -0.28153693915E+02 -0.80056759556E+02  0.34908469328E+02  0.91762282352E+02  0.00000000000E+00 0.  1.
</event>
<event>
 6    1  0.6981059E-006  0.4381630E+03  0.7561462E-02  0.1031312E+00
          2   -1    0    0  501    0  0.00000000000E+00  0.00000000000E+00  0.10200812055E+04  0.10200812055E+04  0.00000000000E+00 0. -1.
         -2   -1    0    0    0  501 -0.00000000000E+00 -0.00000000000E+00 -0.20041768567E+03  0.20041768567E+03  0.00000000000E+00 0.  1.
          5    1    1    2  502    0  0.64829305918E+01  0.17957320850E+02  0.76252334978E+02  0.78717118537E+02  0.41800000000E+01 0. -1.
         -5    1    1    2    0  502  0.28235161677E+03  0.30926522002E+03  0.39529320283E+03  0.57588332187E+03  0.41800000000E+01 0. -1.
        -11    1    1    2    0    0 -0.20333748017E+03 -0.20415658064E+03  0.27824959523E+03  0.40056070390E+03  0.00000000000E+00 0. -1.
         11    1    1    2    0    0 -0.85497067190E+02 -0.12306596023E+03  0.69868386807E+02  0.16533774687E+03  0.00000000000E+00 0.  1.
</event>
<event>
 6    1  0.6981059E-006  0.1594377E+03  0.7561462E-02  0.1189333E+00
         -1   -1    0    0    0  501 -0.00000000000E+00  0.00000000000E+00  0.12589522144E+04  0.12589522144E+04  0.00000000000E+00 0.  1.
          1   -1    0    0  501    0  0.00000000000E+00 -0.00000000000E+00 -0.30337224829E+02  0.30337224829E+02  0.00000000000E+00 0. -1.
          5    1    1    2  502    0 -0.66755799428E+02 -0.41445380350E+02  0.14018009997E+03  0.16075443738E+03  0.41800000000E+01 0. -1.
         -5    1    1    2    0  502 -0.84200693686E+02  0.43319554585E+01  0.59757723577E+03  0.60351018862E+03  0.41800000000E+01 0. -1.
        -11    1    1    2    0    0  0.10502824223E+03  0.21047584503E+02  0.44654749161E+03  0.45921519438E+03  0.00000000000E+00 0.  1.
         11    1    1    2    0    0  0.45928250881E+02  0.16065840388E+02  0.44310162174E+02  0.65809618813E+02  0.00000000000E+00 0. -1.
</event>
<event>
 6    1  0.6981059E-006  0.1104774E+03  0.7561462E-02  0.1259688E+00
         -1   -1    0    0    0  501 -0.00000000000E+00  0.00000000000E+00  0.46298121692E+03  0.46298121692E+03  0.00000000000E+00 0.  1.
          1   -1    0    0  501    0  0.00000000000E+00 -0.00000000000E+00 -0.42772791178E+02  0.42772791178E+02  0.00000000000E+00 0. -1.
          5    1    1    2  502    0 -0.69703645726E+02  0.59399249573E+02  0.25722454182E+03  0.27307289575E+03  0.41800000000E+01 0. -1.
         -5    1    1    2    0  502 -0.12304367024E+02 -0.31981515349E+02  0.12781416750E+02  0.36811028049E+02  0.41800000000E+01 0. -1.
        -11    1    1    2    0    0  0.30779872467E+02 -0.30638458113E+02  0.73128979433E+01  0.44040823572E+02  0.00000000000E+00 0. -1.
         11    1    1    2    0    0  0.51228140283E+02  0.32207238891E+01  0.14288956923E+03  0.15182926073E+03  0.00000000000E+00 0.  1.
</event>
<event>
 6    1  0.6981059E-006  0.1179806E+03  0.7561462E-02  0.1246466E+00
          2   -1    0    0  501    0  0.00000000000E+00  0.00000000000E+00  0.46962880536E+03  0.46962880536E+03  0.00000000000E+00 0. -1.
         -2   -1    0    0    0  501 -0.00000000000E+00 -0.00000000000E+00 -0.47261306849E+02  0.47261306849E+02  0.00000000000E+00 0.  1.
          5    1    1    2  502    0  0.16855448037E+02  0.27977597126E+02 -0.40814151122E+01  0.33181055119E+02  0.41800000000E+01 0. -1.
         -5    1    1    2    0  502  0.54030787277E+02 -0.81615966412E+02  0.14606842297E+03  0.17588049504E+03  0.41800000000E+01 0. -1.
        -11    1    1    2    0    0 -0.50626195427E+02  0.32227152164E+01  0.50371362273E+02  0.71488962044E+02  0.00000000000E+00 0.  1.
         11    1    1    2    0    0 -0.20260039887E+02  0.50415654069E+02  0.23000912838E+03  0.23633960001E+03  0.00000000000E+00 0. -1.
</event>
<event>
 6    1  0.6981059E-006  0.1128248E+03  0.7561462E-02  0.1255426E+00
          3   -1    0    0  501    0  0.00000000000E+00  0.00000000000E+00  0.51384407812E+02  0.51384407812E+02  0.00000000000E+00 0. -1.
         -3   -1    0    0    0  501 -0.00000000000E+00 -0.00000000000E+00 -0.32888009356E+03  0.32888009356E+03  0.00000000000E+00 0.  1.
          5    1    1    2  502    0  0.35834064212E+02 -0.83912275655E+02 -0.66192339695E+02  0.11280181026E+03  0.41800000000E+01 0.  1.
         -5    1    1    2    0  502  0.29401218206E+01  0.27203529751E+02 -0.11265824978E+03  0.11600874963E+03  0.41800000000E+01 0.  1.
        -11    1    1    2    0    0 -0.98306078126E+01  0.72836926463E+02 -0.91840201353E+02  0.11762857345E+03  0.00000000000E+00 0.  1.
         11    1    1    2    0    0 -0.28943578220E+02 -0.16128180558E+02 -0.68048949296E+01  0.33825368044E+02  0.00000000000E+00 0. -1.
</event>
<event>
 6    1  0.6981059E-006  0.9907944E+02  0.7561462E-02  0.1282244E+00
         -2   -1    0    0    0  501 -0.00000000000E+00  0.00000000000E+00  0.27675272653E+03  0.27675272653E+03  0.00000000000E+00 0.  1.
          2   -1    0    0  501    0  0.00000000000E+00 -0.00000000000E+00 -0.50170815897E+02  0.50170815897E+02  0.00000000000E+00 0. -1.
          5    1    1    2  502    0  0.41854241073E+02 -0.20213400635E+02  0.56802913798E+02  0.73514641243E+02  0.41800000000E+01 0.  1.
         -5    1    1    2    0  502 -0.88822973121E+02 -0.84755261829E+01  0.81444590927E+02  0.12088030811E+03  0.41800000000E+01 0.  1.
        -11    1    1    2    0    0  0.79551048246E+01  0.20928444571E+02  0.89972968137E+02  0.92716872684E+02  0.00000000000E+00 0.  1.
         11    1    1    2    0    0  0.39013627223E+02  0.77604822471E+01 -0.16385622317E+01  0.39811720385E+02  0.00000000000E+00 0. -1.
</event>
<event>
 6    1  0.6981059E-006  0.1569884E+03  0.7561462E-02  0.1192139E+00
          1   -1    0    0  501    0  0.00000000000E+00  0.00000000000E+00  0.13702300009E+03  0.13702300009E+03  0.00000000000E+00 0. -1.
         -1   -1    0    0    0  501 -0.00000000000E+00 -0.00000000000E+00 -0.21839047153E+03  0.21839047153E+03  0.00000000000E+00 0.  1.
          5    1    1    2  502    0  0.10988713000E+02  0.28901017720E+02 -0.21546835625E+02  0.37917794821E+02  0.41800000000E+01 0. -1.
         -5    1    1    2    0  502  0.90806468820E+02 -0.11388656453E+03 -0.59101529732E+00  0.14571817340E+03  0.41800000000E+01 0. -1.
        -11    1    1    2    0    0 -0.90892141098E+02  0.57660149692E+02 -0.81389190303E+02  0.13494544999E+03  0.00000000000E+00 0. -1.
         11    1    1    2    0    0 -0.10903040722E+02  0.27325397121E+02  0.22159569781E+02  0.36832053401E+02  0.00000000000E+00 0.  1.
</event>
<event>
 6    1  0.6981059E-006  0.9218608E+02  0.7561462E-02  0.1297643E+00
          1   -1    0    0  501    0  0.00000000000E+00  0.00000000000E+00  0.32391444312E+02  0.32391444312E+02  0.00000000000E+00 0. -1.
         -1   -1    0    0    0  501 -0.00000000000E+00 -0.00000000000E+00 -0.40905110745E+03  0.40905110745E+03  0.00000000000E+00 0.  1.
          5    1    1    2  502    0  0.50917846343E+02  0.15369542939E+01 -0.84559893159E+02  0.98807070778E+02  0.41800000000E+01 0.  1.
         -5    1    1    2    0  502 -0.72468066972E+02 -0.15768307687E+02 -0.19017398657E+03  0.20416629943E+03  0.41800000000E+01 0.  1.
        -11    1    1    2    0    0 -0.17340137473E+02 -0.61403537146E+00  0.93160428625E+01  0.19693807698E+02  0.00000000000E+00 0. -1.
         11    1    1    2    0    0  0.38890358102E+02  0.14845388764E+02 -0.11124182628E+03  0.11877537386E+03  0.00000000000E+00 0.  1.
</event>
<event>
 6    1  0.6981059E-006  0.2961704E+03  0.7561462E-02  0.1087171E+00
          2   -1    0    0  501    0  0.00000000000E+00  0.00000000000E+00  0.95489077289E+03  0.95489077289E+03  0.00000000000E+00 0. -1.
         -2   -1    0    0    0  501 -0.00000000000E+00 -0.00000000000E+00 -0.10606190551E+03  0.10606190551E+03  0.00000000000E+00 0.  1.
          5    1    1    2  502    0  0.16585999701E+03  0.22751933658E+03  0.27869674400E+03  0.39618674214E+03  0.41800000000E+01 0.  1.
         -5    1    1    2    0  502 -0.12209107006E+02  0.10537718710E+02 -0.47275299622E+01  0.17318422245E+02  0.41800000000E+01 0.  1.
        -11    1    1    2    0    0 -0.27660780217E+02 -0.11388312362E+03  0.18021395911E+03  0.21496873184E+03  0.00000000000E+00 0.  1.
         11    1    1    2    0    0 -0.12599010978E+03 -0.12417393167E+03  0.39464569423E+03  0.43247878219E+03  0.00000000000E+00 0. -1.
</event>
<event>
 6    1  0.6981059E-006  0.2819783E+03  0.7561462E-02  0.1094613E+00
          2   -1    0    0  501    0  0.00000000000E+00  0.00000000000E+00  0.42407810405E+03  0.42407810405E+03  0.00000000000E+00 0. -1.
         -2   -1    0    0    0  501 -0.00000000000E+00 -0.00000000000E+00 -0.26369653739E+03  0.26369653739E+03  0.00000000000E+00 0.  1.
          5    1    1    2  502    0  0.19115153060E+03 -0.80419126170E+02 -0.10469962468E+03  0.23234807361E+03  0.41800000000E+01 0.  1.
         -5    1    1    2    0  502  0.31379979827E+02 -0.68696778124E+02  0.13932192780E+02  0.76912475283E+02  0.41800000000E+01 0.  1.
        -11    1    1    2    0    0 -0.76572437598E+02  0.10195229446E+03  0.13813834449E+03  0.18798885809E+03  0.00000000000E+00 0.  1.
         11    1    1    2    0    0 -0.14595907283E+03  0.47163609834E+02  0.11301065406E+03  0.19052523445E+03  0.00000000000E+00 0. -1.
</event>
<event>
 6    1  0.6981059E-006  0.1028413E+03  0.7561462E-02  0.1274432E+00
          2   -1    0    0  501    0  0.00000000000E+00  0.00000000000E+00  0.63945514899E+03  0.63945514899E+03  0.00000000000E+00 0. -1.
         -2   -1    0    0    0  501 -0.00000000000E+00 -0.00000000000E+00 -0.20006321663E+02  0.20006321663E+02  0.00000000000E+00 0.  1.
          5    1    1    2  502    0 -0.48963834770E+02 -0.47498340481E+01  0.67335999680E+02  0.83496271125E+02  0.41800000000E+01 0.  1.
         -5    1    1    2    0  502  0.68220942105E+02 -0.14698757133E+02  0.22612236845E+03  0.23668322357E+03  0.41800000000E+01 0.  1.
        -11    1    1    2    0    0  0.29316035585E+02  0.23620853039E+02  0.78822858457E+02  0.87352261883E+02  0.00000000000E+00 0.  1.
         11    1    1    2    0    0 -0.48573142920E+02 -0.41722618582E+01  0.24716760073E+03  0.25192971407E+03  0.00000000000E+00 0. -1.
</event>
<event>
 6    1  0.6981059E-006  0.1884094E+03  0.7561462E-02  0.1159904E+00
          1   -1    0    0  501    0  0.00000000000E+00  0.00000000000E+00  0.74735822391E+03  0.74735822391E+03  0.00000000000E+00 0. -1.
         -1   -1    0    0    0  501 -0.00000000000E+00 -0.00000000000E+00 -0.78391513522E+02  0.78391513522E+02  0.00000000000E+00 0.  1.
          5    1    1    2  502    0 -0.14607607653E+03 -0.11569726103E+02  0.16345604032E+03  0.21956190064E+03  0.41800000000E+01 0.  1.
         -5    1    1    2    0  502 -0.32443670877E+02 -0.12406447989E+02 -0.22068421166E+02  0.41364227835E+02  0.41800000000E+01 0.  1.
        -11    1    1    2    0    0  0.57079628218E+02 -0.27477907947E+02  0.11030625034E+03  0.12720294119E+03  0.00000000000E+00 0.  1.
         11    1    1    2    0    0  0.12144011919E+03  0.51454082038E+02  0.41727284089E+03  0.43762066776E+03  0.00000000000E+00 0. -1.
</event>
<event>
 6    1  0.6981059E-006  0.1741482E+03  0.7561462E-02  0.1173590E+00
         -2   -1    0    0    0  501 -0.00000000000E+00  0.00000000000E+00  0.49863458164E+02  0.49863458164E+02  0.00000000000E+00 0. -1.
          2   -1    0    0  501    0  0.00000000000E+00 -0.00000000000E+00 -0.70660823458E+03  0.70660823458E+03  0.00000000000E+00 0.  1.
          5    1    1    2  502    0 -0.34123150772E+01  0.10841736326E+03 -0.20130606891E+03  0.22870849204E+03  0.41800000000E+01 0. -1.
         -5    1    1    2    0  502  0.79247639860E+02  0.20296359372E+02 -0.89352010166E+02  0.12121627262E+03  0.41800000000E+01 0. -1.
        -11    1    1    2    0    0 -0.40014918162E+02 -0.22864150490E+02 -0.20742464377E+03  0.21248281318E+03  0.00000000000E+00 0.  1.
         11    1    1    2    0    0 -0.35820406621E+02 -0.10584957214E+03 -0.15866205357E+03  0.19406411491E+03  0.00000000000E+00 0. -1.
</event>
<event>
 6    1  0.6981059E-006  0.1950255E+03  0.7561462E-02  0.1154005E+00
          2   -1    0    0  501    0  0.00000000000E+00  0.00000000000E+00  0.11005440297E+04  0.11005440297E+04  0.00000000000E+00 0. -1.
         -2   -1    0    0    0  501 -0.00000000000E+00 -0.00000000000E+00 -0.40327478018E+02  0.40327478018E+02  0.00000000000E+00 0.  1.
          5    1    1    2  502    0 -0.19878392463E+02  0.98113011343E+01  0.10292927577E+02  0.24795743081E+02  0.41800000000E+01 0.  1.
         -5    1    1    2    0  502  0.13012456931E+03  0.11813061300E+03  0.37221030271E+03  0.41163725185E+03  0.41800000000E+01 0.  1.
        -11    1    1    2    0    0 -0.74825327139E+02 -0.13613112189E+03  0.52819318291E+03  0.55056203138E+03  0.00000000000E+00 0.  1.
         11    1    1    2    0    0 -0.35420849705E+02  0.81892077510E+01  0.14952013847E+03  0.15387648139E+03  0.00000000000E+00 0. -1.
</event>
<event>
 6    1  0.6981059E-006  0.9745830E+02  0.7561462E-02  0.1285733E+00
         -2   -1    0    0    0  501 -0.00000000000E+00  0.00000000000E+00  0.34549684108E+03  0.34549684108E+03  0.00000000000E+00 0.  1.
          2   -1    0    0  501    0  0.00000000000E+00 -0.00000000000E+00 -0.55926780664E+02  0.55926780664E+02  0.00000000000E+00 0. -1.
          5    1    1    2  502    0  0.53512768186E+01  0.49413068307E+02  0.23667347782E+03  0.24187206327E+03  0.41800000000E+01 0. -1.
         -5    1    1    2    0  502  0.35835428068E+02  0.10832398681E+01  0.29938950156E+01  0.36218601862E+02  0.41800000000E+01 0. -1.
        -11    1    1    2    0    0 -0.67916701468E+02 -0.26112738163E+02  0.47863766689E+02  0.87094739189E+02  0.00000000000E+00 0. -1.
         11    1    1    2    0    0  0.26729996581E+02 -0.24383570012E+02  0.20389208843E+01  0.36238217425E+02  0.00000000000E+00 0.  1.
</event>
<event>
 6    1  0.6981059E-006  0.8988556E+02  0.7561462E-02  0.1303129E+00
         -3   -1    0    0    0  501 -0.00000000000E+00  0.00000000000E+00  0.55852936422E+02  0.55852936422E+02  0.00000000000E+00 0.  1.
          3   -1    0    0  501    0  0.00000000000E+00 -0.00000000000E+00 -0.24748584940E+03  0.24748584940E+03  0.00000000000E+00 0. -1.
          5    1    1    2  502    0 -0.33445628052E+02  0.97627411358E+01  0.14421482676E+01  0.35120839140E+02  0.41800000000E+01 0. -1.
         -5    1    1    2    0  502  0.76371205959E+02 -0.30068957563E+02 -0.10923447483E+03  0.13669801096E+03  0.41800000000E+01 0. -1.
        -11    1    1    2    0    0 -0.10321004179E+02  0.27268579507E+02 -0.92572735856E+02  0.97055705548E+02  0.00000000000E+00 0. -1.
         11    1    1    2    0    0 -0.32604573728E+02 -0.69623630799E+01  0.87321494419E+01  0.34464230174E+02  0.00000000000E+00 0.  1.
</event>
<event>
 6    1  0.6981059E-006  0.1375395E+03  0.7561462E-02  0.1216679E+00
          2   -1    0    0  501    0  0.00000000000E+00  0.00000000000E+00  0.73836545137E+02  0.73836545137E+02  0.00000000000E+00 0. -1.
         -2   -1    0    0    0  501 -0.00000000000E+00 -0.00000000000E+00 -0.42311622347E+03  0.42311622347E+03  0.00000000000E+00 0.  1.
          5    1    1    2  502    0  0.64128219832E+02  0.33649478779E+02  0.19604658698E+01  0.72567429522E+02  0.41800000000E+01 0. -1.
         -5    1    1    2    0  502 -0.16558027995E+01  0.59725897330E+02 -0.22491268291E+03  0.23275118008E+03  0.41800000000E+01 0.  1.
        -11    1    1    2    0    0 -0.41589758030E+02  0.51696602750E+01 -0.25230902323E+02  0.48918624187E+02  0.00000000000E+00 0.  1.
         11    1    1    2    0    0 -0.20882659003E+02 -0.98545036384E+02 -0.10109655897E+03  0.14271553482E+03  0.00000000000E+00 0. -1.
</event>
<event>
 6    1  0.6981059E-006  0.1148986E+03  0.7561462E-02  0.1251758E+00
          2   -1    0    0  501    0  0.00000000000E+00  0.00000000000E+00  0.69046057377E+03  0.69046057377E+03  0.00000000000E+00 0. -1.
         -2   -1    0    0    0  501 -0.00000000000E+00 -0.00000000000E+00 -0.21629741157E+02  0.21629741157E+02  0.00000000000E+00 0.  1.
          5    1    1    2  502    0  0.20639627218E+02  0.80873778498E+02  0.17741877743E+03  0.19611592808E+03  0.41800000000E+01 0. -1.
         -5    1    1    2    0  502 -0.19762963810E+02 -0.42443112484E+02  0.85512620526E+02  0.97580086109E+02  0.41800000000E+01 0. -1.
        -11    1    1    2    0    0  0.44680564095E+02 -0.10896080250E+02  0.14495741693E+03  0.15207803949E+03  0.00000000000E+00 0.  1.
         11    1    1    2    0    0 -0.45557227503E+02 -0.27534585764E+02  0.26094201772E+03  0.26631626124E+03  0.00000000000E+00 0. -1.
</event>
<event>
 6    1  0.6981059E-006  0.1083908E+03  0.7561462E-02  0.1263579E+00
         -1   -1    0    0    0  501 -0.00000000000E+00  0.00000000000E+00  0.14619742022E+03  0.14619742022E+03  0.00000000000E+00 0.  1.
          1   -1    0    0  501    0  0.00000000000E+00 -0.00000000000E+00 -0.11114067946E+03  0.11114067946E+03  0.00000000000E+00 0. -1.
          5    1    1    2  502    0  0.68124685658E+02  0.13018036761E+01  0.28782046684E+02  0.74084722448E+02  0.41800000000E+01 0.  1.
         -5    1    1    2    0  502 -0.42574724941E+02 -0.56172579143E+02  0.24276677070E+02  0.74664551836E+02  0.41800000000E+01 0.  1.
        -11    1    1    2    0    0 -0.40201929024E+02  0.35587498300E+02  0.25008129026E+02  0.59228976438E+02  0.00000000000E+00 0.  1.
         11    1    1    2    0    0  0.14651968308E+02  0.19283277167E+02 -0.43010112022E+02  0.49359848964E+02  0.00000000000E+00 0. -1.
</event>
<event>
 6    1  0.6981059E-006  0.1191413E+03  0.7561462E-02  0.1244520E+00
          1   -1    0    0  501    0  0.00000000000E+00  0.00000000000E+00  0.44891236822E+03  0.44891236822E+03  0.00000000000E+00 0. -1.
         -1   -1    0    0    0  501 -0.00000000000E+00 -0.00000000000E+00 -0.41484024796E+02  0.41484024796E+02  0.00000000000E+00 0.  1.
          5    1    1    2  502    0 -0.86566242063E+02 -0.32899687397E+02  0.12517892803E+03  0.15576694167E+03  0.41800000000E+01 0.  1.
         -5    1    1    2    0  502  0.21791116248E+02  0.29371232423E+02  0.70701419011E+01  0.37483080822E+02  0.41800000000E+01 0.  1.
        -11    1    1    2    0    0  0.85718779521E+02  0.11239868393E+02  0.24352499410E+03  0.25841529861E+03  0.00000000000E+00 0. -1.
         11    1    1    2    0    0 -0.20943653707E+02 -0.77114134179E+01  0.31654279397E+02  0.38731071914E+02  0.00000000000E+00 0.  1.
</event>
<event>
 6    1  0.6981059E-006  0.2390685E+03  0.7561462E-02  0.1120415E+00
          2   -1    0    0  501    0  0.00000000000E+00  0.00000000000E+00  0.72519988761E+03  0.72519988761E+03  0.00000000000E+00 0.  1.
         -2   -1    0    0    0  501 -0.00000000000E+00 -0.00000000000E+00 -0.84758713541E+02  0.84758713541E+02  0.00000000000E+00 0. -1.
          5    1    1    2  502    0  0.46470804027E+02  0.44197986185E+02  0.71247119613E+02  0.95951144146E+02  0.41800000000E+01 0. -1.
         -5    1    1    2    0  502  0.17221869010E+03 -0.74731339591E+02  0.29192235284E+03  0.34710255375E+03  0.41800000000E+01 0. -1.
        -11    1    1    2    0    0 -0.15166367027E+03 -0.17916841374E+01  0.23941347408E+03  0.28341469719E+03  0.00000000000E+00 0.  1.
         11    1    1    2    0    0 -0.67025823857E+02  0.32325037543E+02  0.37858227533E+02  0.83490206059E+02  0.00000000000E+00 0. -1.
</event>
<event>
 6    1  0.6981059E-006  0.1759874E+03  0.7561462E-02  0.1171744E+00
         -1   -1    0    0    0  501 -0.00000000000E+00  0.00000000000E+00  0.57300095149E+03  0.57300095149E+03  0.00000000000E+00 0.  1.
          1   -1    0    0  501    0  0.00000000000E+00 -0.00000000000E+00 -0.86666044132E+02  0.86666044132E+02  0.00000000000E+00 0. -1.
          5    1    1    2  502    0 -0.14220715510E+03  0.60638970029E+02  0.42458887246E+03  0.45187735356E+03  0.41800000000E+01 0. -1.
         -5    1    1    2    0  502 -0.41462971107E+00 -0.23583928298E+02  0.14842434624E+02  0.28180558144E+02  0.41800000000E+01 0. -1.
        -11    1    1    2    0    0  0.51075481875E+02  0.30594270612E+02  0.17009799357E+02  0.61919686023E+02  0.00000000000E+00 0. -1.
         11    1    1    2    0    0  0.91546302941E+02 -0.67649312342E+02  0.29893800919E+02  0.11768939789E+03  0.00000000000E+00 0.  1.
</event>
<event>
 6    1  0.6981059E-006  0.1016452E+03  0.7561462E-02  0.1276874E+00
          1   -1    0    0  501    0  0.00000000000E+00  0.00000000000E+00  0.10921968411E+02  0.10921968411E+02  0.00000000000E+00 0. -1.
         -1   -1    0    0    0  501 -0.00000000000E+00 -0.00000000000E+00 -0.13474898686E+04  0.13474898686E+04  0.00000000000E+00 0.  1.
          5    1    1    2  502    0 -0.38968489030E+02 -0.57494559454E+02 -0.76872764399E+03  0.77187034568E+03  0.41800000000E+01 0.  1.
         -5    1    1    2    0  502 -0.38091533462E+01  0.27997012876E+02 -0.46785193128E+02  0.54814861809E+02  0.41800000000E+01 0.  1.
        -11    1    1    2    0    0  0.53343012412E+02  0.55560913385E+02 -0.40954149447E+03  0.41672140306E+03  0.00000000000E+00 0.  1.
         11    1    1    2    0    0 -0.10565370036E+02 -0.26063366807E+02 -0.11151356858E+03  0.11500522645E+03  0.00000000000E+00 0. -1.
</event>
<event>
 6    1  0.6981059E-006  0.9548296E+02  0.7561462E-02  0.1290092E+00
         -1   -1    0    0    0  501 -0.00000000000E+00  0.00000000000E+00  0.15801605502E+02  0.15801605502E+02  0.00000000000E+00 0.  1.
          1   -1    0    0  501    0  0.00000000000E+00 -0.00000000000E+00 -0.10570095040E+04  0.10570095040E+04  0.00000000000E+00 0. -1.
          5    1    1    2  502    0 -0.29010471808E+02  0.20889947604E+02 -0.40465994815E+03  0.40625748414E+03  0.41800000000E+01 0.  1.
         -5    1    1    2    0  502 -0.20897534719E+02 -0.33176105780E+02 -0.31751271244E+02  0.50625848908E+02  0.41800000000E+01 0.  1.
        -11    1    1    2    0    0  0.44632806269E+02 -0.41829226785E+02 -0.36057308668E+03  0.36572492729E+03  0.00000000000E+00 0.  1.
         11    1    1    2    0    0  0.52752002589E+01  0.54115384961E+02 -0.24422359240E+03  0.25020284913E+03  0.00000000000E+00 0. -1.
</event>
<event>
 6    1  0.6981059E-006  0.1152647E+03  0.7561462E-02  0.1251120E+00
          2   -1    0    0  501    0  0.00000000000E+00  0.00000000000E+00  0.11153578847E+03  0.11153578847E+03  0.00000000000E+00 0. -1.
         -2   -1    0    0    0  501 -0.00000000000E+00 -0.00000000000E+00 -0.12329637639E+03  0.12329637639E+03  0.00000000000E+00 0.  1.
          5    1    1    2  502    0  0.82251710040E+02  0.67448034146E+01  0.78185214442E+01  0.83002637640E+02  0.41800000000E+01 0. -1.
         -5    1    1    2    0  502 -0.46928782007E+02  0.10330027306E+02 -0.13070659416E+01  0.48251433825E+02  0.41800000000E+01 0. -1.
        -11    1    1    2    0    0  0.29336047809E+01  0.34956908833E+02 -0.17003362898E+02  0.38983404957E+02  0.00000000000E+00 0. -1.
         11    1    1    2    0    0 -0.38256532814E+02 -0.52031739554E+02 -0.12686805216E+01  0.64594688437E+02  0.00000000000E+00 0.  1.
</event>
<event>
 6    1  0.6981059E-006  0.1308038E+03  0.7561462E-02  0.1226268E+00
         -1   -1    0    0    0  501 -0.00000000000E+00  0.00000000000E+00  0.16067157853E+03  0.16067157853E+03  0.00000000000E+00 0.  1.
          1   -1    0    0  501    0  0.00000000000E+00 -0.00000000000E+00 -0.15758056446E+03  0.15758056446E+03  0.00000000000E+00 0. -1.
          5    1    1    2  502    0  0.77801336335E+02  0.40791443736E+02  0.54234743695E+02  0.10332410000E+03  0.41800000000E+01 0.  1.
         -5    1    1    2    0  502 -0.49203045073E+02  0.38463237583E+02  0.29650393792E+02  0.69260223374E+02  0.41800000000E+01 0.  1.
        -11    1    1    2    0    0  0.20111276377E+02 -0.50849952909E+02 -0.10718468398E+02  0.55723125479E+02  0.00000000000E+00 0.  1.
         11    1    1    2    0    0 -0.48709567639E+02 -0.28404728410E+02 -0.70075655021E+02  0.89944694131E+02  0.00000000000E+00 0. -1.
</event>
<event>
 6    1  0.6981059E-006  0.1132437E+03  0.7561462E-02  0.1254678E+00
         -1   -1    0    0    0  501 -0.00000000000E+00  0.00000000000E+00  0.30737239755E+02  0.30737239755E+02  0.00000000000E+00 0.  1.
          1   -1    0    0  501    0  0.00000000000E+00 -0.00000000000E+00 -0.46460576527E+03  0.46460576527E+03  0.00000000000E+00 0. -1.
          5    1    1    2  502    0  0.66344362288E+02 -0.50412448264E+02 -0.16108812755E+03  0.18141071244E+03  0.41800000000E+01 0.  1.
         -5    1    1    2    0  502 -0.21362480038E+02  0.42637954190E+02 -0.13518921010E+03  0.14341529074E+03  0.41800000000E+01 0.  1.
        -11    1    1    2    0    0 -0.34698198267E+02 -0.36129357057E+02 -0.99865579282E+02  0.11172479282E+03  0.00000000000E+00 0. -1.
         11    1    1    2    0    0 -0.10283683983E+02  0.43903851132E+02 -0.37725608580E+02  0.58792209035E+02  0.00000000000E+00 0.  1.
</event>
<event>
 6    1  0.6981059E-006  0.1478303E+03  0.7561462E-02  0.1203165E+00
         -1   -1    0    0    0  501 -0.00000000000E+00  0.00000000000E+00  0.20271315925E+04  0.20271315925E+04  0.00000000000E+00 0.  1.
          1   -1    0    0  501    0  0.00000000000E+00 -0.00000000000E+00 -0.16208466080E+02  0.16208466080E+02  0.00000000000E+00 0. -1.
          5    1    1    2  502    0 -0.61821953164E+02  0.31055098662E+01  0.48146634603E+03  0.48544712672E+03  0.41800000000E+01 0.  1.
         -5    1    1    2    0  502  0.14615169135E+02 -0.96694079629E+02  0.11296191255E+04  0.11338519257E+04  0.41800000000E+01 0.  1.
        -11    1    1    2    0    0  0.72498611963E+02  0.75289447643E+02  0.34963771662E+03  0.36492613300E+03  0.00000000000E+00 0.  1.
         11    1    1    2    0    0 -0.25291827933E+02  0.18299122119E+02  0.50199938195E+02  0.59114873131E+02  0.00000000000E+00 0. -1.
</event>
<event>
 6    1  0.6981059E-006  0.1964854E+03  0.7561462E-02  0.1152739E+00
         -2   -1    0    0    0  501 -0.00000000000E+00  0.00000000000E+00  0.10881242110E+03  0.10881242110E+03  0.00000000000E+00 0.  1.
          2   -1    0    0  501    0  0.00000000000E+00 -0.00000000000E+00 -0.39752598647E+03  0.39752598647E+03  0.00000000000E+00 0. -1.
          5    1    1    2  502    0  0.10899811550E+03  0.16189066335E+03 -0.14229007434E+03  0.24156389158E+03  0.41800000000E+01 0.  1.
         -5    1    1    2    0  502 -0.17038313815E+02 -0.10187934523E+02 -0.54359059824E+01  0.21002847934E+02  0.41800000000E+01 0.  1.
        -11    1    1    2    0    0 -0.13744155657E+02 -0.26404205728E+02 -0.77459523202E+02  0.82982297085E+02  0.00000000000E+00 0.  1.
         11    1    1    2    0    0 -0.78215646030E+02 -0.12529852309E+03 -0.63528061839E+02  0.16078937096E+03  0.00000000000E+00 0. -1.
</event>
<event>
 6    1  0.6981059E-006  0.1050456E+03  0.7561462E-02  0.1270030E+00
         -1   -1    0    0    0  501 -0.00000000000E+00  0.00000000000E+00  0.24818273109E+03  0.24818273109E+03  0.00000000000E+00 0.  1.
          1   -1    0    0  501    0  0.00000000000E+00 -0.00000000000E+00 -0.80428626786E+02  0.80428626786E+02  0.00000000000E+00 0. -1.
          5    1    1    2  502    0  0.96231322602E+00 -0.75656184373E+02  0.39554697320E+02  0.85480002109E+02  0.41800000000E+01 0. -1.
         -5    1    1    2    0  502 -0.53874665218E+02  0.20751164757E+02  0.10752877820E+03  0.12211879844E+03  0.41800000000E+01 0. -1.
        -11    1    1    2    0    0  0.10068367775E+02  0.13561109855E+02  0.51333944661E+02  0.54041184338E+02  0.00000000000E+00 0.  1.
         11    1    1    2    0    0  0.42843984217E+02  0.41343909761E+02 -0.30663315885E+02  0.66971372981E+02  0.00000000000E+00 0. -1.
</event>
<event>
 6    1  0.6981059E-006  0.7046581E+02  0.7561462E-02  0.1358516E+00
          2   -1    0    0  501    0  0.00000000000E+00  0.00000000000E+00  0.20517400201E+03  0.20517400201E+03  0.00000000000E+00 0. -1.
         -2   -1    0    0    0  501 -0.00000000000E+00 -0.00000000000E+00 -0.65549274438E+02  0.65549274438E+02  0.00000000000E+00 0.  1.
          5    1    1    2  502    0 -0.50157221556E+01  0.41945725365E+02 -0.35453560005E+02  0.55308486349E+02  0.41800000000E+01 0.  1.
         -5    1    1    2    0  502 -0.45875114069E+01 -0.20816741567E+02  0.74760976977E+02  0.77852797438E+02  0.41800000000E+01 0.  1.
        -11    1    1    2    0    0 -0.16225243057E+02 -0.41049988855E+02  0.15656150172E+02  0.46834550660E+02  0.00000000000E+00 0.  1.
         11    1    1    2    0    0  0.25828476619E+02  0.19921005057E+02  0.84661160432E+02  0.90727442004E+02  0.00000000000E+00 0. -1.
</event>
<event>
 6    1  0.6981059E-006  0.1224369E+03  0.7561462E-02  0.1239130E+00
          3   -1    0    0  501    0  0.00000000000E+00  0.00000000000E+00  0.42994199439E+03  0.42994199439E+03  0.00000000000E+00 0. -1.
         -3   -1    0    0    0  501 -0.00000000000E+00 -0.00000000000E+00 -0.42940398259E+02  0.42940398259E+02  0.00000000000E+00 0.  1.
          5    1    1    2  502    0 -0.11762702290E+02  0.43046107044E+02  0.92240142144E+02  0.10255264365E+03  0.41800000000E+01 0.  1.
         -5    1    1    2    0  502 -0.55698272310E+02 -0.65636886258E+02  0.49297610934E+02  0.99288595618E+02  0.41800000000E+01 0.  1.
        -11    1    1    2    0    0  0.35871002094E+02  0.56879698525E+02  0.12640161624E+03  0.14317610654E+03  0.00000000000E+00 0. -1.
         11    1    1    2    0    0  0.31589972506E+02 -0.34288919312E+02  0.11906222681E+03  0.12786504684E+03  0.00000000000E+00 0.  1.
</event>
<event>
 6    1  0.6981059E-006  0.1517568E+03  0.7561462E-02  0.1198331E+00
         -2   -1    0    0    0  501 -0.00000000000E+00  0.00000000000E+00  0.65559886203E+02  0.65559886203E+02  0.00000000000E+00 0.  1.
          2   -1    0    0  501    0  0.00000000000E+00 -0.00000000000E+00 -0.42103711765E+03  0.42103711765E+03  0.00000000000E+00 0. -1.
          5    1    1    2  502    0 -0.84089686128E+02 -0.38789376611E+02 -0.10431255733E+03  0.13955025284E+03  0.41800000000E+01 0.  1.
         -5    1    1    2    0  502  0.29215824526E+02 -0.69691546986E+02 -0.33558629125E+02  0.82789673950E+02  0.41800000000E+01 0.  1.
        -11    1    1    2    0    0  0.48629114670E+02  0.31594242260E+02 -0.39506472155E+02  0.70169425534E+02  0.00000000000E+00 0.  1.
         11    1    1    2    0    0  0.62447469324E+01  0.76886681336E+02 -0.17809957284E+03  0.19408765153E+03  0.00000000000E+00 0. -1.
</event>
<event>
 6    1  0.6981059E-006  0.8191360E+02  0.7561462E-02  0.1323707E+00
          2   -1    0    0  501    0  0.00000000000E+00  0.00000000000E+00  0.10217340409E+03  0.10217340409E+03  0.00000000000E+00 0. -1.
         -2   -1    0    0    0  501 -0.00000000000E+00 -0.00000000000E+00 -0.21074601583E+03  0.21074601583E+03  0.00000000000E+00 0.  1.
          5    1    1    2  502    0 -0.76264300370E+01 -0.51012770688E+02 -0.16132851692E+03  0.16942499220E+03  0.41800000000E+01 0.  1.
         -5    1    1    2    0  502 -0.11925160042E+02 -0.23992315517E+02  0.20709017925E+02  0.34120030324E+02  0.41800000000E+01 0.  1.
        -11    1    1    2    0    0  0.29729901075E+02  0.55626992364E+02  0.50457668487E+02  0.80772554785E+02  0.00000000000E+00 0. -1.
         11    1    1    2    0    0 -0.10178310996E+02  0.19378093842E+02 -0.18410781222E+02  0.28601842613E+02  0.00000000000E+00 0.  1.
</event>
<event>
 6    1  0.6981059E-006  0.1570169E+03  0.7561462E-02  0.1192106E+00
         -2   -1    0    0    0  501 -0.00000000000E+00  0.00000000000E+00  0.60352014206E+02  0.60352014206E+02  0.00000000000E+00 0. -1.
          2   -1    0    0  501    0  0.00000000000E+00 -0.00000000000E+00 -0.61298113446E+03  0.61298113446E+03  0.00000000000E+00 0.  1.
          5    1    1    2  502    0  0.12503572406E+03 -0.42799656701E+01 -0.41199839263E+03  0.43059539979E+03  0.41800000000E+01 0.  1.
         -5    1    1    2    0  502 -0.70752324035E+02  0.71853554017E+02 -0.40416987486E+02  0.10871904092E+03  0.41800000000E+01 0. -1.
        -11    1    1    2    0    0 -0.11276774087E+02 -0.58635822904E+01 -0.22654765136E+02  0.25976635934E+02  0.00000000000E+00 0.  1.
         11    1    1    2    0    0 -0.43006625937E+02 -0.61710006057E+02 -0.77558975009E+02  0.10804207202E+03  0.00000000000E+00 0. -1.
</event>
<event>
 6    1  0.6981059E-006  0.8218042E+02  0.7561462E-02  0.1322975E+00
         -3   -1    0    0    0  501 -0.00000000000E+00  0.00000000000E+00  0.28592268391E+02  0.28592268391E+02  0.00000000000E+00 0.  1.
          3   -1    0    0  501    0  0.00000000000E+00 -0.00000000000E+00 -0.52747015271E+03  0.52747015271E+03  0.00000000000E+00 0. -1.
          5    1    1    2  502    0  0.46711585463E+02  0.14102143316E+02 -0.28392306384E+03  0.28811563867E+03  0.41800000000E+01 0. -1.
         -5    1    1    2    0  502  0.72790690719E+01  0.83908860988E+01  0.11989266985E+02  0.16870291607E+02  0.41800000000E+01 0. -1.
        -11    1    1    2    0    0  0.62717617570E+01  0.25638858506E+02 -0.32323008026E+02  0.41730838823E+02  0.00000000000E+00 0.  1.
         11    1    1    2    0    0 -0.60262416292E+02 -0.48131887921E+02 -0.19462107943E+03  0.20934565200E+03  0.00000000000E+00 0. -1.
</event>
<event>
 6    1  0.6981059E-006  0.1783019E+03  0.7561462E-02  0.1169457E+00
         -1   -1    0    0    0  501 -0.00000000000E+00  0.00000000000E+00  0.11502215802E+03  0.11502215802E+03  0.00000000000E+00 0.  1.
          1   -1    0    0  501    0  0.00000000000E+00 -0.00000000000E+00 -0.30014223757E+03  0.30014223757E+03  0.00000000000E+00 0. -1.
          5    1    1    2  502    0  0.93694152923E+02 -0.14423881294E+03 -0.65081465048E+02  0.18394700036E+03  0.41800000000E+01 0. -1.
         -5    1    1    2    0  502 -0.18400263047E+02  0.13190221775E+02 -0.90328389694E+00  0.23039964246E+02  0.41800000000E+01 0. -1.
        -11    1    1    2    0    0 -0.47210155447E+01  0.64044207160E+02 -0.81684498960E+02  0.10390527334E+03  0.00000000000E+00 0. -1.
         11    1    1    2    0    0 -0.70572874332E+02  0.67004384002E+02 -0.37450831644E+02  0.10427215763E+03  0.00000000000E+00 0.  1.
</event>
<event>
 6    1  0.6981059E-006  0.9336480E+02  0.7561462E-02  0.1294902E+00
         -2   -1    0    0    0  501 -0.00000000000E+00  0.00000000000E+00  0.17736984666E+03  0.17736984666E+03  0.00000000000E+00 0. -1.
          2   -1    0    0  501    0  0.00000000000E+00 -0.00000000000E+00 -0.92694573228E+02  0.92694573228E+02  0.00000000000E+00 0.  1.
          5    1    1    2  502    0  0.45863434863E+02 -0.91622958129E+01  0.68080922507E+02  0.82703607729E+02  0.41800000000E+01 0. -1.
         -5    1    1    2    0  502 -0.41007788012E+02 -0.56955356351E+02 -0.86570405252E+01  0.70837617446E+02  0.41800000000E+01 0. -1.
        -11    1    1    2    0    0 -0.11842432632E+02  0.23878974383E+02  0.57198933435E+02  0.63104410419E+02  0.00000000000E+00 0. -1.
         11    1    1    2    0    0  0.69867857815E+01  0.42238677781E+02 -0.31947541987E+02  0.53418784292E+02  0.00000000000E+00 0.  1.
</event>
<event>
 6    1  0.6981059E-006  0.5649526E+02  0.7561462E-02  0.1413157E+00
          4   -1    0    0  501    0  0.00000000000E+00  0.00000000000E+00  0.22066889819E+02  0.22066889819E+02  0.00000000000E+00 0. -1.
         -4   -1    0    0    0  501 -0.00000000000E+00 -0.00000000000E+00 -0.35597685130E+03  0.35597685130E+03  0.00000000000E+00 0.  1.
          5    1    1    2  502    0 -0.28160573497E+02  0.70414450952E+01 -0.25436019675E+03  0.25604527322E+03  0.41800000000E+01 0. -1.
         -5    1    1    2    0  502  0.38462555645E+02 -0.92573278119E+01 -0.17622094304E+02  0.43509503704E+02  0.41800000000E+01 0. -1.
        -11    1    1    2    0    0  0.19383438429E+01  0.21203198064E+02 -0.13938215256E+02  0.25448116424E+02  0.00000000000E+00 0. -1.
         11    1    1    2    0    0 -0.12240325990E+02 -0.18987315347E+02 -0.47989455165E+02  0.53040847764E+02  0.00000000000E+00 0.  1.
</event>
<event>
 6    1  0.6981059E-006  0.1094522E+03  0.7561462E-02  0.1261588E+00
          2   -1    0    0  501    0  0.00000000000E+00  0.00000000000E+00  0.51839465961E+03  0.51839465961E+03  0.00000000000E+00 0. -1.
         -2   -1    0    0    0  501 -0.00000000000E+00 -0.00000000000E+00 -0.35062724507E+02  0.35062724507E+02  0.00000000000E+00 0.  1.
          5    1    1    2  502    0 -0.21579092823E+02 -0.27183711883E+02  0.12785059073E+03  0.13254379423E+03  0.41800000000E+01 0.  1.
         -5    1    1    2    0  502  0.67997649592E+02  0.79725320710E+02  0.22046100750E+03  0.24413179911E+03  0.41800000000E+01 0.  1.
        -11    1    1    2    0    0 -0.30610490333E+02 -0.77462350804E+01 -0.21208901580E+01  0.31646555127E+02  0.00000000000E+00 0.  1.
         11    1    1    2    0    0 -0.15808066436E+02 -0.44795373746E+02  0.13714122704E+03  0.14513523565E+03  0.00000000000E+00 0. -1.
</event>
<event>
 6    1  0.6981059E-006  0.1815760E+03  0.7561462E-02  0.1166286E+00
         -2   -1    0    0    0  501 -0.00000000000E+00  0.00000000000E+00  0.13998050660E+03  0.13998050660E+03  0.00000000000E+00 0.  1.
          2   -1    0    0  501    0  0.00000000000E+00 -0.00000000000E+00 -0.24386530249E+03  0.24386530249E+03  0.00000000000E+00 0. -1.
          5    1    1    2  502    0 -0.75765593497E+00  0.31968430266E+02 -0.45462971682E+00  0.32252653602E+02  0.41800000000E+01 0.  1.
         -5    1    1    2    0  502 -0.14022449022E+03 -0.79631002642E+02 -0.43250601940E+02  0.16700925485E+03  0.41800000000E+01 0.  1.
        -11    1    1    2    0    0 -0.80396156062E+01 -0.71986281074E+01  0.62265095778E+01  0.12458936040E+02  0.00000000000E+00 0.  1.
         11    1    1    2    0    0  0.14902176176E+03  0.54861200483E+02 -0.66406073810E+02  0.17212496459E+03  0.00000000000E+00 0. -1.
</event>
<event>
 6    1  0.6981059E-006  0.1731346E+03  0.7561462E-02  0.1174618E+00
         -1   -1    0    0    0  501 -0.00000000000E+00  0.00000000000E+00  0.10516084282E+03  0.10516084282E+03  0.00000000000E+00 0.  1.
          1   -1    0    0  501    0  0.00000000000E+00 -0.00000000000E+00 -0.62027130872E+03  0.62027130872E+03  0.00000000000E+00 0. -1.
          5    1    1    2  502    0  0.20945427095E+02  0.82599718428E+01  0.17541250495E+02  0.28846246202E+02  0.41800000000E+01 0. -1.
         -5    1    1    2    0  502 -0.11960739914E+03  0.10321176075E+03 -0.25288962763E+02  0.16004874734E+03  0.41800000000E+01 0.  1.
        -11    1    1    2    0    0  0.10904401439E+03 -0.89650855696E+02 -0.47852733027E+03  0.49891510182E+03  0.00000000000E+00 0. -1.
         11    1    1    2    0    0 -0.10382042347E+02 -0.21820876897E+02 -0.28835423355E+02  0.37622056189E+02  0.00000000000E+00 0.  1.
</event>
<event>
 6    1  0.6981059E-006  0.6332163E+02  0.7561462E-02  0.1384398E+00
          1   -1    0    0  501    0  0.00000000000E+00  0.00000000000E+00  0.15548533233E+02  0.15548533233E+02  0.00000000000E+00 0. -1.
         -1   -1    0    0    0  501 -0.00000000000E+00 -0.00000000000E+00 -0.81447839891E+03  0.81447839891E+03  0.00000000000E+00 0.  1.
          5    1    1    2  502    0  0.11710161991E+02 -0.22200712730E+02 -0.51896935937E+03  0.51959279047E+03  0.41800000000E+01 0. -1.
         -5    1    1    2    0  502 -0.27819469897E+02  0.54976767447E+01 -0.21994215680E+02  0.36129839169E+02  0.41800000000E+01 0. -1.
        -11    1    1    2    0    0 -0.27183498382E+02  0.84026705305E+01 -0.27188897612E+02  0.39354588166E+02  0.00000000000E+00 0.  1.
         11    1    1    2    0    0  0.43292806289E+02  0.83003654548E+01 -0.23077739302E+03  0.23494971435E+03  0.00000000000E+00 0. -1.
</event>
<event>
 6    1  0.6981059E-006  0.1186997E+03  0.7561462E-02  0.1245258E+00
         -2   -1    0    0    0  501 -0.00000000000E+00  0.00000000000E+00  0.39787210862E+03  0.39787210862E+03  0.00000000000E+00 0.  1.
          2   -1    0    0  501    0  0.00000000000E+00 -0.00000000000E+00 -0.37853141773E+02  0.37853141773E+02  0.00000000000E+00 0. -1.
          5    1    1    2  502    0  0.28807171201E+02  0.26384391800E+02  0.10033147453E+03  0.10774909013E+03  0.41800000000E+01 0. -1.
         -5    1    1    2    0  502 -0.56648033713E+02 -0.74144677382E+02  0.12894929354E+03  0.15922256628E+03  0.41800000000E+01 0. -1.
        -11    1    1    2    0    0 -0.59841638998E+01  0.66007195858E+02  0.66447216426E+02  0.93850906727E+02  0.00000000000E+00 0. -1.
         11    1    1    2    0    0  0.33825026412E+02 -0.18246910276E+02  0.64290982360E+02  0.74902687262E+02  0.00000000000E+00 0.  1.
</event>
<event>
 6    1  0.6981059E-006  0.2463000E+03  0.7561462E-02  0.1115666E+00
         -2   -1    0    0    0  501 -0.00000000000E+00  0.00000000000E+00  0.48864666988E+02  0.48864666988E+02  0.00000000000E+00 0.  1.
          2   -1    0    0  501    0  0.00000000000E+00 -0.00000000000E+00 -0.19299207511E+04  0.19299207511E+04  0.00000000000E+00 0. -1.
          5    1    1    2  502    0 -0.56815562659E+02  0.81478114024E+01 -0.25162221143E+02  0.62809272912E+02  0.41800000000E+01 0.  1.
         -5    1    1    2    0  502 -0.18027821474E+03 -0.13050609343E+02 -0.41352740454E+03  0.45132354228E+03  0.41800000000E+01 0.  1.
        -11    1    1    2    0    0  0.10551512613E+03  0.47828878407E+02 -0.69146031268E+03  0.70109800133E+03  0.00000000000E+00 0.  1.
         11    1    1    2    0    0  0.13157865126E+03 -0.42926080466E+02 -0.75090614575E+03  0.76355460157E+03  0.00000000000E+00 0. -1.
</event>
<event>
 6    1  0.6981059E-006  0.1261130E+03  0.7561462E-02  0.1233340E+00
         -2   -1    0    0    0  501 -0.00000000000E+00  0.00000000000E+00  0.92110498879E+02  0.92110498879E+02  0.00000000000E+00 0.  1.
          2   -1    0    0  501    0  0.00000000000E+00 -0.00000000000E+00 -0.31568301868E+03  0.31568301868E+03  0.00000000000E+00 0. -1.
          5    1    1    2  502    0 -0.75392355641E+02 -0.79695132041E+02 -0.23655532376E+01  0.10981069894E+03  0.41800000000E+01 0. -1.
         -5    1    1    2    0  502  0.97934292898E+01  0.35767200009E+02  0.82776805528E+01  0.38225596778E+02  0.41800000000E+01 0. -1.
        -11    1    1    2    0    0 -0.14885203067E+02  0.89261294574E+01 -0.40244304511E+01  0.17816876772E+02  0.00000000000E+00 0.  1.
         11    1    1    2    0    0  0.80484129419E+02  0.35001802575E+02 -0.22546021666E+03  0.24194034506E+03  0.00000000000E+00 0. -1.
</event>
<event>
 6    1  0.6981059E-006  0.7644491E+02  0.7561462E-02  0.1339454E+00
          2   -1    0    0  501    0  0.00000000000E+00  0.00000000000E+00  0.32939201185E+03  0.32939201185E+03  0.00000000000E+00 0. -1.
         -2   -1    0    0    0  501 -0.00000000000E+00 -0.00000000000E+00 -0.42169895344E+02  0.42169895344E+02  0.00000000000E+00 0.  1.
          5    1    1    2  502    0  0.11274087923E+02 -0.25504673910E+02 -0.16467825596E+02  0.32653562281E+02  0.41800000000E+01 0. -1.
         -5    1    1    2    0  502 -0.39461667757E+02  0.37492655864E+02  0.12268328685E+03  0.13428173271E+03  0.41800000000E+01 0. -1.
        -11    1    1    2    0    0  0.14593770237E+02 -0.38024188818E+02  0.29476232607E+02  0.50275892371E+02  0.00000000000E+00 0.  1.
         11    1    1    2    0    0  0.13593809597E+02  0.26036206864E+02  0.15153042264E+03  0.15435071983E+03  0.00000000000E+00 0. -1.
</event>
<event>
 6    1  0.6981059E-006  0.1571345E+03  0.7561462E-02  0.1191970E+00
          1   -1    0    0  501    0  0.00000000000E+00  0.00000000000E+00  0.24278151814E+03  0.24278151814E+03  0.00000000000E+00 0. -1.
         -1   -1    0    0    0  501 -0.00000000000E+00 -0.00000000000E+00 -0.11827380752E+03  0.11827380752E+03  0.00000000000E+00 0.  1.
          5    1    1    2  502    0 -0.25526577857E+02 -0.83753712803E+02  0.47773715848E+02  0.99830310584E+02  0.41800000000E+01 0.  1.
         -5    1    1    2    0  502  0.80997460330E+02 -0.38562450194E+02 -0.39752007615E-01  0.89806041696E+02  0.41800000000E+01 0.  1.
        -11    1    1    2    0    0 -0.70075151843E+01  0.45098954318E+02  0.65105685930E+02  0.79509567286E+02  0.00000000000E+00 0. -1.
         11    1    1    2    0    0 -0.48463367288E+02  0.77217208679E+02  0.11668060853E+02  0.91909406097E+02  0.00000000000E+00 0.  1.
</event>
<event>
 6    1  0.6981059E-006  0.1360523E+03  0.7561462E-02  0.1218742E+00
         -2   -1    0    0    0  501 -0.00000000000E+00  0.00000000000E+00  0.64130704798E+03  0.64130704798E+03  0.00000000000E+00 0.  1.
          2   -1    0    0  501    0  0.00000000000E+00 -0.00000000000E+00 -0.39092160467E+02  0.39092160467E+02  0.00000000000E+00 0. -1.
          5    1    1    2  502    0  0.52887493993E+02  0.18963968879E+02  0.95282746183E+02  0.11069323943E+03  0.41800000000E+01 0.  1.
         -5    1    1    2    0  502  0.12987702845E+02 -0.93717314194E+02  0.34384292189E+03  0.35664694411E+03  0.41800000000E+01 0.  1.
        -11    1    1    2    0    0 -0.55059787332E+02  0.10688022034E+02  0.26983382433E+02  0.62240797903E+02  0.00000000000E+00 0. -1.
         11    1    1    2    0    0 -0.10815409506E+02  0.64065323281E+02  0.13610583700E+03  0.15081822700E+03  0.00000000000E+00 0.  1.
</event>
<event>
 6    1  0.6981059E-006  0.1281071E+03  0.7561462E-02  0.1230292E+00
         -2   -1    0    0    0  501 -0.00000000000E+00  0.00000000000E+00  0.22955588338E+03  0.22955588338E+03  0.00000000000E+00 0.  1.
          2   -1    0    0  501    0  0.00000000000E+00 -0.00000000000E+00 -0.12022814421E+03  0.12022814421E+03  0.00000000000E+00 0. -1.
          5    1    1    2  502    0  0.11160092729E+02 -0.98082797586E+02  0.79263993199E+02  0.12666900122E+03  0.41800000000E+01 0.  1.
         -5    1    1    2    0  502  0.45181168130E+02  0.27783271247E+02  0.69830215090E+02  0.87789403997E+02  0.41800000000E+01 0.  1.
        -11    1    1    2    0    0 -0.63709418467E+02  0.45379030644E+02 -0.63024956792E+02  0.10045044351E+03  0.00000000000E+00 0. -1.
         11    1    1    2    0    0  0.73681576088E+01  0.24920495694E+02  0.23258487674E+02  0.34875178868E+02  0.00000000000E+00 0.  1.
</event>
<event>
 6    1  0.6981059E-006  0.1129826E+03  0.7561462E-02  0.1255144E+00
         -2   -1    0    0    0  501 -0.00000000000E+00  0.00000000000E+00  0.12111758399E+03  0.12111758399E+03  0.00000000000E+00 0.  1.
          2   -1    0    0  501    0  0.00000000000E+00 -0.00000000000E+00 -0.33805234689E+03  0.33805234689E+03  0.00000000000E+00 0. -1.
          5    1    1    2  502    0  0.32277178099E+02  0.49833399323E+02 -0.12465699427E+03  0.13813769412E+03  0.41800000000E+01 0. -1.
         -5    1    1    2    0  502  0.23747322112E+02 -0.54113023289E+02  0.90983101275E+02  0.10857049191E+03  0.41800000000E+01 0.  1.
        -11    1    1    2    0    0 -0.31862892473E+02 -0.43347159198E+02 -0.99806582859E+02  0.11338242416E+03  0.00000000000E+00 0.  1.
         11    1    1    2    0    0 -0.24161607738E+02  0.47626783164E+02 -0.83454287038E+02  0.99079320689E+02  0.00000000000E+00 0. -1.
</event>
<event>
 6    1  0.6981059E-006  0.1366100E+03  0.7561462E-02  0.1217965E+00
         -2   -1    0    0    0  501 -0.00000000000E+00  0.00000000000E+00  0.21312591726E+03  0.21312591726E+03  0.00000000000E+00 0.  1.
          2   -1    0    0  501    0  0.00000000000E+00 -0.00000000000E+00 -0.11977970842E+03  0.11977970842E+03  0.00000000000E+00 0. -1.
          5    1    1    2  502    0 -0.46578380957E+02 -0.86288817316E+02  0.77490569593E+02  0.12505025527E+03  0.41800000000E+01 0.  1.
         -5    1    1    2    0  502  0.50827066429E+02 -0.29658421668E+02 -0.72611298130E+01  0.59440803022E+02  0.41800000000E+01 0.  1.
        -11    1    1    2    0    0 -0.17957612697E+01  0.89218938091E+02  0.56469363487E+02  0.10560318501E+03  0.00000000000E+00 0.  1.
         11    1    1    2    0    0 -0.24529242030E+01  0.26728300894E+02 -0.33352594425E+02  0.42811382373E+02  0.00000000000E+00 0. -1.
</event>
<event>
 6    1  0.6981059E-006  0.1763547E+03  0.7561462E-02  0.1171378E+00
          2   -1    0    0  501    0  0.00000000000E+00  0.00000000000E+00  0.99428842307E+03  0.99428842307E+03  0.00000000000E+00 0. -1.
         -2   -1    0    0    0  501 -0.00000000000E+00 -0.00000000000E+00 -0.34114709817E+02  0.34114709817E+02  0.00000000000E+00 0.  1.
          5    1    1    2  502    0 -0.10526349000E+03 -0.12441321979E+03  0.37104262409E+03  0.40527663747E+03  0.41800000000E+01 0. -1.
         -5    1    1    2    0  502  0.28283456509E+02 -0.30281687451E+01  0.38144306074E+02  0.47765931415E+02  0.41800000000E+01 0. -1.
        -11    1    1    2    0    0  0.51573925912E+02  0.28790404214E+02  0.14026421792E+03  0.15219332455E+03  0.00000000000E+00 0.  1.
         11    1    1    2    0    0  0.25406107578E+02  0.98650984320E+02  0.41072256518E+03  0.42316723946E+03  0.00000000000E+00 0. -1.
</event>
<event>
 6    1  0.6981059E-006  0.8545888E+02  0.7561462E-02  0.1314237E+00
          2   -1    0    0  501    0  0.00000000000E+00  0.00000000000E+00  0.42143375673E+02  0.42143375673E+02  0.00000000000E+00 0. -1.
         -2   -1    0    0    0  501 -0.00000000000E+00 -0.00000000000E+00 -0.28199585427E+03  0.28199585427E+03  0.00000000000E+00 0.  1.
          5    1    1    2  502    0 -0.17754118988E+02 -0.49441375587E+02 -0.11597880366E+03  0.12739000612E+03  0.41800000000E+01 0. -1.
         -5    1    1    2    0  502  0.70480746587E+01  0.62006753599E+02 -0.44419496380E+02  0.76714254913E+02  0.41800000000E+01 0. -1.
        -11    1    1    2    0    0  0.30875865995E+02 -0.16672365374E+02 -0.90221618700E+02  0.96805099808E+02  0.00000000000E+00 0.  1.
         11    1    1    2    0    0 -0.20169821666E+02  0.41069873622E+01  0.10767440143E+02  0.23229869101E+02  0.00000000000E+00 0. -1.
</event>
<event>
 6    1  0.6981059E-006  0.1381901E+03  0.7561462E-02  0.1215785E+00
          2   -1    0    0  501    0  0.00000000000E+00  0.00000000000E+00  0.10951591330E+04  0.10951591330E+04  0.00000000000E+00 0. -1.
         -2   -1    0    0    0  501 -0.00000000000E+00 -0.00000000000E+00 -0.19401219676E+02  0.19401219676E+02  0.00000000000E+00 0.  1.
          5    1    1    2  502    0 -0.71868242405E+02 -0.14876890221E+02  0.16798220631E+03  0.18336264659E+03  0.41800000000E+01 0.  1.
         -5    1    1    2    0  502  0.35580629276E+02 -0.68522164488E+02  0.28456997913E+03  0.29488779837E+03  0.41800000000E+01 0.  1.
        -11    1    1    2    0    0  0.51377904253E+02  0.12253784923E+02  0.19773127034E+03  0.20466435830E+03  0.00000000000E+00 0.  1.
         11    1    1    2    0    0 -0.15090291124E+02  0.71145269786E+02  0.42547445752E+03  0.43164554939E+03  0.00000000000E+00 0. -1.
</event>
<event>
 6    1  0.6981059E-006  0.1218571E+03  0.7561462E-02  0.1240064E+00
         -2   -1    0    0    0  501 -0.00000000000E+00  0.00000000000E+00  0.55287414969E+02  0.55287414969E+02  0.00000000000E+00 0.  1.
          2   -1    0    0  501    0  0.00000000000E+00 -0.00000000000E+00 -0.40984037861E+03  0.40984037861E+03  0.00000000000E+00 0. -1.
          5    1    1    2  502    0  0.52978760176E+02 -0.71301107612E+02 -0.13117831961E+03  0.15847971767E+03  0.41800000000E+01 0.  1.
         -5    1    1    2    0  502 -0.23202230342E+02 -0.12324358378E+02  0.18019120936E+02  0.32130895125E+02  0.41800000000E+01 0.  1.
        -11    1    1    2    0    0  0.33683323270E+02  0.29678852227E+02 -0.60196399442E+02  0.75093322219E+02  0.00000000000E+00 0.  1.
         11    1    1    2    0    0 -0.63459853105E+02  0.53946613762E+02 -0.18119736553E+03  0.19942385857E+03  0.00000000000E+00 0. -1.
</event>
<event>
 6    1  0.9000611E-006  0.1240580E+03  0.7561462E-02  0.1236549E+00
          1   -1    0    0  501    0  0.00000000000E+00  0.00000000000E+00  0.85475682081E+03  0.85475682081E+03  0.00000000000E+00 0. -1.
         -1   -1    0    0    0  501 -0.00000000000E+00 -0.00000000000E+00 -0.19343564177E+02  0.19343564177E+02  0.00000000000E+00 0.  1.
          5    1    1    2  502    0  0.66872183684E+02 -0.13096716259E+02  0.14490287278E+03  0.16018029800E+03  0.41800000000E+01 0. -1.
         -5    1    1    2    0  502 -0.27843363891E+02  0.63283946628E+02  0.22611191466E+03  0.23648294053E+03  0.41800000000E+01 0. -1.
        -11    1    1    2    0    0 -0.56158284261E+02  0.14495358425E+01  0.22034813506E+03  0.22739647022E+03  0.00000000000E+00 0. -1.
         11    1    1    2    0    0  0.17129464468E+02 -0.51636766212E+02  0.24405033414E+03  0.25004067624E+03  0.00000000000E+00 0.  1.
</event>
<event>
 6    1  0.6981059E-006  0.2443312E+03  0.7561462E-02  0.1116941E+00
         -2   -1    0    0    0  501 -0.00000000000E+00  0.00000000000E+00  0.26419408143E+03  0.26419408143E+03  0.00000000000E+00 0.  1.
          2   -1    0    0  501    0  0.00000000000E+00 -0.00000000000E+00 -0.26598992072E+03  0.26598992072E+03  0.00000000000E+00 0. -1.
          5    1    1    2  502    0 -0.77477396814E+02  0.18174570095E+03  0.38751073360E+02  0.20137866053E+03  0.41800000000E+01 0. -1.
         -5    1    1    2    0  502  0.80710404599E+02  0.24317695237E+02 -0.58060064634E+02  0.10244004694E+03  0.41800000000E+01 0.  1.
        -11    1    1    2    0    0 -0.70662228054E+01 -0.45935634760E+02  0.44019208803E+02  0.64013317280E+02  0.00000000000E+00 0.  1.
         11    1    1    2    0    0  0.38332150205E+01 -0.16012776143E+03 -0.26506056824E+02  0.16235197740E+03  0.00000000000E+00 0. -1.
</event>
<event>
 6    1  0.6981059E-006  0.7004551E+02  0.7561462E-02  0.1359938E+00
         -2   -1    0    0    0  501 -0.00000000000E+00  0.00000000000E+00  0.26152231476E+02  0.26152231476E+02  0.00000000000E+00 0.  1.
          2   -1    0    0  501    0  0.00000000000E+00 -0.00000000000E+00 -0.51531889644E+03  0.51531889644E+03  0.00000000000E+00 0. -1.
          5    1    1    2  502    0  0.12829031548E+02 -0.23549898226E+02  0.87240818338E+01  0.28509011922E+02  0.41800000000E+01 0. -1.
         -5    1    1    2    0  502 -0.10023784880E+01  0.20806681866E+02 -0.19527500980E+03  0.19642740294E+03  0.41800000000E+01 0. -1.
        -11    1    1    2    0    0 -0.12791450753E+02  0.46351762766E+02 -0.13391455181E+03  0.14228567851E+03  0.00000000000E+00 0.  1.
         11    1    1    2    0    0  0.96479769319E+00 -0.43608546406E+02 -0.16870118519E+03  0.17424903454E+03  0.00000000000E+00 0. -1.
</event>
<event>
 6    1  0.6981059E-006  0.6634414E+02  0.7561462E-02  0.1372986E+00
         -2   -1    0    0    0  501 -0.00000000000E+00  0.00000000000E+00  0.48956470219E+03  0.48956470219E+03  0.00000000000E+00 0.  1.
          2   -1    0    0  501    0  0.00000000000E+00 -0.00000000000E+00 -0.45410732127E+02  0.45410732127E+02  0.00000000000E+00 0. -1.
          5    1    1    2  502    0  0.15957084341E+02 -0.28742447147E+02  0.37697612833E+03  0.37842995460E+03  0.41800000000E+01 0. -1.
         -5    1    1    2    0  502  0.21752728985E+02  0.33535289213E+02  0.33366685902E+02  0.52236050473E+02  0.41800000000E+01 0. -1.
        -11    1    1    2    0    0  0.68888131770E+01 -0.12333252953E+02 -0.25839441010E+02  0.29448965807E+02  0.00000000000E+00 0. -1.
         11    1    1    2    0    0 -0.44598626504E+02  0.75404108867E+01  0.59650596842E+02  0.74860463436E+02  0.00000000000E+00 0.  1.
</event>
<event>
 6    1  0.6981059E-006  0.1753368E+03  0.7561462E-02  0.1172394E+00
          1   -1    0    0  501    0  0.00000000000E+00  0.00000000000E+00  0.76839879678E+02  0.76839879678E+02  0.00000000000E+00 0. -1.
         -1   -1    0    0    0  501 -0.00000000000E+00 -0.00000000000E+00 -0.13380396294E+04  0.13380396294E+04  0.00000000000E+00 0.  1.
          5    1    1    2  502    0  0.57846241867E+02 -0.35797509385E+02 -0.16937362345E+03  0.18257202989E+03  0.41800000000E+01 0. -1.
         -5    1    1    2    0  502  0.91082624547E+02 -0.31022338878E+02 -0.10288948422E+04  0.10333927128E+04  0.41800000000E+01 0.  1.
        -11    1    1    2    0    0 -0.99089732947E+02 -0.45078371619E+01 -0.17397678820E+02  0.10070638013E+03  0.00000000000E+00 0.  1.
         11    1    1    2    0    0 -0.49839133467E+02  0.71327685425E+02 -0.45533605191E+02  0.98208386274E+02  0.00000000000E+00 0. -1.
</event>
<event>
 6    1  0.6981059E-006  0.9828060E+02  0.7561462E-02  0.1283954E+00
          4   -1    0    0  501    0  0.00000000000E+00  0.00000000000E+00  0.28728279171E+02  0.28728279171E+02  0.00000000000E+00 0. -1.
         -4   -1    0    0    0  501 -0.00000000000E+00 -0.00000000000E+00 -0.47136030312E+03  0.47136030312E+03  0.00000000000E+00 0.  1.
          5    1    1    2  502    0  0.49138221638E+02  0.27267622628E+02 -0.87883524256E+02  0.10439863172E+03  0.41800000000E+01 0. -1.
         -5    1    1    2    0  502 -0.57593309342E+02 -0.77295033386E+01 -0.24544663185E+03  0.25226624029E+03  0.41800000000E+01 0. -1.
        -11    1    1    2    0    0 -0.24684904970E+02  0.18979027004E+02 -0.77397288630E+02  0.83425944925E+02  0.00000000000E+00 0.  1.
         11    1    1    2    0    0  0.33139992675E+02 -0.38517146293E+02 -0.31904579214E+02  0.59997765357E+02  0.00000000000E+00 0. -1.
</event>
<event>
 6    1  0.6981059E-006  0.1683386E+03  0.7561462E-02  0.1179592E+00
          2   -1    0    0  501    0  0.00000000000E+00  0.00000000000E+00  0.73343343011E+02  0.73343343011E+02  0.00000000000E+00 0. -1.
         -2   -1    0    0    0  501 -0.00000000000E+00 -0.00000000000E+00 -0.60835188036E+03  0.60835188036E+03  0.00000000000E+00 0.  1.
          5    1    1    2  502    0 -0.57960021603E+02 -0.27047146710E+02 -0.28951250724E+03  0.29652297803E+03  0.41800000000E+01 0.  1.
         -5    1    1    2    0  502 -0.10648856891E+03  0.11555416529E+02 -0.11041214359E+03  0.15388845574E+03  0.41800000000E+01 0.  1.
        -11    1    1    2    0    0  0.12800848923E+03  0.15513916276E+02 -0.14447918364E+03  0.19365198016E+03  0.00000000000E+00 0.  1.
         11    1    1    2    0    0  0.36440101286E+02 -0.22186094851E-01  0.93952971240E+01  0.37631809444E+02  0.00000000000E+00 0. -1.
</event>
<event>
 6    1  0.6981059E-006  0.1124644E+03  0.7561462E-02  0.1256073E+00
         -1   -1    0    0    0  501 -0.00000000000E+00  0.00000000000E+00  0.62808115914E+02  0.62808115914E+02  0.00000000000E+00 0.  1.
          1   -1    0    0  501    0  0.00000000000E+00 -0.00000000000E+00 -0.25048472356E+03  0.25048472356E+03  0.00000000000E+00 0. -1.
          5    1    1    2  502    0  0.38516595649E+02 -0.12016487459E+02 -0.50363009690E+02  0.64667064695E+02  0.41800000000E+01 0.  1.
         -5    1    1    2    0  502 -0.95524515877E+02 -0.16867472014E+02 -0.61925197336E+02  0.11515922547E+03  0.41800000000E+01 0.  1.
        -11    1    1    2    0    0  0.21529191105E+02 -0.18288066032E+02 -0.68432048524E+02  0.74033132407E+02  0.00000000000E+00 0. -1.
         11    1    1    2    0    0  0.35478729123E+02  0.47172025505E+02 -0.69563520976E+01  0.59433416904E+02  0.00000000000E+00 0.  1.
</event>
<event>
 6    1  0.6981059E-006  0.1007672E+03  0.7561462E-02  0.1278691E+00
         -2   -1    0    0    0  501 -0.00000000000E+00  0.00000000000E+00  0.21406982613E+02  0.21406982613E+02  0.00000000000E+00 0.  1.
          2   -1    0    0  501    0  0.00000000000E+00 -0.00000000000E+00 -0.55495819560E+03  0.55495819560E+03  0.00000000000E+00 0. -1.
          5    1    1    2  502    0  0.76853448332E+01 -0.52940252246E+02 -0.62970045941E+02  0.82731094026E+02  0.41800000000E+01 0. -1.
         -5    1    1    2    0  502  0.59693384266E+01  0.61860752561E+02 -0.18993354635E+03  0.19988649314E+03  0.41800000000E+01 0. -1.
        -11    1    1    2    0    0  0.20103747866E+02 -0.36715456407E+02 -0.11344206035E+03  0.12091851171E+03  0.00000000000E+00 0. -1.
         11    1    1    2    0    0 -0.33758431125E+02  0.27794956091E+02 -0.16720556034E+03  0.17282907934E+03  0.00000000000E+00 0.  1.
</event>
<event>
 6    1  0.6981059E-006  0.1135109E+03  0.7561462E-02  0.1254203E+00
         -2   -1    0    0    0  501 -0.00000000000E+00  0.00000000000E+00  0.30619080533E+03  0.30619080533E+03  0.00000000000E+00 0.  1.
          2   -1    0    0  501    0  0.00000000000E+00 -0.00000000000E+00 -0.74614247248E+02  0.74614247248E+02  0.00000000000E+00 0. -1.
          5    1    1    2  502    0 -0.69581960748E+01 -0.59050496799E+01 -0.17313561515E+02  0.20012943728E+02  0.41800000000E+01 0. -1.
         -5    1    1    2    0  502 -0.76160797415E+02  0.44802432559E+02  0.20651073951E+03  0.22465948224E+03  0.41800000000E+01 0. -1.
        -11    1    1    2    0    0  0.18249063664E+02  0.29225736129E+02  0.18379207619E+02  0.39050829052E+02  0.00000000000E+00 0. -1.
         11    1    1    2    0    0  0.64869929826E+02 -0.68123119008E+02  0.24000172467E+02  0.97081797560E+02  0.00000000000E+00 0.  1.
</event>
<event>
 6    1  0.6981059E-006  0.6716659E+02  0.7561462E-02  0.1370002E+00
         -1   -1    0    0    0  501 -0.00000000000E+00  0.00000000000E+00  0.35270866405E+02  0.35270866405E+02  0.00000000000E+00 0.  1.
          1   -1    0    0  501    0  0.00000000000E+00 -0.00000000000E+00 -0.43816419870E+03  0.43816419870E+03  0.00000000000E+00 0. -1.
          5    1    1    2  502    0 -0.18167937745E+02  0.33149839798E+02 -0.21087139957E+03  0.21427366940E+03  0.41800000000E+01 0. -1.
         -5    1    1    2    0  502 -0.17887640396E+00  0.22314477723E+02  0.13633082709E+02  0.26482093138E+02  0.41800000000E+01 0. -1.
        -11    1    1    2    0    0 -0.12218627613E+02 -0.34323085453E+02 -0.16654032147E+02  0.40059029476E+02  0.00000000000E+00 0.  1.
         11    1    1    2    0    0  0.30565441762E+02 -0.21141232068E+02 -0.18900098328E+03  0.19262027309E+03  0.00000000000E+00 0. -1.
</event>
<event>
 6    1  0.6981059E-006  0.1516988E+03  0.7561462E-02  0.1198401E+00
         -1   -1    0    0    0  501 -0.00000000000E+00  0.00000000000E+00  0.11012001170E+03  0.11012001170E+03  0.00000000000E+00 0.  1.
          1   -1    0    0  501    0  0.00000000000E+00 -0.00000000000E+00 -0.42089424124E+03  0.42089424124E+03  0.00000000000E+00 0. -1.
          5    1    1    2  502    0 -0.10677429102E+03  0.37727560678E+02 -0.67129327212E+01  0.11351939888E+03  0.41800000000E+01 0. -1.
         -5    1    1    2    0  502  0.26301009408E+02  0.42519202987E+02  0.26214468276E+02  0.56606505506E+02  0.41800000000E+01 0. -1.
        -11    1    1    2    0    0 -0.26156418786E+01 -0.52120023993E+02 -0.78450534096E+02  0.94222209608E+02  0.00000000000E+00 0.  1.
         11    1    1    2    0    0  0.83088923486E+02 -0.28126739671E+02 -0.25182523100E+03  0.26666613894E+03  0.00000000000E+00 0. -1.
</event>
<event>
 6    1  0.6981059E-006  0.1065427E+03  0.7561462E-02  0.1267109E+00
          2   -1    0    0  501    0  0.00000000000E+00  0.00000000000E+00  0.70493723614E+02  0.70493723614E+02  0.00000000000E+00 0. -1.
         -2   -1    0    0    0  501 -0.00000000000E+00 -0.00000000000E+00 -0.23594204864E+03  0.23594204864E+03  0.00000000000E+00 0.  1.
          5    1    1    2  502    0  0.40499609307E+02  0.14147364804E+02 -0.69843951415E+02  0.82073237015E+02  0.41800000000E+01 0. -1.
         -5    1    1    2    0  502 -0.76990443597E+02  0.45260083117E+02 -0.37749777144E+02  0.97049068020E+02  0.41800000000E+01 0. -1.
        -11    1    1    2    0    0 -0.76659600543E+01 -0.19901014639E+02 -0.64270997119E+02  0.67716898909E+02  0.00000000000E+00 0.  1.
         11    1    1    2    0    0  0.44156794344E+02 -0.39506433283E+02  0.64164006481E+01  0.59596568314E+02  0.00000000000E+00 0. -1.
</event>
<event>
 6    1  0.6981059E-006  0.9600191E+02  0.7561462E-02  0.1288935E+00
         -1   -1    0    0    0  501 -0.00000000000E+00  0.00000000000E+00  0.15007795520E+03  0.15007795520E+03  0.00000000000E+00 0.  1.
          1   -1    0    0  501    0  0.00000000000E+00 -0.00000000000E+00 -0.84607543176E+02  0.84607543176E+02  0.00000000000E+00 0. -1.
          5    1    1    2  502    0  0.18054770938E+02 -0.52156633625E+02 -0.40692742048E+01  0.55500635828E+02  0.41800000000E+01 0.  1.
         -5    1    1    2    0  502 -0.16599130272E+02  0.46151198028E+02  0.71199104477E+02  0.86557778874E+02  0.41800000000E+01 0.  1.
        -11    1    1    2    0    0 -0.43293790370E+02 -0.64610587156E+01  0.14445515641E+02  0.46095232795E+02  0.00000000000E+00 0.  1.
         11    1    1    2    0    0  0.41838149704E+02  0.12466494313E+02 -0.16104933885E+02  0.46531850882E+02  0.00000000000E+00 0. -1.
</event>
<event>
 6    1  0.6981059E-006  0.1279308E+03  0.7561462E-02  0.1230559E+00
          2   -1    0    0  501    0  0.00000000000E+00  0.00000000000E+00  0.11983663303E+03  0.11983663303E+03  0.00000000000E+00 0. -1.
         -2   -1    0    0    0  501 -0.00000000000E+00 -0.00000000000E+00 -0.17197881258E+03  0.17197881258E+03  0.00000000000E+00 0.  1.
          5    1    1    2  502    0 -0.33041317882E+02  0.55839545943E+02 -0.66385624472E+00  0.65020740411E+02  0.41800000000E+01 0. -1.
         -5    1    1    2    0  502  0.86859388066E+02  0.20647906536E+02 -0.28963873244E+02  0.93953540076E+02  0.41800000000E+01 0. -1.
        -11    1    1    2    0    0 -0.27394332869E+02 -0.87502280035E+01 -0.47865147169E+02  0.55839844887E+02  0.00000000000E+00 0.  1.
         11    1    1    2    0    0 -0.26423737315E+02 -0.67737224476E+02  0.25350697112E+02  0.77001320232E+02  0.00000000000E+00 0. -1.
</event>
<event>
 6    1  0.6981059E-006  0.1907610E+03  0.7561462E-02  0.1157777E+00
         -1   -1    0    0    0  501 -0.00000000000E+00  0.00000000000E+00  0.56677337730E+02  0.56677337730E+02  0.00000000000E+00 0.  1.
          1   -1    0    0  501    0  0.00000000000E+00 -0.00000000000E+00 -0.68362630715E+03  0.68362630715E+03  0.00000000000E+00 0. -1.
          5    1    1    2  502    0  0.57601462764E+02  0.13272241906E+03 -0.20679682634E+03  0.25241943035E+03  0.41800000000E+01 0. -1.
         -5    1    1    2    0  502 -0.51917701647E+02  0.28938753004E+02 -0.76177346793E+02  0.96712769240E+02  0.41800000000E+01 0. -1.
        -11    1    1    2    0    0  0.33366490537E+02 -0.69196802553E+02 -0.91477443365E+02  0.11945561024E+03  0.00000000000E+00 0. -1.
         11    1    1    2    0    0 -0.39050251655E+02 -0.92464369509E+02 -0.25249735293E+03  0.27171583505E+03  0.00000000000E+00 0.  1.
</event>
<event>
 6    1  0.6981059E-006  0.1095729E+03  0.7561462E-02  0.1261363E+00
          4   -1    0    0  501    0  0.00000000000E+00  0.00000000000E+00  0.40447161467E+03  0.40447161467E+03  0.00000000000E+00 0. -1.
         -4   -1    0    0    0  501 -0.00000000000E+00 -0.00000000000E+00 -0.41016591178E+02  0.41016591178E+02  0.00000000000E+00 0.  1.
          5    1    1    2  502    0 -0.96633872345E+01  0.89989124295E+02  0.95513438877E+02  0.13164996373E+03  0.41800000000E+01 0. -1.
         -5    1    1    2    0  502 -0.66154573932E+01 -0.25344490418E+02  0.14596991311E+03  0.14836035658E+03  0.41800000000E+01 0. -1.
        -11    1    1    2    0    0 -0.13424887230E+02 -0.70479200360E+02  0.50146016072E+02  0.87533811801E+02  0.00000000000E+00 0.  1.
         11    1    1    2    0    0  0.29703731858E+02  0.58345664832E+01  0.71825655427E+02  0.77944073731E+02  0.00000000000E+00 0. -1.
</event>
<event>
 6    1  0.6981059E-006  0.1392901E+03  0.7561462E-02  0.1214287E+00
          1   -1    0    0  501    0  0.00000000000E+00  0.00000000000E+00  0.52575140632E+03  0.52575140632E+03  0.00000000000E+00 0. -1.
         -1   -1    0    0    0  501 -0.00000000000E+00 -0.00000000000E+00 -0.47770017180E+02  0.47770017180E+02  0.00000000000E+00 0.  1.
          5    1    1    2  502    0  0.10711175104E+03 -0.40374131528E+01  0.14488403557E+03  0.18027224988E+03  0.41800000000E+01 0. -1.
         -5    1    1    2    0  502 -0.12605789732E+02  0.34628818378E+02  0.33823232801E+01  0.37242093225E+02  0.41800000000E+01 0.  1.
        -11    1    1    2    0    0 -0.11019312668E+03 -0.38409402808E+02  0.28330988749E+03  0.30640218625E+03  0.00000000000E+00 0.  1.
         11    1    1    2    0    0  0.15687165378E+02  0.78179975832E+01  0.46405142807E+02  0.49604894142E+02  0.00000000000E+00 0. -1.
</event>
<event>
 6    1  0.6981059E-006  0.1676396E+03  0.7561462E-02  0.1180332E+00
         -2   -1    0    0    0  501 -0.00000000000E+00  0.00000000000E+00  0.93128512595E+02  0.93128512595E+02  0.00000000000E+00 0. -1.
          2   -1    0    0  501    0  0.00000000000E+00 -0.00000000000E+00 -0.35346214023E+03  0.35346214023E+03  0.00000000000E+00 0.  1.
          5    1    1    2  502    0 -0.44040168950E+02 -0.37025719444E+02 -0.24006555636E+02  0.62483817865E+02  0.41800000000E+01 0. -1.
         -5    1    1    2    0  502 -0.86503800752E+02  0.10008233398E+03 -0.95890599016E+02  0.16343763489E+03  0.41800000000E+01 0. -1.
        -11    1    1    2    0    0  0.41675686684E+02 -0.15646993602E+02 -0.10473943961E+03  0.11380703616E+03  0.00000000000E+00 0.  1.
         11    1    1    2    0    0  0.88868283019E+02 -0.47409620936E+02 -0.35697033377E+02  0.10686216391E+03  0.00000000000E+00 0. -1.
</event>
<event>
 6    1  0.6981059E-006  0.1091152E+03  0.7561462E-02  0.1262217E+00
         -3   -1    0    0    0  501 -0.00000000000E+00  0.00000000000E+00  0.43477239046E+03  0.43477239046E+03  0.00000000000E+00 0.  1.
          3   -1    0    0  501    0  0.00000000000E+00 -0.00000000000E+00 -0.37876300746E+02  0.37876300746E+02  0.00000000000E+00 0. -1.
          5    1    1    2  502    0  0.15448649506E+02 -0.52015716514E+02  0.13685322994E+03  0.14727720286E+03  0.41800000000E+01 0. -1.
         -5    1    1    2    0  502 -0.73755373344E+02  0.26621780969E+02  0.15136179236E+03  0.17051814832E+03  0.41800000000E+01 0.  1.
        -11    1    1    2    0    0  0.16518012632E+01 -0.15388782473E+02  0.76385489529E+02  0.77937706433E+02  0.00000000000E+00 0.  1.
         11    1    1    2    0    0  0.56654922574E+02  0.40782718018E+02  0.32295577881E+02  0.76915633597E+02  0.00000000000E+00 0. -1.
</event>
<event>
 6    1  0.6981059E-006  0.2236614E+03  0.7561462E-02  0.1131182E+00
         -1   -1    0    0    0  501 -0.00000000000E+00  0.00000000000E+00  0.30084725738E+02  0.30084725738E+02  0.00000000000E+00 0.  1.
          1   -1    0    0  501    0  0.00000000000E+00 -0.00000000000E+00 -0.17142542921E+04  0.17142542921E+04  0.00000000000E+00 0. -1.
          5    1    1    2  502    0 -0.85958159531E+02 -0.17573846522E+03 -0.61372321016E+03  0.64416338334E+03  0.41800000000E+01 0.  1.
         -5    1    1    2    0  502  0.35142700501E+02 -0.23461176004E+02 -0.19681230106E+03  0.20134048383E+03  0.41800000000E+01 0.  1.
        -11    1    1    2    0    0  0.37096312976E+02  0.69685023481E+02 -0.26963690320E+03  0.28095586575E+03  0.00000000000E+00 0.  1.
         11    1    1    2    0    0  0.13719146054E+02  0.12951461775E+03 -0.60399715197E+03  0.61787928494E+03  0.00000000000E+00 0. -1.
</event>
<event>
 6    1  0.6981059E-006  0.9388571E+02  0.7561462E-02  0.1293706E+00
         -1   -1    0    0    0  501 -0.00000000000E+00  0.00000000000E+00  0.20324174681E+03  0.20324174681E+03  0.00000000000E+00 0.  1.
          1   -1    0    0  501    0  0.00000000000E+00 -0.00000000000E+00 -0.58481809849E+02  0.58481809849E+02  0.00000000000E+00 0. -1.
          5    1    1    2  502    0 -0.16407267947E+02 -0.53002871887E+02  0.46868665481E+01  0.55838534972E+02  0.41800000000E+01 0.  1.
         -5    1    1    2    0  502  0.65421233702E+01  0.44696371821E+02  0.91533385193E+02  0.10215869046E+03  0.41800000000E+01 0.  1.
        -11    1    1    2    0    0  0.34668620916E+02  0.35731946908E+02  0.44051137720E+02  0.66476973761E+02  0.00000000000E+00 0.  1.
         11    1    1    2    0    0 -0.24803476339E+02 -0.27425446842E+02  0.44885475032E+01  0.37249357467E+02  0.00000000000E+00 0. -1.
</event>
<event>
 6    1  0.6981059E-006  0.1171727E+03  0.7561462E-02  0.1247835E+00
          2   -1    0    0  501    0  0.00000000000E+00  0.00000000000E+00  0.33914596269E+03  0.33914596269E+03  0.00000000000E+00 0. -1.
         -2   -1    0    0    0  501 -0.00000000000E+00 -0.00000000000E+00 -0.42161552659E+02  0.42161552659E+02  0.00000000000E+00 0.  1.
          5    1    1    2  502    0  0.48895634813E+02  0.44304528888E+02  0.75474568787E+02  0.10033721801E+03  0.41800000000E+01 0. -1.
         -5    1    1    2    0  502 -0.64271705956E+02 -0.67139788212E+01  0.55716433109E+02  0.85426711376E+02  0.41800000000E+01 0. -1.
        -11    1    1    2    0    0  0.53089559750E+02 -0.44621715612E+01  0.79179705126E+02  0.95434993756E+02  0.00000000000E+00 0.  1.
         11    1    1    2    0    0 -0.37713488606E+02 -0.33128378506E+02  0.86613703013E+02  0.10010859221E+03  0.00000000000E+00 0. -1.
</event>
<event>
 6    1  0.6981059E-006  0.1233266E+03  0.7561462E-02  0.1237708E+00
          1   -1    0    0  501    0  0.00000000000E+00  0.00000000000E+00  0.57149555677E+03  0.57149555677E+03  0.00000000000E+00 0. -1.
         -1   -1    0    0    0  501 -0.00000000000E+00 -0.00000000000E+00 -0.31429289518E+02  0.31429289518E+02  0.00000000000E+00 0.  1.
          5    1    1    2  502    0 -0.65156981949E+02  0.15882539865E+02  0.12159602455E+03  0.13892714981E+03  0.41800000000E+01 0.  1.
         -5    1    1    2    0  502  0.18327521765E+02 -0.77785065508E+02  0.14295049704E+03  0.16382530779E+03  0.41800000000E+01 0.  1.
        -11    1    1    2    0    0  0.45095767840E+01  0.56604468477E+02  0.69322098962E+02  0.89610019187E+02  0.00000000000E+00 0.  1.
         11    1    1    2    0    0  0.42319883400E+02  0.52980571657E+01  0.20619764671E+03  0.21056236950E+03  0.00000000000E+00 0. -1.
</event>
<event>
 6    1  0.6981059E-006  0.1171803E+03  0.7561462E-02  0.1247823E+00
         -1   -1    0    0    0  501 -0.00000000000E+00  0.00000000000E+00  0.71184688527E+02  0.71184688527E+02  0.00000000000E+00 0.  1.
          1   -1    0    0  501    0  0.00000000000E+00 -0.00000000000E+00 -0.23867079337E+03  0.23867079337E+03  0.00000000000E+00 0. -1.
          5    1    1    2  502    0 -0.17427893495E+01  0.33293035407E+02 -0.78125326994E+02  0.85044121721E+02  0.41800000000E+01 0.  1.
         -5    1    1    2    0  502  0.72176774081E+02 -0.43402426506E+02 -0.13069432016E+02  0.85331938900E+02  0.41800000000E+01 0.  1.
        -11    1    1    2    0    0 -0.86926747571E+02  0.28739222463E+02 -0.64164085862E+02  0.11179996541E+03  0.00000000000E+00 0.  1.
         11    1    1    2    0    0  0.16492762840E+02 -0.18629831364E+02 -0.12127259972E+02  0.27679455868E+02  0.00000000000E+00 0. -1.
</event>
<event>
 6    1  0.6981059E-006  0.9615728E+02  0.7561462E-02  0.1288591E+00
          2   -1    0    0  501    0  0.00000000000E+00  0.00000000000E+00  0.26466475485E+03  0.26466475485E+03  0.00000000000E+00 0. -1.
         -2   -1    0    0    0  501 -0.00000000000E+00 -0.00000000000E+00 -0.97937673750E+02  0.97937673750E+02  0.00000000000E+00 0.  1.
          5    1    1    2  502    0  0.31064257050E+02 -0.34421147631E+02 -0.67957455987E+02  0.82374096017E+02  0.41800000000E+01 0. -1.
         -5    1    1    2    0  502 -0.22212115260E+02 -0.31773144506E+02  0.46885305682E+02  0.60980448219E+02  0.41800000000E+01 0. -1.
        -11    1    1    2    0    0  0.34356375077E+02  0.98049979100E+01  0.31782209089E+02  0.47818482902E+02  0.00000000000E+00 0.  1.
         11    1    1    2    0    0 -0.43208516867E+02  0.56389294227E+02  0.15601702231E+03  0.17142940146E+03  0.00000000000E+00 0. -1.
</event>
<event>
 6    1  0.6981059E-006  0.9544040E+02  0.7561462E-02  0.1290187E+00
         -2   -1    0    0    0  501 -0.00000000000E+00  0.00000000000E+00  0.11943722387E+02  0.11943722387E+02  0.00000000000E+00 0.  1.
          2   -1    0    0  501    0  0.00000000000E+00 -0.00000000000E+00 -0.11060511486E+04  0.11060511486E+04  0.00000000000E+00 0. -1.
          5    1    1    2  502    0  0.42381843851E+02 -0.33637608757E+02 -0.11002606128E+03  0.12268217463E+03  0.41800000000E+01 0.  1.
         -5    1    1    2    0  502 -0.37654937187E+02 -0.44066398720E+01 -0.48799620680E+03  0.48948450744E+03  0.41800000000E+01 0.  1.
        -11    1    1    2    0    0 -0.12183547266E+02  0.67240925269E+02 -0.32453534555E+03  0.33165188280E+03  0.00000000000E+00 0. -1.
         11    1    1    2    0    0  0.74566406017E+01 -0.29196676640E+02 -0.17154981262E+03  0.17417630616E+03  0.00000000000E+00 0.  1.
</event>
<event>
 6    1  0.6981059E-006  0.9870461E+02  0.7561462E-02  0.1283044E+00
          1   -1    0    0  501    0  0.00000000000E+00  0.00000000000E+00  0.51533768510E+03  0.51533768510E+03  0.00000000000E+00 0. -1.
         -1   -1    0    0    0  501 -0.00000000000E+00 -0.00000000000E+00 -0.23533289992E+02  0.23533289992E+02  0.00000000000E+00 0.  1.
          5    1    1    2  502    0 -0.60320263206E+02  0.40168555792E+01  0.23605605972E+03  0.24371008394E+03  0.41800000000E+01 0. -1.
         -5    1    1    2    0  502  0.42906288018E+02  0.50905011551E+01  0.36093734368E+02  0.56454342740E+02  0.41800000000E+01 0. -1.
        -11    1    1    2    0    0  0.17415808774E+01 -0.49782039603E+02  0.11337400065E+03  0.12383435951E+03  0.00000000000E+00 0. -1.
         11    1    1    2    0    0  0.15672394310E+02  0.40674682869E+02  0.10628060037E+03  0.11487218891E+03  0.00000000000E+00 0.  1.
</event>
<event>
 6    1  0.6981059E-006  0.1025186E+03  0.7561462E-02  0.1275087E+00
          1   -1    0    0  501    0  0.00000000000E+00  0.00000000000E+00  0.18864668119E+03  0.18864668119E+03  0.00000000000E+00 0. -1.
         -1   -1    0    0    0  501 -0.00000000000E+00 -0.00000000000E+00 -0.11651659705E+03  0.11651659705E+03  0.00000000000E+00 0.  1.
          5    1    1    2  502    0  0.84841984086E+02  0.20374044589E+02 -0.57304143738E+02  0.10447249038E+03  0.41800000000E+01 0.  1.
         -5    1    1    2    0  502  0.19751449757E+01 -0.87767607850E+01  0.47465518056E+02  0.48491035582E+02  0.41800000000E+01 0.  1.
        -11    1    1    2    0    0 -0.81183340602E+02  0.13274373745E+02  0.93220389563E+02  0.12432612284E+03  0.00000000000E+00 0. -1.
         11    1    1    2    0    0 -0.56337884594E+01 -0.24871657549E+02 -0.11251679741E+02  0.27873629448E+02  0.00000000000E+00 0.  1.
</event>
<event>
 6    1  0.6981059E-006  0.1028715E+03  0.7561462E-02  0.1274371E+00
         -1   -1    0    0    0  501 -0.00000000000E+00  0.00000000000E+00  0.86173945311E+02  0.86173945311E+02  0.00000000000E+00 0.  1.
          1   -1    0    0  501    0  0.00000000000E+00 -0.00000000000E+00 -0.25268404970E+03  0.25268404970E+03  0.00000000000E+00 0. -1.
          5    1    1    2  502    0 -0.43097581817E+02  0.14282781398E+02  0.32535159608E+02  0.56012573710E+02  0.41800000000E+01 0.  1.
         -5    1    1    2    0  502  0.72861443996E+02  0.12234355224E+02 -0.17785078501E+02  0.76106838630E+02  0.41800000000E+01 0.  1.
        -11    1    1    2    0    0 -0.28388412400E+02  0.23046720554E+02 -0.29186121159E+02  0.46785499412E+02  0.00000000000E+00 0.  1.
         11    1    1    2    0    0 -0.13754497786E+01 -0.49563857176E+02 -0.15207406434E+03  0.15995308326E+03  0.00000000000E+00 0. -1.
</event>
<event>
 6    1  0.6981059E-006  0.1636517E+03  0.7561462E-02  0.1184635E+00
          3   -1    0    0  501    0  0.00000000000E+00  0.00000000000E+00  0.64592443724E+03  0.64592443724E+03  0.00000000000E+00 0. -1.
         -3   -1    0    0    0  501 -0.00000000000E+00 -0.00000000000E+00 -0.11972875119E+03  0.11972875119E+03  0.00000000000E+00 0.  1.
          5    1    1    2  502    0 -0.35092176370E+02 -0.13948953324E+03 -0.35716552710E+02  0.14826306102E+03  0.41800000000E+01 0.  1.
         -5    1    1    2    0  502  0.40329441048E+02 -0.27296219460E+01  0.12780570479E+02  0.42599648272E+02  0.41800000000E+01 0.  1.
        -11    1    1    2    0    0  0.35968849322E+01  0.49452071535E+02  0.64895073173E+02  0.81668938296E+02  0.00000000000E+00 0.  1.
         11    1    1    2    0    0 -0.88341496096E+01  0.92767083650E+02  0.48423659511E+03  0.49312154085E+03  0.00000000000E+00 0. -1.
</event>
<event>
 6    1  0.6981059E-006  0.1419569E+03  0.7561462E-02  0.1210720E+00
         -1   -1    0    0    0  501 -0.00000000000E+00  0.00000000000E+00  0.59114485884E+02  0.59114485884E+02  0.00000000000E+00 0.  1.
          1   -1    0    0  501    0  0.00000000000E+00 -0.00000000000E+00 -0.36145943244E+03  0.36145943244E+03  0.00000000000E+00 0. -1.
          5    1    1    2  502    0  0.21833713797E+02 -0.19988959321E+02 -0.77811633136E+01  0.30891559614E+02  0.41800000000E+01 0.  1.
         -5    1    1    2    0  502 -0.40889063231E+02  0.11516591706E+03 -0.13730939856E+03  0.18386529655E+03  0.41800000000E+01 0.  1.
        -11    1    1    2    0    0  0.49930733465E+02 -0.26698835228E+02 -0.80532529231E+02  0.98444879050E+02  0.00000000000E+00 0. -1.
         11    1    1    2    0    0 -0.30875384030E+02 -0.68478122507E+02 -0.76721855448E+02  0.10737218310E+03  0.00000000000E+00 0.  1.
</event>
<event>
 6    1  0.6981059E-006  0.1357527E+03  0.7561462E-02  0.1219161E+00
          2   -1    0    0  501    0  0.00000000000E+00  0.00000000000E+00  0.17177507037E+03  0.17177507037E+03  0.00000000000E+00 0. -1.
         -2   -1    0    0    0  501 -0.00000000000E+00 -0.00000000000E+00 -0.11735752581E+03  0.11735752581E+03  0.00000000000E+00 0.  1.
          5    1    1    2  502    0 -0.10435726096E+03 -0.31925531538E+02  0.61229095479E+01  0.10938299639E+03  0.41800000000E+01 0.  1.
         -5    1    1    2    0  502  0.18699765647E+02  0.37219207732E+02 -0.56694701061E+01  0.42244123269E+02  0.41800000000E+01 0.  1.
        -11    1    1    2    0    0 -0.13313158370E+02  0.14302705568E+02 -0.56207582235E+01  0.20332252590E+02  0.00000000000E+00 0.  1.
         11    1    1    2    0    0  0.98970653679E+02 -0.19596381762E+02  0.59584863344E+02  0.11717322394E+03  0.00000000000E+00 0. -1.
</event>
<event>
 6    1  0.6981059E-006  0.1125872E+03  0.7561462E-02  0.1255852E+00
         -2   -1    0    0    0  501 -0.00000000000E+00  0.00000000000E+00  0.14780425303E+02  0.14780425303E+02  0.00000000000E+00 0.  1.
          2   -1    0    0  501    0  0.00000000000E+00 -0.00000000000E+00 -0.87004814837E+03  0.87004814837E+03  0.00000000000E+00 0. -1.
          5    1    1    2  502    0 -0.65069140249E+02  0.48522322398E+02 -0.26118562726E+03  0.27353941776E+03  0.41800000000E+01 0. -1.
         -5    1    1    2    0  502  0.38382610283E+02 -0.27297817912E+02 -0.20108034606E+03  0.20656518005E+03  0.41800000000E+01 0. -1.
        -11    1    1    2    0    0  0.40127023806E+02 -0.50439732206E+02 -0.27021991165E+03  0.27780054945E+03  0.00000000000E+00 0.  1.
         11    1    1    2    0    0 -0.13440493840E+02  0.29215227720E+02 -0.12278183810E+03  0.12692342641E+03  0.00000000000E+00 0. -1.
</event>
<event>
 6    1  0.6981059E-006  0.1178381E+03  0.7561462E-02  0.1246707E+00
         -2   -1    0    0    0  501 -0.00000000000E+00  0.00000000000E+00  0.44916502193E+02  0.44916502193E+02  0.00000000000E+00 0.  1.
          2   -1    0    0  501    0  0.00000000000E+00 -0.00000000000E+00 -0.34400861717E+03  0.34400861717E+03  0.00000000000E+00 0. -1.
          5    1    1    2  502    0  0.79328316337E+02  0.22133775043E+02 -0.14178142093E+03  0.16401929610E+03  0.41800000000E+01 0. -1.
         -5    1    1    2    0  502 -0.22051018472E+02 -0.37331965050E+02 -0.17347740952E+02  0.46886453761E+02  0.41800000000E+01 0. -1.
        -11    1    1    2    0    0 -0.67965366033E+01 -0.36658237329E+02 -0.40979863637E+02  0.55401881716E+02  0.00000000000E+00 0.  1.
         11    1    1    2    0    0 -0.50480761261E+02  0.51856427336E+02 -0.98983089454E+02  0.12261748779E+03  0.00000000000E+00 0. -1.
</event>
<event>
 6    1  0.6981059E-006  0.1378623E+03  0.7561462E-02  0.1216235E+00
         -2   -1    0    0    0  501 -0.00000000000E+00  0.00000000000E+00  0.23204720863E+02  0.23204720863E+02  0.00000000000E+00 0. -1.
          2   -1    0    0  501    0  0.00000000000E+00 -0.00000000000E+00 -0.86431055091E+03  0.86431055091E+03  0.00000000000E+00 0.  1.
          5    1    1    2  502    0 -0.56681809878E+02 -0.29731095885E+02 -0.23053739852E+03  0.23929423343E+03  0.41800000000E+01 0. -1.
         -5    1    1    2    0  502  0.67320276748E+02 -0.57944133519E+02 -0.30057325689E+03  0.31345062997E+03  0.41800000000E+01 0. -1.
        -11    1    1    2    0    0 -0.24651897578E+02 -0.80364823085E+01 -0.10415775524E+03  0.10733656916E+03  0.00000000000E+00 0.  1.
         11    1    1    2    0    0  0.14013430708E+02  0.95711711712E+02 -0.20583741939E+03  0.22743383922E+03  0.00000000000E+00 0. -1.
</event>
<event>
 6    1  0.6981059E-006  0.1682332E+03  0.7561462E-02  0.1179703E+00
          2   -1    0    0  501    0  0.00000000000E+00  0.00000000000E+00  0.21340033003E+04  0.21340033003E+04  0.00000000000E+00 0. -1.
         -2   -1    0    0    0  501 -0.00000000000E+00 -0.00000000000E+00 -0.13765748687E+02  0.13765748687E+02  0.00000000000E+00 0.  1.
          5    1    1    2  502    0 -0.80336653227E+02 -0.84003913151E+02  0.91691720034E+03  0.92426471314E+03  0.41800000000E+01 0.  1.
         -5    1    1    2    0  502  0.47256283191E+02 -0.40576198772E+02  0.39859471052E+03  0.40345359072E+03  0.41800000000E+01 0.  1.
        -11    1    1    2    0    0  0.64099730579E+02  0.69727866111E+02  0.49488028092E+03  0.50386232566E+03  0.00000000000E+00 0.  1.
         11    1    1    2    0    0 -0.31019360543E+02  0.54852245813E+02  0.30984535979E+03  0.31618841943E+03  0.00000000000E+00 0. -1.
</event>
<event>
 6    1  0.6981059E-006  0.1172318E+03  0.7561462E-02  0.1247735E+00
          2   -1    0    0  501    0  0.00000000000E+00  0.00000000000E+00  0.40031358125E+02  0.40031358125E+02  0.00000000000E+00 0. -1.
         -2   -1    0    0    0  501 -0.00000000000E+00 -0.00000000000E+00 -0.44192283620E+03  0.44192283620E+03  0.00000000000E+00 0.  1.
          5    1    1    2  502    0 -0.71956067874E+02 -0.25267896803E+02 -0.18602185971E+03  0.20109138968E+03  0.41800000000E+01 0. -1.
         -5    1    1    2    0  502  0.43073648050E+02 -0.43877589453E+02 -0.67719325021E+02  0.91563974322E+02  0.41800000000E+01 0. -1.
        -11    1    1    2    0    0  0.13242124101E+02 -0.94835135094E+01 -0.86888994356E+02  0.88402422022E+02  0.00000000000E+00 0.  1.
         11    1    1    2    0    0  0.15640295723E+02  0.78628999765E+02 -0.61261298988E+02  0.10089640830E+03  0.00000000000E+00 0. -1.
</event>
<event>
 6    1  0.6981059E-006  0.5461664E+02  0.7561462E-02  0.1421921E+00
          2   -1    0    0  501    0  0.00000000000E+00  0.00000000000E+00  0.14031186313E+03  0.14031186313E+03  0.00000000000E+00 0. -1.
         -2   -1    0    0    0  501 -0.00000000000E+00 -0.00000000000E+00 -0.98902759202E+02  0.98902759202E+02  0.00000000000E+00 0.  1.
          5    1    1    2  502    0 -0.14514527449E+02 -0.81595149036E+01  0.53486768278E+02  0.56174335522E+02  0.41800000000E+01 0.  1.
         -5    1    1    2    0  502 -0.39071229121E+01 -0.32383600922E+01 -0.71819543581E+02  0.72119843495E+02  0.41800000000E+01 0.  1.
        -11    1    1    2    0    0 -0.27795137944E+02  0.24926642296E+02  0.44524185417E+01  0.37599617290E+02  0.00000000000E+00 0.  1.
         11    1    1    2    0    0  0.46216788305E+02 -0.13528767300E+02  0.55289460694E+02  0.73320826030E+02  0.00000000000E+00 0. -1.
</event>
<event>
 6    1  0.6981059E-006  0.8334277E+02  0.7561462E-02  0.1319824E+00
         -2   -1    0    0    0  501 -0.00000000000E+00  0.00000000000E+00  0.12435940793E+03  0.12435940793E+03  0.00000000000E+00 0.  1.
          2   -1    0    0  501    0  0.00000000000E+00 -0.00000000000E+00 -0.93975981186E+02  0.93975981186E+02  0.00000000000E+00 0. -1.
          5    1    1    2  502    0 -0.31431730818E+02 -0.33802434272E+02 -0.38381215393E+02  0.60175978264E+02  0.41800000000E+01 0.  1.
         -5    1    1    2    0  502  0.26338183592E+02  0.22109774158E+02  0.57325105960E+02  0.66978968352E+02  0.41800000000E+01 0.  1.
        -11    1    1    2    0    0 -0.39842981485E+02  0.32557661966E+01 -0.91926284651E+01  0.41019112682E+02  0.00000000000E+00 0. -1.
         11    1    1    2    0    0  0.44936528711E+02  0.84368939172E+01  0.20632164647E+02  0.50161329822E+02  0.00000000000E+00 0.  1.
</event>
<event>
 6    1  0.6981059E-006  0.1414701E+03  0.7561462E-02  0.1211364E+00
          1   -1    0    0  501    0  0.00000000000E+00  0.00000000000E+00  0.88772528914E+02  0.88772528914E+02  0.00000000000E+00 0. -1.
         -1   -1    0    0    0  501 -0.00000000000E+00 -0.00000000000E+00 -0.26002012764E+03  0.26002012764E+03  0.00000000000E+00 0.  1.
          5    1    1    2  502    0 -0.67289825760E+02 -0.65689235123E+01 -0.10125228131E+03  0.12182187109E+03  0.41800000000E+01 0. -1.
         -5    1    1    2    0  502  0.17248153005E+02 -0.78703204158E+02 -0.35118744966E+02  0.87991430121E+02  0.41800000000E+01 0. -1.
        -11    1    1    2    0    0 -0.57516254563E+01 -0.17040725345E+02 -0.40836047144E+01  0.18442975441E+02  0.00000000000E+00 0. -1.
         11    1    1    2    0    0  0.55793298211E+02  0.10231285301E+03 -0.30792967740E+02  0.12053637990E+03  0.00000000000E+00 0.  1.
</event>
<event>
 6    1  0.6981059E-006  0.8898862E+02  0.7561462E-02  0.1305320E+00
          1   -1    0    0  501    0  0.00000000000E+00  0.00000000000E+00  0.16666937999E+03  0.16666937999E+03  0.00000000000E+00 0. -1.
         -1   -1    0    0    0  501 -0.00000000000E+00 -0.00000000000E+00 -0.79588122984E+02  0.79588122984E+02  0.00000000000E+00 0.  1.
          5    1    1    2  502    0  0.48285201394E+02 -0.30870505742E+02 -0.28685269497E+02  0.64224340281E+02  0.41800000000E+01 0.  1.
         -5    1    1    2    0  502 -0.19077299824E+02  0.83029990221E+01  0.69139000998E+02  0.72322589972E+02  0.41800000000E+01 0.  1.
        -11    1    1    2    0    0  0.32562193641E+02 -0.24391069640E+01  0.16253423682E+02  0.36474915748E+02  0.00000000000E+00 0.  1.
         11    1    1    2    0    0 -0.61770095211E+02  0.25006613683E+02  0.30374101819E+02  0.73235656968E+02  0.00000000000E+00 0. -1.
</event>
<event>
 6    1  0.6981059E-006  0.1480133E+03  0.7561462E-02  0.1202936E+00
          2   -1    0    0  501    0  0.00000000000E+00  0.00000000000E+00  0.78558033464E+02  0.78558033464E+02  0.00000000000E+00 0. -1.
         -2   -1    0    0    0  501 -0.00000000000E+00 -0.00000000000E+00 -0.45634362489E+03  0.45634362489E+03  0.00000000000E+00 0.  1.
          5    1    1    2  502    0  0.84940696492E+02 -0.39913416498E+02 -0.27219652602E+03  0.28795212087E+03  0.41800000000E+01 0.  1.
         -5    1    1    2    0  502  0.49944584595E+02 -0.94651272502E+01 -0.91678843992E+01  0.51822511214E+02  0.41800000000E+01 0.  1.
        -11    1    1    2    0    0 -0.41369518846E+02  0.39230113876E+02  0.44703168406E+01  0.57187609296E+02  0.00000000000E+00 0. -1.
         11    1    1    2    0    0 -0.93515762241E+02  0.10148429872E+02 -0.10089149784E+03  0.13793941697E+03  0.00000000000E+00 0.  1.
</event>
<event>
 6    1  0.6981059E-006  0.1223644E+03  0.7561462E-02  0.1239247E+00
         -2   -1    0    0    0  501 -0.00000000000E+00  0.00000000000E+00  0.29037053736E+02  0.29037053736E+02  0.00000000000E+00 0.  1.
          2   -1    0    0  501    0  0.00000000000E+00 -0.00000000000E+00 -0.55289793277E+03  0.55289793277E+03  0.00000000000E+00 0. -1.
          5    1    1    2  502    0  0.85792091307E+02 -0.36295035186E+02 -0.13575289025E+03  0.16469344893E+03  0.41800000000E+01 0. -1.
         -5    1    1    2    0  502 -0.35112472299E+02  0.15230183465E+02 -0.10947424561E+03  0.11604708980E+03  0.41800000000E+01 0. -1.
        -11    1    1    2    0    0 -0.80324962064E+02  0.84687728376E+01 -0.17652981803E+03  0.19413035903E+03  0.00000000000E+00 0.  1.
         11    1    1    2    0    0  0.29645343056E+02  0.12596078884E+02 -0.10210392515E+03  0.10706408875E+03  0.00000000000E+00 0. -1.
</event>
<event>
 6    1  0.6981059E-006  0.1200505E+03  0.7561462E-02  0.1243014E+00
          3   -1    0    0  501    0  0.00000000000E+00  0.00000000000E+00  0.29126484756E+03  0.29126484756E+03  0.00000000000E+00 0. -1.
         -3   -1    0    0    0  501 -0.00000000000E+00 -0.00000000000E+00 -0.11816690065E+03  0.11816690065E+03  0.00000000000E+00 0.  1.
          5    1    1    2  502    0 -0.28419000044E+02 -0.66959441653E+02  0.38990153552E+02  0.82637224445E+02  0.41800000000E+01 0. -1.
         -5    1    1    2    0  502  0.41554957411E+02 -0.40601358231E+02 -0.60961062698E+02  0.84314935456E+02  0.41800000000E+01 0. -1.
        -11    1    1    2    0    0 -0.85779047663E+01  0.27596906667E+02 -0.27809185058E+01  0.29032795516E+02  0.00000000000E+00 0.  1.
         11    1    1    2    0    0 -0.45580526000E+01  0.79963893218E+02  0.19784977456E+03  0.21344679280E+03  0.00000000000E+00 0. -1.
</event>
<event>
 6    1  0.6981059E-006  0.8121112E+02  0.7561462E-02  0.1325649E+00
         -1   -1    0    0    0  501 -0.00000000000E+00  0.00000000000E+00  0.29030572467E+02  0.29030572467E+02  0.00000000000E+00 0.  1.
          1   -1    0    0  501    0  0.00000000000E+00 -0.00000000000E+00 -0.45471182065E+03  0.45471182065E+03  0.00000000000E+00 0. -1.
          5    1    1    2  502    0 -0.45897929130E+00  0.26573888352E+02  0.43818547488E+01  0.27259039880E+02  0.41800000000E+01 0. -1.
         -5    1    1    2    0  502 -0.15474665462E+02 -0.53441812201E+02 -0.19533130014E+03  0.20314350045E+03  0.41800000000E+01 0. -1.
        -11    1    1    2    0    0  0.45458184914E+02  0.18048810203E+02 -0.20414727837E+03  0.20992455166E+03  0.00000000000E+00 0. -1.
         11    1    1    2    0    0 -0.29524540160E+02  0.88191136456E+01 -0.30584524422E+02  0.43415301119E+02  0.00000000000E+00 0.  1.
</event>
<event>
 6    1  0.6981059E-006  0.9696414E+02  0.7561462E-02  0.1286813E+00
          1   -1    0    0  501    0  0.00000000000E+00  0.00000000000E+00  0.17163886877E+02  0.17163886877E+02  0.00000000000E+00 0. -1.
         -1   -1    0    0    0  501 -0.00000000000E+00 -0.00000000000E+00 -0.11526761418E+04  0.11526761418E+04  0.00000000000E+00 0.  1.
          5    1    1    2  502    0 -0.21879963546E+01  0.48074083404E+01  0.25298311255E+01  0.71952031607E+01  0.41800000000E+01 0.  1.
         -5    1    1    2    0  502  0.84922033952E+02 -0.20121931278E+01 -0.77922149498E+03  0.78384909989E+03  0.41800000000E+01 0.  1.
        -11    1    1    2    0    0 -0.31881151096E+02  0.28222005913E+02 -0.56963778201E+02  0.71117940352E+02  0.00000000000E+00 0. -1.
         11    1    1    2    0    0 -0.50852886501E+02 -0.31017221126E+02 -0.30185681287E+03  0.30767778527E+03  0.00000000000E+00 0.  1.
</event>
<event>
 6    1  0.6981059E-006  0.1634662E+03  0.7561462E-02  0.1184838E+00
         -1   -1    0    0    0  501 -0.00000000000E+00  0.00000000000E+00  0.80989982064E+02  0.80989982064E+02  0.00000000000E+00 0.  1.
          1   -1    0    0  501    0  0.00000000000E+00 -0.00000000000E+00 -0.59992099788E+03  0.59992099788E+03  0.00000000000E+00 0. -1.
          5    1    1    2  502    0  0.17861866393E+02 -0.11232080857E+02 -0.80116437305E+01  0.22953534514E+02  0.41800000000E+01 0. -1.
         -5    1    1    2    0  502 -0.10762062135E+03  0.10191470573E+03 -0.29719466572E+02  0.15122673202E+03  0.41800000000E+01 0.  1.
        -11    1    1    2    0    0  0.10784767684E+03 -0.65641382328E+02 -0.41286846971E+03  0.43174099383E+03  0.00000000000E+00 0. -1.
         11    1    1    2    0    0 -0.18088921875E+02 -0.25041242549E+02 -0.68331435804E+02  0.74989719575E+02  0.00000000000E+00 0.  1.
</event>
<event>
 6    1  0.6981059E-006  0.2146965E+03  0.7561462E-02  0.1137900E+00
         -1   -1    0    0    0  501 -0.00000000000E+00  0.00000000000E+00  0.14584050874E+03  0.14584050874E+03  0.00000000000E+00 0.  1.
          1   -1    0    0  501    0  0.00000000000E+00 -0.00000000000E+00 -0.38035917855E+03  0.38035917855E+03  0.00000000000E+00 0. -1.
          5    1    1    2  502    0  0.81633602660E+02  0.58426831368E+02  0.48466051793E+01  0.10059175756E+03  0.41800000000E+01 0. -1.
         -5    1    1    2    0  502  0.40538700281E+02  0.11076371687E+03 -0.12095866322E+03  0.16899839586E+03  0.41800000000E+01 0. -1.
        -11    1    1    2    0    0 -0.38618658380E+02 -0.79094702159E+02 -0.98559070239E+02  0.13214107239E+03  0.00000000000E+00 0.  1.
         11    1    1    2    0    0 -0.83553644560E+02 -0.90095846083E+02 -0.19847541535E+02  0.12446846149E+03  0.00000000000E+00 0. -1.
</event>
<event>
 6    1  0.6981059E-006  0.5746590E+02  0.7561462E-02  0.1408785E+00
          2   -1    0    0  501    0  0.00000000000E+00  0.00000000000E+00  0.13867599140E+03  0.13867599140E+03  0.00000000000E+00 0. -1.
         -2   -1    0    0    0  501 -0.00000000000E+00 -0.00000000000E+00 -0.90237547193E+02  0.90237547193E+02  0.00000000000E+00 0.  1.
          5    1    1    2  502    0  0.17911377240E+02  0.35603155412E+01 -0.54150368201E+02  0.57299459488E+02  0.41800000000E+01 0. -1.
         -5    1    1    2    0  502 -0.12904765780E+02 -0.38724705216E+01  0.67095326952E+02  0.68562265909E+02  0.41800000000E+01 0. -1.
        -11    1    1    2    0    0 -0.29053465308E+02  0.31405866090E+02  0.45536177454E+02  0.62481803178E+02  0.00000000000E+00 0. -1.
         11    1    1    2    0    0  0.24046853849E+02 -0.31093711110E+02 -0.10042691994E+02  0.40570010021E+02  0.00000000000E+00 0.  1.
</event>
<event>
 6    1  0.6981059E-006  0.1051657E+03  0.7561462E-02  0.1269793E+00
         -3   -1    0    0    0  501 -0.00000000000E+00  0.00000000000E+00  0.90608523060E+02  0.90608523060E+02  0.00000000000E+00 0.  1.
          3   -1    0    0  501    0  0.00000000000E+00 -0.00000000000E+00 -0.13459342007E+03  0.13459342007E+03  0.00000000000E+00 0. -1.
          5    1    1    2  502    0 -0.19928380305E+02  0.52699795637E+02  0.56600090121E+01  0.56779546527E+02  0.41800000000E+01 0. -1.
         -5    1    1    2    0  502  0.25841317107E+02 -0.58336594681E+02 -0.31214918424E+02  0.71153183211E+02  0.41800000000E+01 0. -1.
        -11    1    1    2    0    0  0.40410437193E+02  0.14108424431E+02  0.75853340957E+01  0.43469395756E+02  0.00000000000E+00 0.  1.
         11    1    1    2    0    0 -0.46323373995E+02 -0.84716253863E+01 -0.26015321695E+02  0.53799817638E+02  0.00000000000E+00 0. -1.
</event>
<event>
 6    1  0.6981059E-006  0.8235463E+02  0.7561462E-02  0.1322499E+00
          2   -1    0    0  501    0  0.00000000000E+00  0.00000000000E+00  0.69871707093E+02  0.69871707093E+02  0.00000000000E+00 0. -1.
         -2   -1    0    0    0  501 -0.00000000000E+00 -0.00000000000E+00 -0.20136201334E+03  0.20136201334E+03  0.00000000000E+00 0.  1.
          5    1    1    2  502    0 -0.27416076547E+02 -0.41860018365E+02 -0.12236701620E+03  0.13226889825E+03  0.41800000000E+01 0. -1.
         -5    1    1    2    0  502 -0.64562799540E+01  0.17919073330E+02  0.24913488496E+02  0.31637494352E+02  0.41800000000E+01 0. -1.
        -11    1    1    2    0    0 -0.14843792835E+02 -0.22980775786E+02 -0.28433092096E+02  0.39457508380E+02  0.00000000000E+00 0.  1.
         11    1    1    2    0    0  0.48716149336E+02  0.46921720821E+02 -0.56036864516E+01  0.67869819454E+02  0.00000000000E+00 0. -1.
</event>
<event>
 6    1  0.6981059E-006  0.1100899E+03  0.7561462E-02  0.1260403E+00
          2   -1    0    0  501    0  0.00000000000E+00  0.00000000000E+00  0.20958840395E+03  0.20958840395E+03  0.00000000000E+00 0. -1.
         -2   -1    0    0    0  501 -0.00000000000E+00 -0.00000000000E+00 -0.14693828314E+03  0.14693828314E+03  0.00000000000E+00 0.  1.
          5    1    1    2  502    0  0.24409147433E+02  0.96582113998E+02 -0.41120684631E+02  0.10785311459E+03  0.41800000000E+01 0.  1.
         -5    1    1    2    0  502 -0.10376699473E+02 -0.33924142952E+02 -0.43371205284E+02  0.56187696293E+02  0.41800000000E+01 0.  1.
        -11    1    1    2    0    0  0.21141105561E+02 -0.30385894046E+02  0.13927039736E+03  0.14410583778E+03  0.00000000000E+00 0. -1.
         11    1    1    2    0    0 -0.35173553521E+02 -0.32272076999E+02  0.78716133632E+01  0.48380038426E+02  0.00000000000E+00 0.  1.
</event>
<event>
 6    1  0.6981059E-006  0.1134974E+03  0.7561462E-02  0.1254227E+00
         -1   -1    0    0    0  501 -0.00000000000E+00  0.00000000000E+00  0.58009232478E+02  0.58009232478E+02  0.00000000000E+00 0.  1.
          1   -1    0    0  501    0  0.00000000000E+00 -0.00000000000E+00 -0.31616624330E+03  0.31616624330E+03  0.00000000000E+00 0. -1.
          5    1    1    2  502    0  0.37317068834E+02  0.19587790142E+02 -0.51660838144E+02  0.66802393271E+02  0.41800000000E+01 0.  1.
         -5    1    1    2    0  502 -0.10022498954E+03  0.28789446761E+02 -0.81876596879E+02  0.13264663693E+03  0.41800000000E+01 0.  1.
        -11    1    1    2    0    0  0.16300944291E+02 -0.62553984465E+01  0.14101821353E+02  0.22443532699E+02  0.00000000000E+00 0.  1.
         11    1    1    2    0    0  0.46606976416E+02 -0.42121838457E+02 -0.13872139715E+03  0.15228291288E+03  0.00000000000E+00 0. -1.
</event>
<event>
 6    1  0.6981059E-006  0.1850941E+03  0.7561462E-02  0.1162962E+00
          3   -1    0    0  501    0  0.00000000000E+00  0.00000000000E+00  0.24611936360E+02  0.24611936360E+02  0.00000000000E+00 0. -1.
         -3   -1    0    0    0  501 -0.00000000000E+00 -0.00000000000E+00 -0.16372294740E+04  0.16372294740E+04  0.00000000000E+00 0.  1.
          5    1    1    2  502    0  0.58436380336E+02  0.17472613936E+03 -0.92387136553E+03  0.94207208152E+03  0.41800000000E+01 0.  1.
         -5    1    1    2    0  502 -0.25343001774E+01 -0.19932247727E+02 -0.64521489308E+02  0.67706810288E+02  0.41800000000E+01 0.  1.
        -11    1    1    2    0    0 -0.25480050311E+02 -0.48093415726E+02 -0.80761976689E+02  0.97389457739E+02  0.00000000000E+00 0. -1.
         11    1    1    2    0    0 -0.30422029848E+02 -0.10670047591E+03 -0.54346270610E+03  0.55467306080E+03  0.00000000000E+00 0.  1.
</event>
<event>
 6    1  0.6981059E-006  0.1673236E+03  0.7561462E-02  0.1180668E+00
          1   -1    0    0  501    0  0.00000000000E+00  0.00000000000E+00  0.11411096030E+04  0.11411096030E+04  0.00000000000E+00 0. -1.
         -1   -1    0    0    0  501 -0.00000000000E+00 -0.00000000000E+00 -0.29644849611E+02  0.29644849611E+02  0.00000000000E+00 0.  1.
          5    1    1    2  502    0 -0.41873428929E+02 -0.14259395807E+02  0.17015463269E+03  0.17586013149E+03  0.41800000000E+01 0. -1.
         -5    1    1    2    0  502  0.55244370914E+02 -0.10921803171E+03  0.20830380818E+03  0.24163705815E+03  0.41800000000E+01 0. -1.
        -11    1    1    2    0    0  0.14354534391E+02 -0.18315875165E+02  0.50179794212E+02  0.55313069774E+02  0.00000000000E+00 0.  1.
         11    1    1    2    0    0 -0.27725476376E+02  0.14179330269E+03  0.68282651833E+03  0.69794419323E+03  0.00000000000E+00 0. -1.
</event>
<event>
 6    1  0.6981059E-006  0.1985512E+03  0.7561462E-02  0.1150967E+00
          4   -1    0    0  501    0  0.00000000000E+00  0.00000000000E+00  0.79309717165E+02  0.79309717165E+02  0.00000000000E+00 0.  1.
         -4   -1    0    0    0  501 -0.00000000000E+00 -0.00000000000E+00 -0.98762477709E+03  0.98762477709E+03  0.00000000000E+00 0. -1.
          5    1    1    2  502    0 -0.74470762893E+01 -0.41717298622E+01 -0.20257383161E+01  0.97179365622E+01  0.41800000000E+01 0. -1.
         -5    1    1    2    0  502  0.74592753889E+02  0.17505296506E+03 -0.82015912147E+03  0.84195372583E+03  0.41800000000E+01 0. -1.
        -11    1    1    2    0    0 -0.22823683324E+02 -0.22774644486E+01 -0.92700984668E+01  0.24739484441E+02  0.00000000000E+00 0. -1.
         11    1    1    2    0    0 -0.44321994276E+02 -0.16860377074E+03 -0.76860101680E+02  0.19052334743E+03  0.00000000000E+00 0.  1.
</event>
<event>
 6    1  0.6981059E-006  0.2532751E+03  0.7561462E-02  0.1111252E+00
         -2   -1    0    0    0  501 -0.00000000000E+00  0.00000000000E+00  0.22448857654E+03  0.22448857654E+03  0.00000000000E+00 0.  1.
          2   -1    0    0  501    0  0.00000000000E+00 -0.00000000000E+00 -0.11530390740E+04  0.11530390740E+04  0.00000000000E+00 0. -1.
          5    1    1    2  502    0  0.10101113809E+03 -0.29963793990E+02 -0.27286778668E+03  0.29253269967E+03  0.41800000000E+01 0. -1.
         -5    1    1    2    0  502  0.11719915498E+03  0.10466414942E+03  0.16528208004E+03  0.22809178960E+03  0.41800000000E+01 0.  1.
        -11    1    1    2    0    0 -0.35853498871E+02 -0.47549623338E+02 -0.16064434255E+03  0.17132730329E+03  0.00000000000E+00 0.  1.
         11    1    1    2    0    0 -0.18235679419E+03 -0.27150732097E+02 -0.66032044824E+03  0.68557585795E+03  0.00000000000E+00 0. -1.
</event>
<event>
 6    1  0.6981059E-006  0.1495264E+03  0.7561462E-02  0.1201056E+00
         -2   -1    0    0    0  501 -0.00000000000E+00  0.00000000000E+00  0.66825478382E+03  0.66825478382E+03  0.00000000000E+00 0.  1.
          2   -1    0    0  501    0  0.00000000000E+00 -0.00000000000E+00 -0.38634518359E+02  0.38634518359E+02  0.00000000000E+00 0. -1.
          5    1    1    2  502    0  0.27762295150E+02 -0.48071232831E+02  0.21170732563E+03  0.21890420869E+03  0.41800000000E+01 0. -1.
         -5    1    1    2    0  502 -0.95973831029E+02 -0.43404627485E+02  0.19575587173E+03  0.22233481879E+03  0.41800000000E+01 0. -1.
        -11    1    1    2    0    0  0.64796381551E+01 -0.14185372035E+02  0.62915365289E+02  0.64819392776E+02  0.00000000000E+00 0.  1.
         11    1    1    2    0    0  0.61731897724E+02  0.10566123235E+03  0.15924170281E+03  0.20083088192E+03  0.00000000000E+00 0. -1.
</event>
<event>
 6    1  0.6981059E-006  0.1164288E+03  0.7561462E-02  0.1249107E+00
          2   -1    0    0  501    0  0.00000000000E+00  0.00000000000E+00  0.34688507323E+02  0.34688507323E+02  0.00000000000E+00 0. -1.
         -2   -1    0    0    0  501 -0.00000000000E+00 -0.00000000000E+00 -0.45191851646E+03  0.45191851646E+03  0.00000000000E+00 0.  1.
          5    1    1    2  502    0  0.41019307427E+02  0.89679894351E+02 -0.15314582583E+03  0.18219819813E+03  0.41800000000E+01 0.  1.
         -5    1    1    2    0  502  0.73229990178E+01 -0.38728267445E+02 -0.11932543591E+03  0.12573598160E+03  0.41800000000E+01 0.  1.
        -11    1    1    2    0    0  0.58669900621E+01  0.10834947055E+02 -0.57464965191E+02  0.58771080256E+02  0.00000000000E+00 0.  1.
         11    1    1    2    0    0 -0.54209296506E+02 -0.61786573961E+02 -0.87293782201E+02  0.11990176379E+03  0.00000000000E+00 0. -1.
</event>
<event>
 6    1  0.6981059E-006  0.1426363E+03  0.7561462E-02  0.1209825E+00
          3   -1    0    0  501    0  0.00000000000E+00  0.00000000000E+00  0.51055770068E+03  0.51055770068E+03  0.00000000000E+00 0. -1.
         -3   -1    0    0    0  501 -0.00000000000E+00 -0.00000000000E+00 -0.59537701388E+02  0.59537701388E+02  0.00000000000E+00 0.  1.
          5    1    1    2  502    0  0.34235306826E+01 -0.41574534273E+02  0.13511648979E+02  0.44047695973E+02  0.41800000000E+01 0.  1.
         -5    1    1    2    0  502 -0.94056698502E+02  0.63091280060E+02  0.63134390409E+02  0.12973278616E+03  0.41800000000E+01 0.  1.
        -11    1    1    2    0    0  0.74112193655E+02  0.26910432010E+02  0.23064938193E+03  0.24375382251E+03  0.00000000000E+00 0.  1.
         11    1    1    2    0    0  0.16520974164E+02 -0.48427177797E+02  0.14372457797E+03  0.15256109743E+03  0.00000000000E+00 0. -1.
</event>
<event>
 6    1  0.6981059E-006  0.1135559E+03  0.7561462E-02  0.1254123E+00
         -2   -1    0    0    0  501 -0.00000000000E+00  0.00000000000E+00  0.42141105339E+02  0.42141105339E+02  0.00000000000E+00 0.  1.
          2   -1    0    0  501    0  0.00000000000E+00 -0.00000000000E+00 -0.48278521069E+03  0.48278521069E+03  0.00000000000E+00 0. -1.
          5    1    1    2  502    0 -0.29221819984E+00  0.98092676102E+02 -0.73792904391E+02  0.12282151129E+03  0.41800000000E+01 0. -1.
         -5    1    1    2    0  502 -0.33911490193E+02 -0.22540430429E+02 -0.92557318817E+02  0.10120469276E+03  0.41800000000E+01 0. -1.
        -11    1    1    2    0    0  0.36845941020E+02 -0.48972638208E+02 -0.26594491179E+03  0.27291507611E+03  0.00000000000E+00 0. -1.
         11    1    1    2    0    0 -0.26422326267E+01 -0.26579607465E+02 -0.83489703490E+01  0.27985035861E+02  0.00000000000E+00 0.  1.
</event>
<event>
 6    1  0.6981059E-006  0.1181171E+03  0.7561462E-02  0.1246236E+00
         -2   -1    0    0    0  501 -0.00000000000E+00  0.00000000000E+00  0.12725871349E+03  0.12725871349E+03  0.00000000000E+00 0.  1.
          2   -1    0    0  501    0  0.00000000000E+00 -0.00000000000E+00 -0.14081429612E+03  0.14081429612E+03  0.00000000000E+00 0. -1.
          5    1    1    2  502    0  0.24985837631E+02  0.38508662545E+02 -0.17961162608E+02  0.49470040786E+02  0.41800000000E+01 0.  1.
         -5    1    1    2    0  502 -0.93845996882E+02 -0.54265841190E+01  0.24579056061E+02  0.97252873185E+02  0.41800000000E+01 0.  1.
        -11    1    1    2    0    0  0.31099295297E+02 -0.46525004534E+02  0.24709812277E+02  0.61174480281E+02  0.00000000000E+00 0.  1.
         11    1    1    2    0    0  0.37760863954E+02  0.13442926107E+02 -0.44883288369E+02  0.60175615357E+02  0.00000000000E+00 0. -1.
</event>
<event>
 6    1  0.6981059E-006  0.7707814E+02  0.7561462E-02  0.1337554E+00
          1   -1    0    0  501    0  0.00000000000E+00  0.00000000000E+00  0.21944800509E+03  0.21944800509E+03  0.00000000000E+00 0. -1.
         -1   -1    0    0    0  501 -0.00000000000E+00 -0.00000000000E+00 -0.61581121137E+02  0.61581121137E+02  0.00000000000E+00 0.  1.
          5    1    1    2  502    0  0.32422765235E+02 -0.39346307812E+02  0.93380213006E+02  0.10647396031E+03  0.41800000000E+01 0.  1.
         -5    1    1    2    0  502 -0.10615132994E+01  0.27382754305E+02 -0.27317678625E+02  0.38918761661E+02  0.41800000000E+01 0.  1.
        -11    1    1    2    0    0 -0.21187778917E+02  0.40104556968E+02  0.72371543197E+01  0.45931186221E+02  0.00000000000E+00 0.  1.
         11    1    1    2    0    0 -0.10173473019E+02 -0.28141003460E+02  0.84567195255E+02  0.89705218033E+02  0.00000000000E+00 0. -1.
</event>
<event>
 6    1  0.6981059E-006  0.1420577E+03  0.7561462E-02  0.1210587E+00
          2   -1    0    0  501    0  0.00000000000E+00  0.00000000000E+00  0.38967787218E+02  0.38967787218E+02  0.00000000000E+00 0. -1.
         -2   -1    0    0    0  501 -0.00000000000E+00 -0.00000000000E+00 -0.61528366868E+03  0.61528366868E+03  0.00000000000E+00 0.  1.
          5    1    1    2  502    0  0.91519851971E+02 -0.68436049456E+02 -0.16684293158E+03  0.20227064144E+03  0.41800000000E+01 0. -1.
         -5    1    1    2    0  502  0.82973206876E+01  0.26901498047E+02 -0.17680789465E+03  0.17908389134E+03  0.41800000000E+01 0. -1.
        -11    1    1    2    0    0  0.25096769698E+01 -0.21151110825E+02 -0.23212492429E+02  0.31503773939E+02  0.00000000000E+00 0. -1.
         11    1    1    2    0    0 -0.10232684963E+03  0.62685662235E+02 -0.20945256281E+03  0.24139314918E+03  0.00000000000E+00 0.  1.
</event>
<event>
 6    1  0.6981059E-006  0.2237756E+03  0.7561462E-02  0.1131099E+00
         -2   -1    0    0    0  501 -0.00000000000E+00  0.00000000000E+00  0.10514576430E+03  0.10514576430E+03  0.00000000000E+00 0.  1.
          2   -1    0    0  501    0  0.00000000000E+00 -0.00000000000E+00 -0.52477946122E+03  0.52477946122E+03  0.00000000000E+00 0. -1.
          5    1    1    2  502    0 -0.14906545669E+03 -0.13390291170E+03 -0.16167610597E+03  0.25750171996E+03  0.41800000000E+01 0.  1.
         -5    1    1    2    0  502 -0.17723635031E+02  0.18857976886E+02  0.61244675551E+01  0.26920847568E+02  0.41800000000E+01 0.  1.
        -11    1    1    2    0    0  0.64108314520E+02  0.97589419363E+02 -0.11716756275E+03  0.16541405177E+03  0.00000000000E+00 0. -1.
         11    1    1    2    0    0  0.10268077720E+03  0.17455515447E+02 -0.14691449576E+03  0.18008860622E+03  0.00000000000E+00 0.  1.
</event>
<event>
 6    1  0.6981059E-006  0.9931555E+02  0.7561462E-02  0.1281742E+00
          1   -1    0    0  501    0  0.00000000000E+00  0.00000000000E+00  0.97249056315E+02  0.97249056315E+02  0.00000000000E+00 0. -1.
         -1   -1    0    0    0  501 -0.00000000000E+00 -0.00000000000E+00 -0.15655771218E+03  0.15655771218E+03  0.00000000000E+00 0.  1.
          5    1    1    2  502    0 -0.34575262367E+02 -0.39778691901E+02 -0.68720545974E+02  0.86705126354E+02  0.41800000000E+01 0.  1.
         -5    1    1    2    0  502  0.41555479430E+02  0.49988741655E+02 -0.23715083828E+02  0.69322505464E+02  0.41800000000E+01 0.  1.
        -11    1    1    2    0    0  0.23189656616E+02 -0.34718478371E+02  0.40555564415E+02  0.58205555744E+02  0.00000000000E+00 0. -1.
         11    1    1    2    0    0 -0.30169873679E+02  0.24508428617E+02 -0.74285904730E+01  0.39573580928E+02  0.00000000000E+00 0.  1.
</event>
<event>
 6    1  0.6981059E-006  0.9710865E+02  0.7561462E-02  0.1286496E+00
          2   -1    0    0  501    0  0.00000000000E+00  0.00000000000E+00  0.23803046429E+03  0.23803046429E+03  0.00000000000E+00 0. -1.
         -2   -1    0    0    0  501 -0.00000000000E+00 -0.00000000000E+00 -0.58491430519E+02  0.58491430519E+02  0.00000000000E+00 0.  1.
          5    1    1    2  502    0  0.71596948685E+02 -0.20056518512E+01 -0.17826670859E+01  0.71769046269E+02  0.41800000000E+01 0.  1.
         -5    1    1    2    0  502 -0.21905677202E+02  0.23037279506E+02  0.78009602104E+02  0.84341836364E+02  0.41800000000E+01 0.  1.
        -11    1    1    2    0    0 -0.48492011089E+02 -0.45151191598E+02  0.53897405395E+02  0.85410980269E+02  0.00000000000E+00 0.  1.
         11    1    1    2    0    0 -0.11992603946E+01  0.24119563942E+02  0.49414693357E+02  0.55000031908E+02  0.00000000000E+00 0. -1.
</event>
<event>
 6    1  0.6981059E-006  0.6806243E+02  0.7561462E-02  0.1366809E+00
         -1   -1    0    0    0  501 -0.00000000000E+00  0.00000000000E+00  0.62585752632E+02  0.62585752632E+02  0.00000000000E+00 0.  1.
          1   -1    0    0  501    0  0.00000000000E+00 -0.00000000000E+00 -0.22870916170E+03  0.22870916170E+03  0.00000000000E+00 0. -1.
          5    1    1    2  502    0  0.18902350202E+01 -0.90175646083E+01 -0.89874276720E+02  0.90441956391E+02  0.41800000000E+01 0. -1.
         -5    1    1    2    0  502 -0.27783647041E+01  0.28193841984E+02  0.40006654334E+02  0.49199764504E+02  0.41800000000E+01 0.  1.
        -11    1    1    2    0    0 -0.43689100947E+02 -0.28049835582E+02 -0.60809083419E+02  0.79957960479E+02  0.00000000000E+00 0. -1.
         11    1    1    2    0    0  0.44577230631E+02  0.88735582068E+01 -0.55446703263E+02  0.71695232957E+02  0.00000000000E+00 0.  1.
</event>
<event>
 6    1  0.6981059E-006  0.9079161E+02  0.7561462E-02  0.1300946E+00
          2   -1    0    0  501    0  0.00000000000E+00  0.00000000000E+00  0.11161452292E+03  0.11161452292E+03  0.00000000000E+00 0. -1.
         -2   -1    0    0    0  501 -0.00000000000E+00 -0.00000000000E+00 -0.12809780022E+03  0.12809780022E+03  0.00000000000E+00 0.  1.
          5    1    1    2  502    0 -0.34305071318E+01  0.27904547878E+02 -0.55822593595E+02  0.62642370064E+02  0.41800000000E+01 0.  1.
         -5    1    1    2    0  502 -0.43060271941E+02 -0.42352730223E+02  0.39935242716E+02  0.72527489876E+02  0.41800000000E+01 0.  1.
        -11    1    1    2    0    0  0.41330676410E+02 -0.27957532159E+02 -0.24502192675E+02  0.55589620099E+02  0.00000000000E+00 0.  1.
         11    1    1    2    0    0  0.51601026632E+01  0.42405714504E+02  0.23906266253E+02  0.48952843107E+02  0.00000000000E+00 0. -1.
</event>
<event>
 6    1  0.6981059E-006  0.9393986E+02  0.7561462E-02  0.1293582E+00
         -2   -1    0    0    0  501 -0.00000000000E+00  0.00000000000E+00  0.28904782849E+02  0.28904782849E+02  0.00000000000E+00 0.  1.
          2   -1    0    0  501    0  0.00000000000E+00 -0.00000000000E+00 -0.40994132051E+03  0.40994132051E+03  0.00000000000E+00 0. -1.
          5    1    1    2  502    0 -0.30565945306E+02 -0.38369920197E+02 -0.52052223908E+02  0.71647988124E+02  0.41800000000E+01 0. -1.
         -5    1    1    2    0  502  0.49425290465E+02  0.53079758085E+02 -0.15979079998E+03  0.17553031708E+03  0.41800000000E+01 0. -1.
        -11    1    1    2    0    0 -0.41507110100E+02 -0.11876866327E+02 -0.16212374830E+03  0.16777368657E+03  0.00000000000E+00 0. -1.
         11    1    1    2    0    0  0.22647764941E+02 -0.28329715607E+01 -0.70697654753E+01  0.23894111588E+02  0.00000000000E+00 0.  1.
</event>
<event>
 6    1  0.6981059E-006  0.1228588E+03  0.7561462E-02  0.1238454E+00
          1   -1    0    0  501    0  0.00000000000E+00  0.00000000000E+00  0.92676069154E+03  0.92676069154E+03  0.00000000000E+00 0. -1.
         -1   -1    0    0    0  501 -0.00000000000E+00 -0.00000000000E+00 -0.23125141878E+02  0.23125141878E+02  0.00000000000E+00 0.  1.
          5    1    1    2  502    0 -0.46057505837E+02 -0.19426527024E+02  0.28674880170E+03  0.29110312858E+03  0.41800000000E+01 0.  1.
         -5    1    1    2    0  502  0.76917374972E+02 -0.60595859493E+02  0.35043243155E+03  0.36387979092E+03  0.41800000000E+01 0.  1.
        -11    1    1    2    0    0 -0.13628559123E+02 -0.19649818663E+01 -0.17850934177E+01  0.13884715914E+02  0.00000000000E+00 0.  1.
         11    1    1    2    0    0 -0.17231310012E+02  0.81987368384E+02  0.26823940984E+03  0.28101819800E+03  0.00000000000E+00 0. -1.
</event>
<event>
 6    1  0.6981059E-006  0.1355643E+03  0.7561462E-02  0.1219425E+00
          3   -1    0    0  501    0  0.00000000000E+00  0.00000000000E+00  0.15269659691E+03  0.15269659691E+03  0.00000000000E+00 0. -1.
         -3   -1    0    0    0  501 -0.00000000000E+00 -0.00000000000E+00 -0.12102446995E+03  0.12102446995E+03  0.00000000000E+00 0.  1.
          5    1    1    2  502    0  0.57369356666E+02 -0.94803587263E+02  0.13268142556E+02  0.11168025452E+03  0.41800000000E+01 0. -1.
         -5    1    1    2    0  502 -0.29010127185E+01  0.36840323044E+02  0.48932371774E+00  0.37193240171E+02  0.41800000000E+01 0. -1.
        -11    1    1    2    0    0 -0.81415628851E+02  0.46558160940E+02  0.88020125509E+01  0.94200012720E+02  0.00000000000E+00 0.  1.
         11    1    1    2    0    0  0.26947284904E+02  0.11405103279E+02  0.91126481363E+01  0.30647559455E+02  0.00000000000E+00 0. -1.
</event>
<event>
 6    1  0.6981059E-006  0.8944969E+02  0.7561462E-02  0.1304190E+00
         -2   -1    0    0    0  501 -0.00000000000E+00  0.00000000000E+00  0.10578990037E+03  0.10578990037E+03  0.00000000000E+00 0.  1.
          2   -1    0    0  501    0  0.00000000000E+00 -0.00000000000E+00 -0.14041714067E+03  0.14041714067E+03  0.00000000000E+00 0. -1.
          5    1    1    2  502    0 -0.55960208731E+02  0.11748171130E+02  0.43889768411E+02  0.72203522472E+02  0.41800000000E+01 0.  1.
         -5    1    1    2    0  502  0.33126312375E+02  0.34495458125E+02 -0.40998703753E+02  0.63132046635E+02  0.41800000000E+01 0.  1.
        -11    1    1    2    0    0  0.19316814063E+01  0.11752889574E+02  0.22103736696E+02  0.25108504184E+02  0.00000000000E+00 0.  1.
         11    1    1    2    0    0  0.20902214950E+02 -0.57996518830E+02 -0.59622041649E+02  0.85762967746E+02  0.00000000000E+00 0. -1.
</event>
<event>
 6    1  0.6981059E-006  0.1409489E+03  0.7561462E-02  0.1212058E+00
          2   -1    0    0  501    0  0.00000000000E+00  0.00000000000E+00  0.89798153783E+03  0.89798153783E+03  0.00000000000E+00 0. -1.
         -2   -1    0    0    0  501 -0.00000000000E+00 -0.00000000000E+00 -0.33364449842E+02  0.33364449842E+02  0.00000000000E+00 0.  1.
          5    1    1    2  502    0  0.91420113663E+02  0.13950797564E+02  0.95888774382E+02  0.13328312492E+03  0.41800000000E+01 0.  1.
         -5    1    1    2    0  502  0.30062587332E+02 -0.47949576237E+02  0.24085810869E+03  0.24745307018E+03  0.41800000000E+01 0.  1.
        -11    1    1    2    0    0 -0.10874965284E+03  0.43043160060E+02  0.52024434118E+03  0.53322919570E+03  0.00000000000E+00 0. -1.
         11    1    1    2    0    0 -0.12733048153E+02 -0.90443813871E+01  0.76258637338E+01  0.17380596872E+02  0.00000000000E+00 0.  1.
</event>
<event>
 6    1  0.6981059E-006  0.3126248E+03  0.7561462E-02  0.1079095E+00
          2   -1    0    0  501    0  0.00000000000E+00  0.00000000000E+00  0.39853428414E+03  0.39853428414E+03  0.00000000000E+00 0. -1.
         -2   -1    0    0    0  501 -0.00000000000E+00 -0.00000000000E+00 -0.39502102992E+03  0.39502102992E+03  0.00000000000E+00 0.  1.
          5    1    1    2  502    0  0.14708939383E+02  0.12317840838E+02 -0.63459388201E+02  0.66427768678E+02  0.41800000000E+01 0.  1.
         -5    1    1    2    0  502  0.29460473541E+03  0.10353720410E+02 -0.15568709817E+03  0.33339930202E+03  0.41800000000E+01 0.  1.
        -11    1    1    2    0    0 -0.92274495584E+02  0.24687437587E+01  0.17374979930E+02  0.93928521540E+02  0.00000000000E+00 0.  1.
         11    1    1    2    0    0 -0.21703917921E+03 -0.25140305007E+02  0.20528476066E+03  0.29979972183E+03  0.00000000000E+00 0. -1.
</event>
<event>
 6    1  0.6981059E-006  0.1079773E+03  0.7561462E-02  0.1264362E+00
          2   -1    0    0  501    0  0.00000000000E+00  0.00000000000E+00  0.29032395853E+02  0.29032395853E+02  0.00000000000E+00 0. -1.
         -2   -1    0    0    0  501 -0.00000000000E+00 -0.00000000000E+00 -0.47659165584E+03  0.47659165584E+03  0.00000000000E+00 0.  1.
          5    1    1    2  502    0 -0.24246697141E+02  0.51690518902E+02 -0.21614009978E+03  0.22359299452E+03  0.41800000000E+01 0. -1.
         -5    1    1    2    0  502 -0.31518430844E+02 -0.42992492471E+02 -0.58248580353E+02  0.79070445837E+02  0.41800000000E+01 0.  1.
        -11    1    1    2    0    0  0.63216766047E+02  0.27019282896E+02 -0.12325240162E+03  0.14112957048E+03  0.00000000000E+00 0. -1.
         11    1    1    2    0    0 -0.74516380623E+01 -0.35717309327E+02 -0.49918178233E+02  0.61831040857E+02  0.00000000000E+00 0.  1.
</event>
<event>
 6    1  0.6981059E-006  0.7620120E+02  0.7561462E-02  0.1340191E+00
         -1   -1    0    0    0  501 -0.00000000000E+00  0.00000000000E+00  0.11681982161E+03  0.11681982161E+03  0.00000000000E+00 0.  1.
          1   -1    0    0  501    0  0.00000000000E+00 -0.00000000000E+00 -0.12094826063E+03  0.12094826063E+03  0.00000000000E+00 0. -1.
          5    1    1    2  502    0 -0.10023957750E+02  0.34666817280E+02 -0.40635574799E+02  0.54506791215E+02  0.41800000000E+01 0.  1.
         -5    1    1    2    0  502 -0.40574739132E+02 -0.37044498144E+02  0.60622603145E+02  0.81921771895E+02  0.41800000000E+01 0.  1.
        -11    1    1    2    0    0  0.15470688159E+02 -0.15204207802E+02  0.28413530323E+02  0.35746871646E+02  0.00000000000E+00 0.  1.
         11    1    1    2    0    0  0.35128008722E+02  0.17581888666E+02 -0.52528997690E+02  0.65592647486E+02  0.00000000000E+00 0. -1.
</event>
<event>
 6    1  0.6981059E-006  0.3688333E+03  0.7561462E-02  0.1055140E+00
         -2   -1    0    0    0  501 -0.00000000000E+00  0.00000000000E+00  0.15784025558E+03  0.15784025558E+03  0.00000000000E+00 0.  1.
          2   -1    0    0  501    0  0.00000000000E+00 -0.00000000000E+00 -0.97634731932E+03  0.97634731932E+03  0.00000000000E+00 0. -1.
          5    1    1    2  502    0  0.22907250695E+03 -0.17560723404E+03 -0.47671556665E+03  0.55730361382E+03  0.41800000000E+01 0. -1.
         -5    1    1    2    0  502 -0.29904330721E+03  0.94979664580E+02 -0.18159088293E+03  0.36254759334E+03  0.41800000000E+01 0.  1.
        -11    1    1    2    0    0  0.89162304337E+02  0.69243505804E+02 -0.10254150416E+03  0.15251012978E+03  0.00000000000E+00 0. -1.
         11    1    1    2    0    0 -0.19191504079E+02  0.11384063656E+02 -0.57659109995E+02  0.61826237954E+02  0.00000000000E+00 0.  1.
</event>
<event>
 6    1  0.6981059E-006  0.9698843E+02  0.7561462E-02  0.1286759E+00
          2   -1    0    0  501    0  0.00000000000E+00  0.00000000000E+00  0.15375632704E+02  0.15375632704E+02  0.00000000000E+00 0. -1.
         -2   -1    0    0    0  501 -0.00000000000E+00 -0.00000000000E+00 -0.91969657885E+03  0.91969657885E+03  0.00000000000E+00 0.  1.
          5    1    1    2  502    0  0.45306517519E+02  0.35583109732E+02 -0.11451772054E+03  0.12825996626E+03  0.41800000000E+01 0. -1.
         -5    1    1    2    0  502 -0.49076882739E+02  0.11975176398E+02 -0.40798876733E+03  0.41112559144E+03  0.41800000000E+01 0. -1.
        -11    1    1    2    0    0  0.27315991996E+02  0.51509773689E+01 -0.38126076044E+02  0.47183616448E+02  0.00000000000E+00 0. -1.
         11    1    1    2    0    0 -0.23545626777E+02 -0.52709263499E+02 -0.34368838223E+03  0.34850303740E+03  0.00000000000E+00 0.  1.
</event>
<event>
 6    1  0.6981059E-006  0.3653736E+03  0.7561462E-02  0.1056476E+00
          1   -1    0    0  501    0  0.00000000000E+00  0.00000000000E+00  0.51854115813E+03  0.51854115813E+03  0.00000000000E+00 0. -1.
         -1   -1    0    0    0  501 -0.00000000000E+00 -0.00000000000E+00 -0.57434215052E+03  0.57434215052E+03  0.00000000000E+00 0.  1.
          5    1    1    2  502    0  0.11651374525E+03 -0.48514891301E+02 -0.14757321591E+03  0.19422789183E+03  0.41800000000E+01 0.  1.
         -5    1    1    2    0  502  0.10882496641E+03 -0.22240033714E+03 -0.28329386564E+03  0.37626808260E+03  0.41800000000E+01 0.  1.
        -11    1    1    2    0    0 -0.34027911752E+02  0.78209515264E+02  0.50151746190E+02  0.98943543002E+02  0.00000000000E+00 0.  1.
         11    1    1    2    0    0 -0.19131079991E+03  0.19270571317E+03  0.32491434297E+03  0.42344379122E+03  0.00000000000E+00 0. -1.
</event>
<event>
 6    1  0.6981059E-006  0.1352288E+03  0.7561462E-02  0.1219897E+00
         -1   -1    0    0    0  501 -0.00000000000E+00  0.00000000000E+00  0.77475658528E+02  0.77475658528E+02  0.00000000000E+00 0.  1.
          1   -1    0    0  501    0  0.00000000000E+00 -0.00000000000E+00 -0.29972413050E+03  0.29972413050E+03  0.00000000000E+00 0. -1.
          5    1    1    2  502    0  0.72375514147E+02  0.66497031077E+02 -0.12122379884E+03  0.15611775041E+03  0.41800000000E+01 0.  1.
         -5    1    1    2    0  502 -0.30056725757E+02  0.31764684491E+02  0.66542473577E+01  0.44431445531E+02  0.41800000000E+01 0.  1.
        -11    1    1    2    0    0 -0.60255528886E+02 -0.56074878606E+02 -0.32289731566E+02  0.88418027215E+02  0.00000000000E+00 0.  1.
         11    1    1    2    0    0  0.17936740497E+02 -0.42186836963E+02 -0.75389188929E+02  0.88232565870E+02  0.00000000000E+00 0. -1.
</event>
<event>
 6    1  0.7673834E-006  0.1935991E+03  0.7561462E-02  0.1155255E+00
          3   -1    0    0  501    0  0.00000000000E+00  0.00000000000E+00  0.17176892377E+03  0.17176892377E+03  0.00000000000E+00 0. -1.
         -3   -1    0    0    0  501 -0.00000000000E+00 -0.00000000000E+00 -0.25467997140E+03  0.25467997140E+03  0.00000000000E+00 0.  1.
          5    1    1    2  502    0  0.22699267268E+02 -0.16846180784E+03 -0.14553870353E+02  0.17065733203E+03  0.41800000000E+01 0.  1.
         -5    1    1    2    0  502  0.33736889033E+02 -0.51586936544E+00 -0.42410817779E+02  0.54356174144E+02  0.41800000000E+01 0.  1.
        -11    1    1    2    0    0 -0.45977551863E+02  0.70725019481E+02 -0.52198034353E+02  0.99199790555E+02  0.00000000000E+00 0.  1.
         11    1    1    2    0    0 -0.10458604439E+02  0.98252657721E+02  0.26251674854E+02  0.10223559844E+03  0.00000000000E+00 0. -1.
</event>
<event>
 6    1  0.6981059E-006  0.1112361E+03  0.7561462E-02  0.1258298E+00
          1   -1    0    0  501    0  0.00000000000E+00  0.00000000000E+00  0.19816020315E+02  0.19816020315E+02  0.00000000000E+00 0. -1.
         -1   -1    0    0    0  501 -0.00000000000E+00 -0.00000000000E+00 -0.10003147355E+04  0.10003147355E+04  0.00000000000E+00 0.  1.
          5    1    1    2  502    0  0.43759632500E+02  0.39081578366E+02 -0.51717070727E+03  0.52050483962E+03  0.41800000000E+01 0.  1.
         -5    1    1    2    0  502  0.28531179031E+02 -0.60619803787E+02 -0.18769640082E+03  0.19933940922E+03  0.41800000000E+01 0.  1.
        -11    1    1    2    0    0 -0.34018622445E+02  0.41254713779E+02 -0.59872908726E+02  0.80274424827E+02  0.00000000000E+00 0. -1.
         11    1    1    2    0    0 -0.38272189086E+02 -0.19716488357E+02 -0.21575869839E+03  0.22001208218E+03  0.00000000000E+00 0.  1.
</event>
<event>
 6    1  0.6981059E-006  0.1432507E+03  0.7561462E-02  0.1209021E+00
         -2   -1    0    0    0  501 -0.00000000000E+00  0.00000000000E+00  0.43852741356E+03  0.43852741356E+03  0.00000000000E+00 0.  1.
          2   -1    0    0  501    0  0.00000000000E+00 -0.00000000000E+00 -0.55138187444E+02  0.55138187444E+02  0.00000000000E+00 0. -1.
          5    1    1    2  502    0  0.82133116504E+02  0.18927146364E+02  0.83299921203E+02  0.11857670500E+03  0.41800000000E+01 0.  1.
         -5    1    1    2    0  502 -0.16882262583E+02  0.64712008914E+02  0.17503898534E+03  0.18742671548E+03  0.41800000000E+01 0.  1.
        -11    1    1    2    0    0 -0.22655712138E+02 -0.89304493607E+02  0.60870199083E+02  0.11042533680E+03  0.00000000000E+00 0. -1.
         11    1    1    2    0    0 -0.42595141784E+02  0.56653383298E+01  0.64180120487E+02  0.77236843720E+02  0.00000000000E+00 0.  1.
</event>
<event>
 6    1  0.6981059E-006  0.1176591E+03  0.7561462E-02  0.1247009E+00
         -2   -1    0    0    0  501 -0.00000000000E+00  0.00000000000E+00  0.12072610248E+03  0.12072610248E+03  0.00000000000E+00 0.  1.
          2   -1    0    0  501    0  0.00000000000E+00 -0.00000000000E+00 -0.25407556382E+03  0.25407556382E+03  0.00000000000E+00 0. -1.
          5    1    1    2  502    0 -0.13571222457E+02  0.45808510139E+01 -0.35716163074E+02  0.38707608809E+02  0.41800000000E+01 0.  1.
         -5    1    1    2    0  502  0.61780288729E+02  0.75096157350E+02  0.72901247711E+02  0.12160715950E+03  0.41800000000E+01 0.  1.
        -11    1    1    2    0    0 -0.52650377927E+02 -0.10428076383E+02 -0.11002569628E+03  0.12241920157E+03  0.00000000000E+00 0. -1.
         11    1    1    2    0    0  0.44413116547E+01 -0.69248931981E+02 -0.60508849700E+02  0.92067696407E+02  0.00000000000E+00 0.  1.
</event>
<event>
 6    1  0.6981059E-006  0.1704628E+03  0.7561462E-02  0.1177366E+00
         -2   -1    0    0    0  501 -0.00000000000E+00  0.00000000000E+00  0.41055726238E+02  0.41055726238E+02  0.00000000000E+00 0.  1.
          2   -1    0    0  501    0  0.00000000000E+00 -0.00000000000E+00 -0.84438414172E+03  0.84438414172E+03  0.00000000000E+00 0. -1.
          5    1    1    2  502    0  0.13147927233E+03 -0.87559708499E+02 -0.27274487944E+03  0.31521539186E+03  0.41800000000E+01 0. -1.
         -5    1    1    2    0  502 -0.26381432426E+02 -0.19003242893E+02 -0.10381833270E+03  0.10887066557E+03  0.41800000000E+01 0. -1.
        -11    1    1    2    0    0 -0.41610533752E+02  0.34236524102E+02 -0.28473868830E+03  0.28979250632E+03  0.00000000000E+00 0. -1.
         11    1    1    2    0    0 -0.63487306155E+02  0.72326427291E+02 -0.14202651504E+03  0.17156130421E+03  0.00000000000E+00 0.  1.
</event>
<event>
 6    1  0.6981059E-006  0.9992614E+02  0.7561462E-02  0.1280451E+00
         -2   -1    0    0    0  501 -0.00000000000E+00  0.00000000000E+00  0.23963574641E+03  0.23963574641E+03  0.00000000000E+00 0.  1.
          2   -1    0    0  501    0  0.00000000000E+00 -0.00000000000E+00 -0.75916478701E+02  0.75916478701E+02  0.00000000000E+00 0. -1.
          5    1    1    2  502    0 -0.15630486672E+02 -0.36635799476E+02 -0.59515145526E+01  0.40489342330E+02  0.41800000000E+01 0. -1.
         -5    1    1    2    0  502 -0.53202788776E+02 -0.12810191868E+01  0.14747691029E+03  0.15684096790E+03  0.41800000000E+01 0.  1.
        -11    1    1    2    0    0  0.75365604330E+02  0.79886190970E+01  0.36840649596E+02  0.84267584597E+02  0.00000000000E+00 0. -1.
         11    1    1    2    0    0 -0.65323288823E+01  0.29928199566E+02 -0.14646777627E+02  0.33954330279E+02  0.00000000000E+00 0.  1.
</event>
<event>
 6    1  0.6981059E-006  0.1187994E+03  0.7561462E-02  0.1245091E+00
          2   -1    0    0  501    0  0.00000000000E+00  0.00000000000E+00  0.14965121193E+03  0.14965121193E+03  0.00000000000E+00 0.  1.
         -2   -1    0    0    0  501 -0.00000000000E+00 -0.00000000000E+00 -0.14792459535E+03  0.14792459535E+03  0.00000000000E+00 0. -1.
          5    1    1    2  502    0  0.28544567352E+01  0.50765586703E+02  0.59405592347E+02  0.78305743842E+02  0.41800000000E+01 0. -1.
         -5    1    1    2    0  502  0.41355574022E+02  0.41028033153E+02 -0.59012222219E+02  0.83027090629E+02  0.41800000000E+01 0. -1.
        -11    1    1    2    0    0 -0.20134750594E+00 -0.83369231465E+02 -0.21294218740E+02  0.86045993792E+02  0.00000000000E+00 0. -1.
         11    1    1    2    0    0 -0.44008683251E+02 -0.84243883910E+01  0.22627465187E+02  0.50196979013E+02  0.00000000000E+00 0.  1.
</event>
<event>
 6    1  0.6981059E-006  0.1301242E+03  0.7561462E-02  0.1227272E+00
          1   -1    0    0  501    0  0.00000000000E+00  0.00000000000E+00  0.10586506922E+04  0.10586506922E+04  0.00000000000E+00 0. -1.
         -1   -1    0    0    0  501 -0.00000000000E+00 -0.00000000000E+00 -0.16883210151E+02  0.16883210151E+02  0.00000000000E+00 0.  1.
          5    1    1    2  502    0 -0.27831321199E+02 -0.31113313539E+02  0.10056440641E+03  0.10896464085E+03  0.41800000000E+01 0. -1.
         -5    1    1    2    0  502  0.10033174326E+03  0.11423940784E+02  0.38570677776E+03  0.39872817300E+03  0.41800000000E+01 0. -1.
        -11    1    1    2    0    0  0.18457430796E+02 -0.10692101573E+02  0.81815063256E+02  0.84549999192E+02  0.00000000000E+00 0.  1.
         11    1    1    2    0    0 -0.90957852855E+02  0.30381474328E+02  0.47368123463E+03  0.48329108932E+03  0.00000000000E+00 0. -1.
</event>
<event>
 6    1  0.6981059E-006  0.1238789E+03  0.7561462E-02  0.1236832E+00
          3   -1    0    0  501    0  0.00000000000E+00  0.00000000000E+00  0.15897157935E+03  0.15897157935E+03  0.00000000000E+00 0. -1.
         -3   -1    0    0    0  501 -0.00000000000E+00 -0.00000000000E+00 -0.11148193469E+03  0.11148193469E+03  0.00000000000E+00 0.  1.
          5    1    1    2  502    0  0.64757041593E+02  0.42179675450E+02 -0.10846715039E+02  0.78151923099E+02  0.41800000000E+01 0.  1.
         -5    1    1    2    0  502 -0.69301022834E+01 -0.61148178372E+02 -0.11446826239E+02  0.62734585890E+02  0.41800000000E+01 0.  1.
        -11    1    1    2    0    0 -0.31305651098E+02 -0.35964309122E+02  0.36728488832E+02  0.60186852494E+02  0.00000000000E+00 0. -1.
         11    1    1    2    0    0 -0.26521288211E+02  0.54932812044E+02  0.33054697103E+02  0.69380152551E+02  0.00000000000E+00 0.  1.
</event>
<event>
 6    1  0.6981059E-006  0.1154019E+03  0.7561462E-02  0.1250881E+00
         -2   -1    0    0    0  501 -0.00000000000E+00  0.00000000000E+00  0.84586135848E+02  0.84586135848E+02  0.00000000000E+00 0. -1.
          2   -1    0    0  501    0  0.00000000000E+00 -0.00000000000E+00 -0.21111520040E+03  0.21111520040E+03  0.00000000000E+00 0.  1.
          5    1    1    2  502    0  0.34277132135E+02 -0.36589130877E+02 -0.25869576943E+02  0.56572022210E+02  0.41800000000E+01 0.  1.
         -5    1    1    2    0  502 -0.68521982909E+02  0.22791883332E+02  0.16470494650E+02  0.74185454650E+02  0.41800000000E+01 0.  1.
        -11    1    1    2    0    0 -0.28121541925E+02 -0.22486127544E+02 -0.70130125414E+02  0.78833251504E+02  0.00000000000E+00 0.  1.
         11    1    1    2    0    0  0.62366392699E+02  0.36283375089E+02 -0.46999856841E+02  0.86110607879E+02  0.00000000000E+00 0. -1.
</event>
<event>
 6    1  0.6981059E-006  0.1011616E+03  0.7561462E-02  0.1277872E+00
         -3   -1    0    0    0  501 -0.00000000000E+00  0.00000000000E+00  0.59436550948E+02  0.59436550948E+02  0.00000000000E+00 0. -1.
          3   -1    0    0  501    0  0.00000000000E+00 -0.00000000000E+00 -0.28820488058E+03  0.28820488058E+03  0.00000000000E+00 0.  1.
          5    1    1    2  502    0  0.43623608174E+02  0.17871411169E+02 -0.11746345292E+03  0.12663941606E+03  0.41800000000E+01 0. -1.
         -5    1    1    2    0  502 -0.12951047667E+01  0.53757182366E+02  0.14138057473E+02  0.55757232907E+02  0.41800000000E+01 0. -1.
        -11    1    1    2    0    0 -0.44463778187E+02 -0.18940951985E+02 -0.32042314841E+02  0.57987043149E+02  0.00000000000E+00 0.  1.
         11    1    1    2    0    0  0.21352747798E+01 -0.52687641550E+02 -0.93400619344E+02  0.10725773941E+03  0.00000000000E+00 0. -1.
</event>
<event>
 6    1  0.6981059E-006  0.1210482E+03  0.7561462E-02  0.1241378E+00
          1   -1    0    0  501    0  0.00000000000E+00  0.00000000000E+00  0.39631414059E+03  0.39631414059E+03  0.00000000000E+00 0. -1.
         -1   -1    0    0    0  501 -0.00000000000E+00 -0.00000000000E+00 -0.42830707148E+02  0.42830707148E+02  0.00000000000E+00 0.  1.
          5    1    1    2  502    0  0.75040979154E+02  0.74072653076E+02  0.11895601743E+03  0.15901544884E+03  0.41800000000E+01 0.  1.
         -5    1    1    2    0  502 -0.24417115073E+02 -0.27298137074E+02  0.52152707570E+02  0.63865179112E+02  0.41800000000E+01 0.  1.
        -11    1    1    2    0    0  0.11444610409E+02 -0.34619362554E+02  0.12723277514E+03  0.13235429136E+03  0.00000000000E+00 0. -1.
         11    1    1    2    0    0 -0.62068474490E+02 -0.12155153448E+02  0.55141933301E+02  0.83909928429E+02  0.00000000000E+00 0.  1.
</event>
<event>
 6    1  0.6981059E-006  0.2313690E+03  0.7561462E-02  0.1125680E+00
         -1   -1    0    0    0  501 -0.00000000000E+00  0.00000000000E+00  0.11341941776E+03  0.11341941776E+03  0.00000000000E+00 0.  1.
          1   -1    0    0  501    0  0.00000000000E+00 -0.00000000000E+00 -0.64402671479E+03  0.64402671479E+03  0.00000000000E+00 0. -1.
          5    1    1    2  502    0  0.46604429899E+01  0.14767556725E+03 -0.30431821459E+02  0.15090845254E+03  0.41800000000E+01 0.  1.
         -5    1    1    2    0  502 -0.77153868882E+02  0.52446425935E+02 -0.65040067345E+02  0.11380259152E+03  0.41800000000E+01 0.  1.
        -11    1    1    2    0    0 -0.41364271903E+01 -0.72965320915E+02 -0.83038943725E+02  0.11061877897E+03  0.00000000000E+00 0. -1.
         11    1    1    2    0    0  0.76629853082E+02 -0.12715667227E+03 -0.35209646450E+03  0.38211630952E+03  0.00000000000E+00 0.  1.
</event>
<event>
 6    1  0.6981059E-006  0.2738402E+03  0.7561462E-02  0.1099102E+00
         -2   -1    0    0    0  501 -0.00000000000E+00  0.00000000000E+00  0.68856346249E+02  0.68856346249E+02  0.00000000000E+00 0.  1.
          2   -1    0    0  501    0  0.00000000000E+00 -0.00000000000E+00 -0.13218436800E+04  0.13218436800E+04  0.00000000000E+00 0. -1.
          5    1    1    2  502    0 -0.23016889552E+01  0.13231823343E+03 -0.33805472677E+03  0.36305906319E+03  0.41800000000E+01 0. -1.
         -5    1    1    2    0  502 -0.77233557400E+01  0.13686947674E+03 -0.11665750019E+03  0.18005373819E+03  0.41800000000E+01 0. -1.
        -11    1    1    2    0    0 -0.29949643802E+02 -0.11239015323E+03 -0.42751329868E+03  0.44305321154E+03  0.00000000000E+00 0.  1.
         11    1    1    2    0    0  0.39974688497E+02 -0.15679755694E+03 -0.37076180808E+03  0.40453401329E+03  0.00000000000E+00 0. -1.
</event>
<event>
 6    1  0.6981059E-006  0.1246541E+03  0.7561462E-02  0.1235611E+00
          2   -1    0    0  501    0  0.00000000000E+00  0.00000000000E+00  0.80780177363E+03  0.80780177363E+03  0.00000000000E+00 0.  1.
         -2   -1    0    0    0  501 -0.00000000000E+00 -0.00000000000E+00 -0.19957997930E+02  0.19957997930E+02  0.00000000000E+00 0. -1.
          5    1    1    2  502    0 -0.73655536901E+02  0.67922855899E+02  0.33218920102E+03  0.34699537482E+03  0.41800000000E+01 0.  1.
         -5    1    1    2    0  502  0.16799977682E+02 -0.33649656495E+02  0.72931225584E+02  0.82164315232E+02  0.41800000000E+01 0.  1.
        -11    1    1    2    0    0  0.76954839937E+02 -0.44225417968E+02  0.29575454336E+03  0.30878582368E+03  0.00000000000E+00 0.  1.
         11    1    1    2    0    0 -0.20099280718E+02  0.99522185635E+01  0.86968805728E+02  0.89814257829E+02  0.00000000000E+00 0. -1.
</event>
<event>
 6    1  0.6981059E-006  0.8261832E+02  0.7561462E-02  0.1321781E+00
         -2   -1    0    0    0  501 -0.00000000000E+00  0.00000000000E+00  0.41897262279E+03  0.41897262279E+03  0.00000000000E+00 0.  1.
          2   -1    0    0  501    0  0.00000000000E+00 -0.00000000000E+00 -0.33701200410E+02  0.33701200410E+02  0.00000000000E+00 0. -1.
          5    1    1    2  502    0 -0.45584136054E+02 -0.24894438234E+02  0.22681420830E+03  0.23272259023E+03  0.41800000000E+01 0. -1.
         -5    1    1    2    0  502  0.30743325624E+02  0.46765281299E+02  0.65032257233E+02  0.85900002830E+02  0.41800000000E+01 0. -1.
        -11    1    1    2    0    0  0.20525421023E+02 -0.36188185755E+02  0.10618742555E+03  0.11404668799E+03  0.00000000000E+00 0.  1.
         11    1    1    2    0    0 -0.56846105928E+01  0.14317342690E+02 -0.12762468704E+02  0.20004542152E+02  0.00000000000E+00 0. -1.
</event>
<event>
 6    1  0.6981059E-006  0.1467740E+03  0.7561462E-02  0.1204494E+00
          1   -1    0    0  501    0  0.00000000000E+00  0.00000000000E+00  0.12420323409E+03  0.12420323409E+03  0.00000000000E+00 0. -1.
         -1   -1    0    0    0  501 -0.00000000000E+00 -0.00000000000E+00 -0.23530566400E+03  0.23530566400E+03  0.00000000000E+00 0.  1.
          5    1    1    2  502    0 -0.12236564920E+03  0.53491582353E+02 -0.10045894212E+03  0.16716510682E+03  0.41800000000E+01 0. -1.
         -5    1    1    2    0  502  0.73466488524E+01 -0.35710261062E+02 -0.19092494043E+02  0.41366553195E+02  0.41800000000E+01 0. -1.
        -11    1    1    2    0    0  0.75026880581E+02 -0.30913490473E+02  0.47105065316E+02  0.93827308825E+02  0.00000000000E+00 0. -1.
         11    1    1    2    0    0  0.39992119764E+02  0.13132169182E+02 -0.38656059067E+02  0.57149929250E+02  0.00000000000E+00 0.  1.
</event>
<event>
 6    1  0.6981059E-006  0.1460407E+03  0.7561462E-02  0.1205424E+00
         -1   -1    0    0    0  501 -0.00000000000E+00  0.00000000000E+00  0.13240338890E+03  0.13240338890E+03  0.00000000000E+00 0.  1.
          1   -1    0    0  501    0  0.00000000000E+00 -0.00000000000E+00 -0.26572455634E+03  0.26572455634E+03  0.00000000000E+00 0. -1.
          5    1    1    2  502    0  0.46368229083E+02 -0.12017690528E+03  0.52604606680E+02  0.13920207712E+03  0.41800000000E+01 0. -1.
         -5    1    1    2    0  502 -0.10606375746E+02  0.27059001323E+02  0.47094612260E+00  0.29366289335E+02  0.41800000000E+01 0. -1.
        -11    1    1    2    0    0 -0.43063730005E+02  0.27228284759E+01 -0.55046343435E+02  0.69942823523E+02  0.00000000000E+00 0.  1.
         11    1    1    2    0    0  0.73018766670E+01  0.90395075483E+02 -0.13135037680E+03  0.15961675526E+03  0.00000000000E+00 0. -1.
</event>
<event>
 6    1  0.6981059E-006  0.1954986E+03  0.7561462E-02  0.1153593E+00
          2   -1    0    0  501    0  0.00000000000E+00  0.00000000000E+00  0.81371732784E+03  0.81371732784E+03  0.00000000000E+00 0. -1.
         -2   -1    0    0    0  501 -0.00000000000E+00 -0.00000000000E+00 -0.59275263832E+02  0.59275263832E+02  0.00000000000E+00 0.  1.
          5    1    1    2  502    0  0.88824739060E+02  0.46192854489E+02  0.32861060308E+03  0.34354914486E+03  0.41800000000E+01 0. -1.
         -5    1    1    2    0  502 -0.12713789091E+03 -0.11448916358E+03  0.14601370689E+03  0.22496507925E+03  0.41800000000E+01 0.  1.
        -11    1    1    2    0    0  0.67779891917E+02  0.39499499446E+02  0.17156917141E+03  0.18865392861E+03  0.00000000000E+00 0.  1.
         11    1    1    2    0    0 -0.29466740065E+02  0.28796809646E+02  0.10824858263E+03  0.11582443895E+03  0.00000000000E+00 0. -1.
</event>
<event>
 6    1  0.6981059E-006  0.8519972E+02  0.7561462E-02  0.1314911E+00
          2   -1    0    0  501    0  0.00000000000E+00  0.00000000000E+00  0.53347593643E+02  0.53347593643E+02  0.00000000000E+00 0. -1.
         -2   -1    0    0    0  501 -0.00000000000E+00 -0.00000000000E+00 -0.25346177180E+03  0.25346177180E+03  0.00000000000E+00 0.  1.
          5    1    1    2  502    0 -0.51634465256E+02 -0.17840757267E+02 -0.14809572093E+03  0.15790574904E+03  0.41800000000E+01 0.  1.
         -5    1    1    2    0  502  0.26989442084E+02 -0.10796161368E+02  0.11126458279E+02  0.31404737829E+02  0.41800000000E+01 0.  1.
        -11    1    1    2    0    0  0.19065891020E+02  0.55563617956E+02 -0.12782785913E+02  0.60118411958E+02  0.00000000000E+00 0. -1.
         11    1    1    2    0    0  0.55791321528E+01 -0.26926699321E+02 -0.50362129599E+02  0.57380466621E+02  0.00000000000E+00 0.  1.
</event>
<event>
 6    1  0.6981059E-006  0.9609839E+02  0.7561462E-02  0.1288721E+00
          1   -1    0    0  501    0  0.00000000000E+00  0.00000000000E+00  0.27031593870E+02  0.27031593870E+02  0.00000000000E+00 0. -1.
         -1   -1    0    0    0  501 -0.00000000000E+00 -0.00000000000E+00 -0.64158970348E+03  0.64158970348E+03  0.00000000000E+00 0.  1.
          5    1    1    2  502    0 -0.10528007919E+01  0.53297968128E+02 -0.20114447474E+03  0.20813061744E+03  0.41800000000E+01 0. -1.
         -5    1    1    2    0  502 -0.31547636144E+02 -0.69911994106E+02 -0.30739444286E+03  0.31684658144E+03  0.41800000000E+01 0. -1.
        -11    1    1    2    0    0 -0.31837816085E+01  0.24963130043E+02 -0.10382723932E+03  0.10683346832E+03  0.00000000000E+00 0.  1.
         11    1    1    2    0    0  0.35784218545E+02 -0.83491040655E+01 -0.21919526752E+01  0.36810630151E+02  0.00000000000E+00 0. -1.
</event>
<event>
 6    1  0.6981059E-006  0.1443063E+03  0.7561462E-02  0.1207649E+00
         -1   -1    0    0    0  501 -0.00000000000E+00  0.00000000000E+00  0.92937918868E+03  0.92937918868E+03  0.00000000000E+00 0.  1.
          1   -1    0    0  501    0  0.00000000000E+00 -0.00000000000E+00 -0.49398837401E+02  0.49398837401E+02  0.00000000000E+00 0. -1.
          5    1    1    2  502    0  0.53769616910E+02 -0.93268540974E+02  0.39069365206E+03  0.40527668894E+03  0.41800000000E+01 0. -1.
         -5    1    1    2    0  502  0.38884190734E+02  0.29989750883E+02  0.40359214952E+03  0.40659004046E+03  0.41800000000E+01 0. -1.
        -11    1    1    2    0    0 -0.58980148879E+02  0.75465464938E+02  0.29397104870E+02  0.10018924161E+03  0.00000000000E+00 0.  1.
         11    1    1    2    0    0 -0.33673658765E+02 -0.12186674848E+02  0.56297444840E+02  0.66722055078E+02  0.00000000000E+00 0. -1.
</event>
<event>
 6    1  0.6981059E-006  0.2337750E+03  0.7561462E-02  0.1124011E+00
         -2   -1    0    0    0  501 -0.00000000000E+00  0.00000000000E+00  0.19871247473E+03  0.19871247473E+03  0.00000000000E+00 0. -1.
          2   -1    0    0  501    0  0.00000000000E+00 -0.00000000000E+00 -0.33365581866E+03  0.33365581866E+03  0.00000000000E+00 0.  1.
          5    1    1    2  502    0  0.14502353257E+03  0.75810210227E+02  0.26618284745E+02  0.16584637004E+03  0.41800000000E+01 0.  1.
         -5    1    1    2    0  502  0.53392044365E+02  0.44694337889E+02 -0.74694025155E+02  0.10220060682E+03  0.41800000000E+01 0.  1.
        -11    1    1    2    0    0 -0.67607498124E+02 -0.24778015974E+02  0.14073276310E+02  0.73367438174E+02  0.00000000000E+00 0. -1.
         11    1    1    2    0    0 -0.13080807881E+03 -0.95726532142E+02 -0.10094087983E+03  0.19095387836E+03  0.00000000000E+00 0.  1.
</event>
<event>
 6    1  0.6981059E-006  0.4440766E+02  0.7561462E-02  0.1478074E+00
          1   -1    0    0  501    0  0.00000000000E+00  0.00000000000E+00  0.24577481489E+03  0.24577481489E+03  0.00000000000E+00 0. -1.
         -1   -1    0    0    0  501 -0.00000000000E+00 -0.00000000000E+00 -0.66858731370E+02  0.66858731370E+02  0.00000000000E+00 0.  1.
          5    1    1    2  502    0  0.62745582079E+01 -0.33014866012E+01 -0.53190701041E+02  0.53823721273E+02  0.41800000000E+01 0. -1.
         -5    1    1    2    0  502 -0.14544208495E+02 -0.56575817931E+01  0.71358656351E+02  0.73164694141E+02  0.41800000000E+01 0. -1.
        -11    1    1    2    0    0 -0.52347131387E+01 -0.26224879670E+02  0.74187383199E+01  0.27752192952E+02  0.00000000000E+00 0.  1.
         11    1    1    2    0    0  0.13504363426E+02  0.35183948065E+02  0.15332938989E+03  0.15789293789E+03  0.00000000000E+00 0. -1.
</event>
<event>
 6    1  0.6981059E-006  0.1647114E+03  0.7561462E-02  0.1183478E+00
          2   -1    0    0  501    0  0.00000000000E+00  0.00000000000E+00  0.16932030457E+03  0.16932030457E+03  0.00000000000E+00 0. -1.
         -2   -1    0    0    0  501 -0.00000000000E+00 -0.00000000000E+00 -0.19308736596E+03  0.19308736596E+03  0.00000000000E+00 0.  1.
          5    1    1    2  502    0  0.36051749240E+02  0.13518324104E+03  0.68459225706E+01  0.14013770491E+03  0.41800000000E+01 0. -1.
         -5    1    1    2    0  502 -0.21230156180E+02  0.62389763839E+01 -0.48937262172E+02  0.53869958108E+02  0.41800000000E+01 0. -1.
        -11    1    1    2    0    0  0.36881711009E+02 -0.62967618626E+02  0.17820378413E+01  0.72995597547E+02  0.00000000000E+00 0.  1.
         11    1    1    2    0    0 -0.51703304070E+02 -0.78454598801E+02  0.16542240369E+02  0.95404409967E+02  0.00000000000E+00 0. -1.
</event>
<event>
 6    1  0.6981059E-006  0.1662488E+03  0.7561462E-02  0.1181817E+00
         -2   -1    0    0    0  501 -0.00000000000E+00  0.00000000000E+00  0.14031761325E+04  0.14031761325E+04  0.00000000000E+00 0.  1.
          2   -1    0    0  501    0  0.00000000000E+00 -0.00000000000E+00 -0.26075442389E+02  0.26075442389E+02  0.00000000000E+00 0. -1.
          5    1    1    2  502    0  0.83935390147E+02 -0.66484676422E+02  0.72322292553E+03  0.73111848173E+03  0.41800000000E+01 0.  1.
         -5    1    1    2    0  502  0.51022362989E+02 -0.14417540465E+02  0.74467611663E+02  0.91509805949E+02  0.41800000000E+01 0.  1.
        -11    1    1    2    0    0 -0.11128009831E+03  0.28832711657E+02  0.46106715472E+03  0.47518155131E+03  0.00000000000E+00 0. -1.
         11    1    1    2    0    0 -0.23677654828E+02  0.52069505230E+02  0.11834299816E+03  0.13144173586E+03  0.00000000000E+00 0.  1.
</event>
<event>
 6    1  0.6981059E-006  0.1154836E+03  0.7561462E-02  0.1250739E+00
         -2   -1    0    0    0  501 -0.00000000000E+00  0.00000000000E+00  0.21965792153E+02  0.21965792153E+02  0.00000000000E+00 0.  1.
          2   -1    0    0  501    0  0.00000000000E+00 -0.00000000000E+00 -0.79283843578E+03  0.79283843578E+03  0.00000000000E+00 0. -1.
          5    1    1    2  502    0 -0.53433662724E+01  0.53213664052E+02 -0.55190123096E+02  0.76965366836E+02  0.41800000000E+01 0.  1.
         -5    1    1    2    0  502  0.62681535084E+02 -0.26124961969E+02 -0.24670004320E+03  0.25590989076E+03  0.41800000000E+01 0.  1.
        -11    1    1    2    0    0 -0.74348178051E+02  0.33430202269E+01 -0.27794547785E+03  0.28773688679E+03  0.00000000000E+00 0. -1.
         11    1    1    2    0    0  0.17010009239E+02 -0.30431722309E+02 -0.19103699948E+03  0.19419208354E+03  0.00000000000E+00 0.  1.
</event>
<event>
 6    1  0.6981059E-006  0.2062107E+03  0.7561462E-02  0.1144602E+00
         -2   -1    0    0    0  501 -0.00000000000E+00  0.00000000000E+00  0.13489898589E+03  0.13489898589E+03  0.00000000000E+00 0.  1.
          2   -1    0    0  501    0  0.00000000000E+00 -0.00000000000E+00 -0.35089803362E+03  0.35089803362E+03  0.00000000000E+00 0. -1.
          5    1    1    2  502    0 -0.45808709157E+02 -0.30736474576E+02  0.33540460875E+01  0.55424640090E+02  0.41800000000E+01 0. -1.
         -5    1    1    2    0  502  0.63465884510E+02 -0.14589294024E+03 -0.48216266567E+02  0.16629777289E+03  0.41800000000E+01 0. -1.
        -11    1    1    2    0    0 -0.51269571877E+02  0.74590185478E+02 -0.10175738457E+03  0.13618674710E+03  0.00000000000E+00 0.  1.
         11    1    1    2    0    0  0.33612396525E+02  0.10203922934E+03 -0.69379442669E+02  0.12788785943E+03  0.00000000000E+00 0. -1.
</event>
<event>
 6    1  0.6981059E-006  0.2206024E+03  0.7561462E-02  0.1133435E+00
          2   -1    0    0  501    0  0.00000000000E+00  0.00000000000E+00  0.24055179061E+03  0.24055179061E+03  0.00000000000E+00 0. -1.
         -2   -1    0    0    0  501 -0.00000000000E+00 -0.00000000000E+00 -0.21811491578E+03  0.21811491578E+03  0.00000000000E+00 0.  1.
          5    1    1    2  502    0  0.79041076711E+02 -0.13144702880E+02  0.18213833246E+02  0.82276917438E+02  0.41800000000E+01 0.  1.
         -5    1    1    2    0  502  0.37547897230E+02 -0.15063651600E+03  0.13202810100E+01  0.15530750169E+03  0.41800000000E+01 0.  1.
        -11    1    1    2    0    0 -0.10602394347E+03  0.11779309953E+03 -0.32888496898E+02  0.16185778978E+03  0.00000000000E+00 0.  1.
         11    1    1    2    0    0 -0.10565030469E+02  0.45988119350E+02  0.35791257479E+02  0.59224497483E+02  0.00000000000E+00 0. -1.
</event>
<event>
 6    1  0.6981059E-006  0.1909049E+03  0.7561462E-02  0.1157648E+00
         -2   -1    0    0    0  501 -0.00000000000E+00  0.00000000000E+00  0.30324065448E+03  0.30324065448E+03  0.00000000000E+00 0.  1.
          2   -1    0    0  501    0  0.00000000000E+00 -0.00000000000E+00 -0.14180044912E+03  0.14180044912E+03  0.00000000000E+00 0. -1.
          5    1    1    2  502    0 -0.16512630103E+02  0.13469477244E+02  0.30527549334E+02  0.37463281203E+02  0.41800000000E+01 0. -1.
         -5    1    1    2    0  502  0.16745376927E+03 -0.60441396816E+02  0.13801971301E+03  0.22530166638E+03  0.41800000000E+01 0. -1.
        -11    1    1    2    0    0 -0.10272937962E+03  0.74129605096E+02 -0.18984279728E+01  0.12669699214E+03  0.00000000000E+00 0.  1.
         11    1    1    2    0    0 -0.48211759544E+02 -0.27157685524E+02 -0.52086290174E+01  0.55579163880E+02  0.00000000000E+00 0. -1.
</event>
<event>
 6    1  0.6981059E-006  0.1165974E+03  0.7561462E-02  0.1248818E+00
         -1   -1    0    0    0  501 -0.00000000000E+00  0.00000000000E+00  0.14551556293E+03  0.14551556293E+03  0.00000000000E+00 0.  1.
          1   -1    0    0  501    0  0.00000000000E+00 -0.00000000000E+00 -0.11790703388E+03  0.11790703388E+03  0.00000000000E+00 0. -1.
          5    1    1    2  502    0  0.40138409685E+02  0.44601741713E+02 -0.33546056610E+01  0.60242286436E+02  0.41800000000E+01 0.  1.
         -5    1    1    2    0  502 -0.78400503246E+02  0.16948800634E+02  0.35702049816E+02  0.87897721889E+02  0.41800000000E+01 0.  1.
        -11    1    1    2    0    0 -0.28788819585E+01 -0.49877616682E+02  0.31640704596E+02  0.59137118585E+02  0.00000000000E+00 0.  1.
         11    1    1    2    0    0  0.41140975520E+02 -0.11672925665E+02 -0.36379619708E+02  0.56145469901E+02  0.00000000000E+00 0. -1.
</event>
<event>
 6    1  0.6981059E-006  0.8722183E+02  0.7561462E-02  0.1309722E+00
          2   -1    0    0  501    0  0.00000000000E+00  0.00000000000E+00  0.91222677530E+02  0.91222677530E+02  0.00000000000E+00 0. -1.
         -2   -1    0    0    0  501 -0.00000000000E+00 -0.00000000000E+00 -0.17903363265E+03  0.17903363265E+03  0.00000000000E+00 0.  1.
          5    1    1    2  502    0 -0.29835786768E+02  0.58569764818E+01  0.32140182045E+02  0.44440320065E+02  0.41800000000E+01 0. -1.
         -5    1    1    2    0  502 -0.27375980702E+02 -0.37413807603E+02 -0.10396795600E+03  0.11391244705E+03  0.41800000000E+01 0. -1.
        -11    1    1    2    0    0  0.12542933831E+02 -0.23299945277E+02 -0.29769130306E+02  0.39829809919E+02  0.00000000000E+00 0.  1.
         11    1    1    2    0    0  0.44668833638E+02  0.54856776398E+02  0.13785949143E+02  0.72073733143E+02  0.00000000000E+00 0. -1.
</event>
<event>
 6    1  0.6981059E-006  0.1021728E+03  0.7561462E-02  0.1275792E+00
         -4   -1    0    0    0  501 -0.00000000000E+00  0.00000000000E+00  0.74547326311E+02  0.74547326311E+02  0.00000000000E+00 0.  1.
          4   -1    0    0  501    0  0.00000000000E+00 -0.00000000000E+00 -0.18705623250E+03  0.18705623250E+03  0.00000000000E+00 0. -1.
          5    1    1    2  502    0  0.61887461453E+02  0.52101915736E+02 -0.28516186610E+02  0.85879641401E+02  0.41800000000E+01 0.  1.
         -5    1    1    2    0  502 -0.15283473322E+02 -0.48578623510E+02 -0.35411294862E+02  0.62168315263E+02  0.41800000000E+01 0.  1.
        -11    1    1    2    0    0 -0.46957472535E+02 -0.23328379546E+02 -0.67965971556E+02  0.85840496321E+02  0.00000000000E+00 0. -1.
         11    1    1    2    0    0  0.35348440391E+00  0.19805087321E+02  0.19384546837E+02  0.27715105828E+02  0.00000000000E+00 0.  1.
</event>
<event>
 6    1  0.6981059E-006  0.1111698E+03  0.7561462E-02  0.1258419E+00
         -2   -1    0    0    0  501 -0.00000000000E+00  0.00000000000E+00  0.10930732872E+02  0.10930732872E+02  0.00000000000E+00 0.  1.
          2   -1    0    0  501    0  0.00000000000E+00 -0.00000000000E+00 -0.13483524531E+04  0.13483524531E+04  0.00000000000E+00 0. -1.
          5    1    1    2  502    0  0.73951841112E+02  0.24170123273E+02 -0.27915848713E+03  0.28982754010E+03  0.41800000000E+01 0.  1.
         -5    1    1    2    0  502 -0.17153033721E+02 -0.35842834314E+02 -0.48715754147E+03  0.48879328754E+03  0.41800000000E+01 0.  1.
        -11    1    1    2    0    0  0.73587018537E+01  0.35331869738E+02 -0.17265953245E+03  0.17639105890E+03  0.00000000000E+00 0.  1.
         11    1    1    2    0    0 -0.64157509245E+02 -0.23659158697E+02 -0.39844615923E+03  0.40427129948E+03  0.00000000000E+00 0. -1.
</event>
<event>
 6    1  0.6981059E-006  0.1634874E+03  0.7561462E-02  0.1184815E+00
         -2   -1    0    0    0  501 -0.00000000000E+00  0.00000000000E+00  0.16722348422E+03  0.16722348422E+03  0.00000000000E+00 0.  1.
          2   -1    0    0  501    0  0.00000000000E+00 -0.00000000000E+00 -0.16185207507E+03  0.16185207507E+03  0.00000000000E+00 0. -1.
          5    1    1    2  502    0 -0.12789788968E+02  0.24889198173E+02 -0.58088419449E+01  0.28883662031E+02  0.41800000000E+01 0. -1.
         -5    1    1    2    0  502 -0.58498774628E+01 -0.14630780785E+03  0.13920970040E+01  0.14649097596E+03  0.41800000000E+01 0. -1.
        -11    1    1    2    0    0 -0.30746937381E+02  0.13629423768E+02  0.10168020123E+02  0.35135793484E+02  0.00000000000E+00 0. -1.
         11    1    1    2    0    0  0.49386603812E+02  0.10778918591E+03 -0.37986603520E+00  0.11856512781E+03  0.00000000000E+00 0.  1.
</event>
<event>
 6    1  0.6981059E-006  0.1113273E+03  0.7561462E-02  0.1258131E+00
         -2   -1    0    0    0  501 -0.00000000000E+00  0.00000000000E+00  0.22513540658E+02  0.22513540658E+02  0.00000000000E+00 0.  1.
          2   -1    0    0  501    0  0.00000000000E+00 -0.00000000000E+00 -0.88924354325E+03  0.88924354325E+03  0.00000000000E+00 0. -1.
          5    1    1    2  502    0  0.54535721922E+02 -0.51344550692E+01 -0.34070427347E+03  0.34510488544E+03  0.41800000000E+01 0.  1.
         -5    1    1    2    0  502 -0.27008594532E+02  0.79663054441E+02 -0.24567920344E+03  0.25971409247E+03  0.41800000000E+01 0.  1.
        -11    1    1    2    0    0 -0.19689989649E+02 -0.18810089206E+02 -0.73527106604E+01  0.28205983449E+02  0.00000000000E+00 0.  1.
         11    1    1    2    0    0 -0.78371377414E+01 -0.55718510166E+02 -0.27299381502E+03  0.27873212255E+03  0.00000000000E+00 0. -1.
</event>
<event>
 6    1  0.6981059E-006  0.1296823E+03  0.7561462E-02  0.1227928E+00
         -3   -1    0    0    0  501 -0.00000000000E+00  0.00000000000E+00  0.74314459080E+02  0.74314459080E+02  0.00000000000E+00 0.  1.
          3   -1    0    0  501    0  0.00000000000E+00 -0.00000000000E+00 -0.24172077004E+03  0.24172077004E+03  0.00000000000E+00 0. -1.
          5    1    1    2  502    0 -0.10282325937E+03  0.17046917592E+02 -0.33309022300E+02  0.10949969604E+03  0.41800000000E+01 0. -1.
         -5    1    1    2    0  502  0.35280312231E+02 -0.20188542910E+02 -0.27254221912E+02  0.49117641515E+02  0.41800000000E+01 0.  1.
        -11    1    1    2    0    0  0.30867092068E+02 -0.44444507663E+02 -0.62960149457E+02  0.83018504286E+02  0.00000000000E+00 0.  1.
         11    1    1    2    0    0  0.36675855072E+02  0.47586132981E+02 -0.43882917290E+02  0.74399387276E+02  0.00000000000E+00 0. -1.
</event>
<event>
 6    1  0.6981059E-006  0.1533812E+03  0.7561462E-02  0.1196379E+00
          1   -1    0    0  501    0  0.00000000000E+00  0.00000000000E+00  0.80815260788E+03  0.80815260788E+03  0.00000000000E+00 0. -1.
         -1   -1    0    0    0  501 -0.00000000000E+00 -0.00000000000E+00 -0.42028436007E+02  0.42028436007E+02  0.00000000000E+00 0.  1.
          5    1    1    2  502    0 -0.36962676852E+02  0.14428690959E+01  0.89402468759E+01  0.38284745859E+02  0.41800000000E+01 0. -1.
         -5    1    1    2    0  502 -0.10858205833E+03 -0.15573556434E+02  0.38184939703E+03  0.39731477881E+03  0.41800000000E+01 0. -1.
        -11    1    1    2    0    0  0.39374401671E+02 -0.24966846058E+02  0.42661882489E+02  0.63195910679E+02  0.00000000000E+00 0. -1.
         11    1    1    2    0    0  0.10617033351E+03  0.39097533396E+02  0.33267264548E+03  0.35138560853E+03  0.00000000000E+00 0.  1.
</event>
<event>
 6    1  0.6981059E-006  0.5706960E+02  0.7561462E-02  0.1410558E+00
         -2   -1    0    0    0  501 -0.00000000000E+00  0.00000000000E+00  0.40644546085E+02  0.40644546085E+02  0.00000000000E+00 0.  1.
          2   -1    0    0  501    0  0.00000000000E+00 -0.00000000000E+00 -0.31051494568E+03  0.31051494568E+03  0.00000000000E+00 0. -1.
          5    1    1    2  502    0  0.24441876975E+02 -0.15513063889E+02 -0.17519034865E+03  0.17761528977E+03  0.41800000000E+01 0.  1.
         -5    1    1    2    0  502  0.21088168548E+01  0.21607247929E+01  0.21876335458E+02  0.22475815741E+02  0.41800000000E+01 0.  1.
        -11    1    1    2    0    0 -0.27955833629E+02 -0.27289503591E+02 -0.99638169571E+02  0.10702341088E+03  0.00000000000E+00 0. -1.
         11    1    1    2    0    0  0.14051397989E+01  0.40641842687E+02 -0.16918216830E+02  0.44044975372E+02  0.00000000000E+00 0.  1.
</event>
<event>
 6    1  0.6981059E-006  0.1016002E+03  0.7561462E-02  0.1276966E+00
         -1   -1    0    0    0  501 -0.00000000000E+00  0.00000000000E+00  0.21166576841E+03  0.21166576841E+03  0.00000000000E+00 0.  1.
          1   -1    0    0  501    0  0.00000000000E+00 -0.00000000000E+00 -0.65100910236E+02  0.65100910236E+02  0.00000000000E+00 0. -1.
          5    1    1    2  502    0 -0.44241499119E+02 -0.61555207968E+02  0.41889450224E+02  0.86709586047E+02  0.41800000000E+01 0. -1.
         -5    1    1    2    0  502  0.23108196591E+01  0.55381277648E+02  0.19775475430E+02  0.58999725676E+02  0.41800000000E+01 0. -1.
        -11    1    1    2    0    0  0.56521604500E+02  0.76128345601E+01  0.14091683159E+02  0.58747106819E+02  0.00000000000E+00 0. -1.
         11    1    1    2    0    0 -0.14590925040E+02 -0.14389042402E+01  0.70808249365E+02  0.72310260109E+02  0.00000000000E+00 0.  1.
</event>
<event>
 6    1  0.6981059E-006  0.5618980E+03  0.7561462E-02  0.9987769E-01
          1   -1    0    0  501    0  0.00000000000E+00  0.00000000000E+00  0.22178895711E+04  0.22178895711E+04  0.00000000000E+00 0.  1.
         -1   -1    0    0    0  501 -0.00000000000E+00 -0.00000000000E+00 -0.16943310617E+03  0.16943310617E+03  0.00000000000E+00 0. -1.
          5    1    1    2  502    0 -0.22481851699E+02 -0.15032147984E+02  0.23056976450E+02  0.35784014474E+02  0.41800000000E+01 0.  1.
         -5    1    1    2    0  502 -0.44684400561E+03  0.24941907613E+03  0.51359760496E+03  0.72503752531E+03  0.41800000000E+01 0.  1.
        -11    1    1    2    0    0  0.26586482785E+03 -0.26908478998E+03  0.11417413220E+04  0.12027734522E+04  0.00000000000E+00 0.  1.
         11    1    1    2    0    0  0.20346102945E+03  0.34697861838E+02  0.37006056156E+03  0.42372768536E+03  0.00000000000E+00 0. -1.
</event>
<event>
 6    1  0.6981059E-006  0.2341481E+03  0.7561462E-02  0.1123754E+00
         -2   -1    0    0    0  501 -0.00000000000E+00  0.00000000000E+00  0.11109548417E+03  0.11109548417E+03  0.00000000000E+00 0. -1.
          2   -1    0    0  501    0  0.00000000000E+00 -0.00000000000E+00 -0.60842862804E+03  0.60842862804E+03  0.00000000000E+00 0.  1.
          5    1    1    2  502    0 -0.17152844686E+03  0.14394809181E+03 -0.18307635400E+03  0.28927060862E+03  0.41800000000E+01 0.  1.
         -5    1    1    2    0  502 -0.10339122677E+02 -0.74871240317E+01  0.14828226528E+02  0.20007578213E+02  0.41800000000E+01 0.  1.
        -11    1    1    2    0    0  0.44105676281E+02 -0.56273547437E+02 -0.17281957787E+03  0.18702574507E+03  0.00000000000E+00 0.  1.
         11    1    1    2    0    0  0.13776189326E+03 -0.80187420344E+02 -0.15626543853E+03  0.22322018030E+03  0.00000000000E+00 0. -1.
</event>
<event>
 6    1  0.6981059E-006  0.1090149E+03  0.7561462E-02  0.1262405E+00
         -1   -1    0    0    0  501 -0.00000000000E+00  0.00000000000E+00  0.95729646390E+02  0.95729646390E+02  0.00000000000E+00 0.  1.
          1   -1    0    0  501    0  0.00000000000E+00 -0.00000000000E+00 -0.14577321963E+03  0.14577321963E+03  0.00000000000E+00 0. -1.
          5    1    1    2  502    0  0.14229091662E+02 -0.41768431246E+02  0.26102020873E+02  0.51437892569E+02  0.41800000000E+01 0. -1.
         -5    1    1    2    0  502  0.23264849949E+01  0.74382279577E+02 -0.26032985408E+02  0.78951407693E+02  0.41800000000E+01 0. -1.
        -11    1    1    2    0    0 -0.54823227218E+02 -0.13826144451E+02 -0.28370166515E+02  0.63258318513E+02  0.00000000000E+00 0. -1.
         11    1    1    2    0    0  0.38267650561E+02 -0.18787703880E+02 -0.21742442191E+02  0.47855247246E+02  0.00000000000E+00 0.  1.
</event>
<event>
 6    1  0.6981059E-006  0.1016966E+03  0.7561462E-02  0.1276768E+00
          1   -1    0    0  501    0  0.00000000000E+00  0.00000000000E+00  0.32704402756E+03  0.32704402756E+03  0.00000000000E+00 0. -1.
         -1   -1    0    0    0  501 -0.00000000000E+00 -0.00000000000E+00 -0.40499499325E+02  0.40499499325E+02  0.00000000000E+00 0.  1.
          5    1    1    2  502    0 -0.49811824922E+02  0.12382227141E+01  0.10001852664E+03  0.11182096927E+03  0.41800000000E+01 0.  1.
         -5    1    1    2    0  502  0.59797171881E+02  0.36965316887E+02  0.44244079791E+02  0.83169389887E+02  0.41800000000E+01 0.  1.
        -11    1    1    2    0    0 -0.32964444297E+02 -0.47799515359E+02  0.13444377416E+03  0.14644649763E+03  0.00000000000E+00 0. -1.
         11    1    1    2    0    0  0.22979097337E+02  0.95959757578E+01  0.78381476400E+01  0.26106670098E+02  0.00000000000E+00 0.  1.
</event>
<event>
 6    1  0.6981059E-006  0.1624649E+03  0.7561462E-02  0.1185942E+00
         -1   -1    0    0    0  501 -0.00000000000E+00  0.00000000000E+00  0.14580799376E+03  0.14580799376E+03  0.00000000000E+00 0.  1.
          1   -1    0    0  501    0  0.00000000000E+00 -0.00000000000E+00 -0.48292320517E+03  0.48292320517E+03  0.00000000000E+00 0. -1.
          5    1    1    2  502    0 -0.12282705257E+03  0.70777849566E+02  0.84232572980E+02  0.16495025791E+03  0.41800000000E+01 0.  1.
         -5    1    1    2    0  502  0.17016481618E+01  0.16894237209E+02 -0.32374623901E+02  0.36795373759E+02  0.41800000000E+01 0.  1.
        -11    1    1    2    0    0  0.12632707014E+03 -0.64439073560E+02 -0.37092442845E+03  0.39710937344E+03  0.00000000000E+00 0. -1.
         11    1    1    2    0    0 -0.52016657309E+01 -0.23233013215E+02 -0.18048732034E+02  0.29876193825E+02  0.00000000000E+00 0.  1.
</event>
<event>
 6    1  0.6981059E-006  0.1460738E+03  0.7561462E-02  0.1205382E+00
          1   -1    0    0  501    0  0.00000000000E+00  0.00000000000E+00  0.28344927622E+03  0.28344927622E+03  0.00000000000E+00 0. -1.
         -1   -1    0    0    0  501 -0.00000000000E+00 -0.00000000000E+00 -0.10349528365E+03  0.10349528365E+03  0.00000000000E+00 0.  1.
          5    1    1    2  502    0  0.63341696949E+02 -0.83905922914E+02  0.28622115689E+01  0.10525226424E+03  0.41800000000E+01 0. -1.
         -5    1    1    2    0  502 -0.53091467265E+02 -0.36183280132E+02  0.32080067684E+02  0.71934253316E+02  0.41800000000E+01 0. -1.
        -11    1    1    2    0    0 -0.12490997361E+02  0.30859025233E+02 -0.64898316506E+01  0.33917876824E+02  0.00000000000E+00 0.  1.
         11    1    1    2    0    0  0.22407676772E+01  0.89230177813E+02  0.15150154496E+03  0.17584016549E+03  0.00000000000E+00 0. -1.
</event>
<event>
 6    1  0.6981059E-006  0.9685561E+02  0.7561462E-02  0.1287051E+00
         -3   -1    0    0    0  501 -0.00000000000E+00  0.00000000000E+00  0.27828743371E+03  0.27828743371E+03  0.00000000000E+00 0.  1.
          3   -1    0    0  501    0  0.00000000000E+00 -0.00000000000E+00 -0.61520401941E+02  0.61520401941E+02  0.00000000000E+00 0. -1.
          5    1    1    2  502    0 -0.30716471440E+02  0.88210581181E+02  0.16507124331E+03  0.18971187632E+03  0.41800000000E+01 0.  1.
         -5    1    1    2    0  502  0.13121184123E+02 -0.17483652512E+02 -0.82344507831E+01  0.23730195062E+02  0.41800000000E+01 0.  1.
        -11    1    1    2    0    0  0.16002106583E+02 -0.14161478969E+02  0.66075818466E+02  0.69445148770E+02  0.00000000000E+00 0.  1.
         11    1    1    2    0    0  0.15931807332E+01 -0.56565449700E+02 -0.61455792231E+01  0.56920615497E+02  0.00000000000E+00 0. -1.
</event>
<event>
 6    1  0.6981059E-006  0.1114586E+03  0.7561462E-02  0.1257892E+00
         -1   -1    0    0    0  501 -0.00000000000E+00  0.00000000000E+00  0.21005532126E+03  0.21005532126E+03  0.00000000000E+00 0.  1.
          1   -1    0    0  501    0  0.00000000000E+00 -0.00000000000E+00 -0.10100342685E+03  0.10100342685E+03  0.00000000000E+00 0. -1.
          5    1    1    2  502    0 -0.56566134037E+02 -0.65818425570E+02  0.74438437889E+02  0.11441305039E+03  0.41800000000E+01 0. -1.
         -5    1    1    2    0  502  0.33259487747E+02  0.24887481842E+02  0.77067537125E+02  0.87649631808E+02  0.41800000000E+01 0. -1.
        -11    1    1    2    0    0 -0.15937158055E+02 -0.17643162890E+02 -0.28514147996E+02  0.37125878300E+02  0.00000000000E+00 0. -1.
         11    1    1    2    0    0  0.39243804345E+02  0.58574106618E+02 -0.13939932612E+02  0.71870187607E+02  0.00000000000E+00 0.  1.
</event>
<event>
 6    1  0.6981059E-006  0.1474970E+03  0.7561462E-02  0.1203583E+00
          2   -1    0    0  501    0  0.00000000000E+00  0.00000000000E+00  0.65752788018E+02  0.65752788018E+02  0.00000000000E+00 0. -1.
         -2   -1    0    0    0  501 -0.00000000000E+00 -0.00000000000E+00 -0.41674344744E+03  0.41674344744E+03  0.00000000000E+00 0.  1.
          5    1    1    2  502    0 -0.33336352887E+02 -0.11037228732E+03 -0.80098746136E+02  0.14045154240E+03  0.41800000000E+01 0.  1.
         -5    1    1    2    0  502 -0.49158856377E+02  0.17416745765E+02 -0.92639513368E+02  0.10639308262E+03  0.41800000000E+01 0.  1.
        -11    1    1    2    0    0  0.58024522707E+01  0.22232096603E+02 -0.10670352634E+03  0.10914933397E+03  0.00000000000E+00 0.  1.
         11    1    1    2    0    0  0.76692756993E+02  0.70723444948E+02 -0.71548873578E+02  0.12650227646E+03  0.00000000000E+00 0. -1.
</event>
<event>
 6    1  0.6981059E-006  0.8459924E+02  0.7561462E-02  0.1316484E+00
          2   -1    0    0  501    0  0.00000000000E+00  0.00000000000E+00  0.85489383836E+02  0.85489383836E+02  0.00000000000E+00 0. -1.
         -2   -1    0    0    0  501 -0.00000000000E+00 -0.00000000000E+00 -0.14737939008E+03  0.14737939008E+03  0.00000000000E+00 0.  1.
          5    1    1    2  502    0 -0.61693543927E+02  0.15423828771E+02 -0.60255384861E+02  0.87705026429E+02  0.41800000000E+01 0. -1.
         -5    1    1    2    0  502  0.37769016874E+02  0.33725004749E+01  0.25200699222E+02  0.45721111495E+02  0.41800000000E+01 0. -1.
        -11    1    1    2    0    0 -0.28093816277E+01 -0.35621503556E+02 -0.49151389634E+02  0.60767123049E+02  0.00000000000E+00 0.  1.
         11    1    1    2    0    0  0.26733908680E+02  0.16825174311E+02  0.22316069033E+02  0.38675512938E+02  0.00000000000E+00 0. -1.
</event>
<event>
 6    1  0.6981059E-006  0.1524489E+03  0.7561462E-02  0.1197496E+00
         -1   -1    0    0    0  501 -0.00000000000E+00  0.00000000000E+00  0.16527082721E+03  0.16527082721E+03  0.00000000000E+00 0.  1.
          1   -1    0    0  501    0  0.00000000000E+00 -0.00000000000E+00 -0.17428317475E+03  0.17428317475E+03  0.00000000000E+00 0. -1.
          5    1    1    2  502    0  0.57117216236E+01  0.14783732962E+02 -0.23293914369E+02  0.28482650347E+02  0.41800000000E+01 0.  1.
         -5    1    1    2    0  502 -0.56209682982E+02 -0.12783428569E+03  0.56103749079E+02  0.15055310066E+03  0.41800000000E+01 0.  1.
        -11    1    1    2    0    0  0.72424920774E+02  0.71257714911E+02 -0.69554243866E+01  0.10184011494E+03  0.00000000000E+00 0. -1.
         11    1    1    2    0    0 -0.21926959416E+02  0.41792837816E+02 -0.34866757860E+02  0.58678136010E+02  0.00000000000E+00 0.  1.
</event>
<event>
 6    1  0.6981059E-006  0.9014693E+02  0.7561462E-02  0.1302496E+00
          3   -1    0    0  501    0  0.00000000000E+00  0.00000000000E+00  0.32005047885E+03  0.32005047885E+03  0.00000000000E+00 0. -1.
         -3   -1    0    0    0  501 -0.00000000000E+00 -0.00000000000E+00 -0.49481251533E+02  0.49481251533E+02  0.00000000000E+00 0.  1.
          5    1    1    2  502    0 -0.87842662011E+02 -0.47380727178E+01  0.12238492840E+03  0.15077906255E+03  0.41800000000E+01 0. -1.
         -5    1    1    2    0  502  0.29278694477E+02  0.12422427621E+02 -0.26238337906E+01  0.32185642172E+02  0.41800000000E+01 0. -1.
        -11    1    1    2    0    0  0.17896854670E+02  0.28842658352E+01 -0.97627906216E+01  0.20589523481E+02  0.00000000000E+00 0.  1.
         11    1    1    2    0    0  0.40667112865E+02 -0.10568620739E+02  0.16057092332E+03  0.16597750218E+03  0.00000000000E+00 0. -1.
</event>
<event>
 6    1  0.7771861E-006  0.1957436E+03  0.7561462E-02  0.1153381E+00
         -1   -1    0    0    0  501 -0.00000000000E+00  0.00000000000E+00  0.81801058728E+02  0.81801058728E+02  0.00000000000E+00 0.  1.
          1   -1    0    0  501    0  0.00000000000E+00 -0.00000000000E+00 -0.58495955897E+03  0.58495955897E+03  0.00000000000E+00 0. -1.
          5    1    1    2  502    0  0.15217027273E+03  0.11263089266E+03 -0.11563663989E+03  0.22188018111E+03  0.41800000000E+01 0.  1.
         -5    1    1    2    0  502 -0.89119263563E+01 -0.19377915320E+02 -0.20748610663E+02  0.30048349006E+02  0.41800000000E+01 0.  1.
        -11    1    1    2    0    0 -0.50931111311E+02 -0.67456700160E+02 -0.24912118996E+03  0.26306986103E+03  0.00000000000E+00 0.  1.
         11    1    1    2    0    0 -0.92327235061E+02 -0.25796277175E+02 -0.11765205972E+03  0.15176222655E+03  0.00000000000E+00 0. -1.
</event>
<event>
 6    1  0.6981059E-006  0.9510705E+02  0.7561462E-02  0.1290935E+00
          2   -1    0    0  501    0  0.00000000000E+00  0.00000000000E+00  0.27276898202E+03  0.27276898202E+03  0.00000000000E+00 0. -1.
         -2   -1    0    0    0  501 -0.00000000000E+00 -0.00000000000E+00 -0.59531729638E+02  0.59531729638E+02  0.00000000000E+00 0.  1.
          5    1    1    2  502    0 -0.68727676056E+00  0.33649097051E+02  0.55270440342E+02  0.64846187685E+02  0.41800000000E+01 0.  1.
         -5    1    1    2    0  502 -0.22201895234E+02 -0.91023464410E+02  0.29106975614E+02  0.98198185598E+02  0.41800000000E+01 0.  1.
        -11    1    1    2    0    0  0.30958502267E+01  0.19845462941E+02 -0.11140348223E+02  0.22968109337E+02  0.00000000000E+00 0.  1.
         11    1    1    2    0    0  0.19793321768E+02  0.37528904418E+02  0.14000018465E+03  0.14628822904E+03  0.00000000000E+00 0. -1.
</event>
<event>
 6    1  0.6981059E-006  0.1393081E+03  0.7561462E-02  0.1214263E+00
         -1   -1    0    0    0  501 -0.00000000000E+00  0.00000000000E+00  0.16198251474E+03  0.16198251474E+03  0.00000000000E+00 0.  1.
          1   -1    0    0  501    0  0.00000000000E+00 -0.00000000000E+00 -0.22620388885E+03  0.22620388885E+03  0.00000000000E+00 0. -1.
          5    1    1    2  502    0  0.18609821567E+02 -0.32904658063E+02  0.48827446839E+02  0.61892115377E+02  0.41800000000E+01 0. -1.
         -5    1    1    2    0  502  0.43983980702E+02  0.10135517548E+03  0.46605654891E+02  0.11998758946E+03  0.41800000000E+01 0.  1.
        -11    1    1    2    0    0 -0.71869531113E+02 -0.84837056590E+02 -0.14322281307E+03  0.18131555327E+03  0.00000000000E+00 0. -1.
         11    1    1    2    0    0  0.92757288437E+01  0.16386539171E+02 -0.16431662770E+02  0.24991145491E+02  0.00000000000E+00 0.  1.
</event>
<event>
 6    1  0.6981059E-006  0.1175358E+03  0.7561462E-02  0.1247218E+00
          3   -1    0    0  501    0  0.00000000000E+00  0.00000000000E+00  0.21699059847E+03  0.21699059847E+03  0.00000000000E+00 0. -1.
         -3   -1    0    0    0  501 -0.00000000000E+00 -0.00000000000E+00 -0.22098717470E+03  0.22098717470E+03  0.00000000000E+00 0.  1.
          5    1    1    2  502    0  0.69955452937E+02  0.38894591099E+02 -0.72691989782E+02  0.10820421614E+03  0.41800000000E+01 0.  1.
         -5    1    1    2    0  502 -0.13092590396E+02 -0.47276962075E+02 -0.11028032778E+03  0.12077147909E+03  0.41800000000E+01 0.  1.
        -11    1    1    2    0    0 -0.31233145217E+02  0.48734450043E+02  0.76558593694E+02  0.95977988359E+02  0.00000000000E+00 0.  1.
         11    1    1    2    0    0 -0.25629717324E+02 -0.40352079067E+02  0.10241714764E+03  0.11302408958E+03  0.00000000000E+00 0. -1.
</event>
<event>
 6    1  0.6981059E-006  0.1117800E+03  0.7561462E-02  0.1257309E+00
          1   -1    0    0  501    0  0.00000000000E+00  0.00000000000E+00  0.15828242064E+03  0.15828242064E+03  0.00000000000E+00 0. -1.
         -1   -1    0    0    0  501 -0.00000000000E+00 -0.00000000000E+00 -0.10443281564E+03  0.10443281564E+03  0.00000000000E+00 0.  1.
          5    1    1    2  502    0  0.77262324422E+02  0.25204193032E+02  0.16904233348E+02  0.83114039888E+02  0.41800000000E+01 0. -1.
         -5    1    1    2    0  502 -0.28698912604E+02 -0.24723092979E+02 -0.36009298626E+02  0.52430915485E+02  0.41800000000E+01 0. -1.
        -11    1    1    2    0    0 -0.69479362240E+02  0.22469268527E+02  0.53568822177E+02  0.90564167941E+02  0.00000000000E+00 0.  1.
         11    1    1    2    0    0  0.20915950422E+02 -0.22950368581E+02  0.19385848099E+02  0.36606112968E+02  0.00000000000E+00 0. -1.
</event>
<event>
 6    1  0.6981059E-006  0.2587755E+03  0.7561462E-02  0.1107881E+00
          2   -1    0    0  501    0  0.00000000000E+00  0.00000000000E+00  0.27251018792E+03  0.27251018792E+03  0.00000000000E+00 0. -1.
         -2   -1    0    0    0  501 -0.00000000000E+00 -0.00000000000E+00 -0.35407863065E+03  0.35407863065E+03  0.00000000000E+00 0.  1.
          5    1    1    2  502    0  0.11879730120E+02  0.76482672423E+01 -0.37757012578E+02  0.40530092257E+02  0.41800000000E+01 0.  1.
         -5    1    1    2    0  502 -0.22925716669E+03  0.95782794416E+02 -0.16788180656E+03  0.29989158968E+03  0.41800000000E+01 0.  1.
        -11    1    1    2    0    0  0.19743759885E+03 -0.11764708249E+03  0.96435975400E+02  0.24924353314E+03  0.00000000000E+00 0.  1.
         11    1    1    2    0    0  0.19939837719E+02  0.14216020836E+02  0.27634401004E+02  0.36923603501E+02  0.00000000000E+00 0. -1.
</event>
<event>
 6    1  0.6981059E-006  0.9678752E+02  0.7561462E-02  0.1287200E+00
         -1   -1    0    0    0  501 -0.00000000000E+00  0.00000000000E+00  0.11324018332E+03  0.11324018332E+03  0.00000000000E+00 0. -1.
          1   -1    0    0  501    0  0.00000000000E+00 -0.00000000000E+00 -0.10250303674E+03  0.10250303674E+03  0.00000000000E+00 0.  1.
          5    1    1    2  502    0  0.15077745348E+02 -0.64475917906E+02 -0.33904117419E+02  0.74508012808E+02  0.41800000000E+01 0.  1.
         -5    1    1    2    0  502  0.36619559498E+02  0.39599953685E+02  0.32516871318E+02  0.63118680198E+02  0.41800000000E+01 0.  1.
        -11    1    1    2    0    0 -0.10343315879E+02 -0.13299962185E+02 -0.75945039383E+01  0.18481062403E+02  0.00000000000E+00 0.  1.
         11    1    1    2    0    0 -0.41353988967E+02  0.38175926406E+02  0.19718896617E+02  0.59635464652E+02  0.00000000000E+00 0. -1.
</event>
<event>
 6    1  0.6981059E-006  0.1293514E+03  0.7561462E-02  0.1228421E+00
          2   -1    0    0  501    0  0.00000000000E+00  0.00000000000E+00  0.61309440590E+03  0.61309440590E+03  0.00000000000E+00 0. -1.
         -2   -1    0    0    0  501 -0.00000000000E+00 -0.00000000000E+00 -0.32765634298E+02  0.32765634298E+02  0.00000000000E+00 0.  1.
          5    1    1    2  502    0 -0.10868332851E+03 -0.35472969491E+02  0.16841819703E+03  0.20359901510E+03  0.41800000000E+01 0.  1.
         -5    1    1    2    0  502  0.29357945461E+02 -0.49921867698E+01  0.11356006034E+03  0.11747412734E+03  0.41800000000E+01 0.  1.
        -11    1    1    2    0    0  0.54537748322E+02  0.61155450508E+02  0.13225314310E+03  0.15558036180E+03  0.00000000000E+00 0.  1.
         11    1    1    2    0    0  0.24787634725E+02 -0.20690294247E+02  0.16609737114E+03  0.16920653595E+03  0.00000000000E+00 0. -1.
</event>
<event>
 6    1  0.6981059E-006  0.1825830E+03  0.7561462E-02  0.1165326E+00
         -2   -1    0    0    0  501 -0.00000000000E+00  0.00000000000E+00  0.15489721794E+03  0.15489721794E+03  0.00000000000E+00 0.  1.
          2   -1    0    0  501    0  0.00000000000E+00 -0.00000000000E+00 -0.22333490064E+03  0.22333490064E+03  0.00000000000E+00 0. -1.
          5    1    1    2  502    0 -0.20891051064E+02  0.11532258944E+03 -0.36277686240E+02  0.12275698990E+03  0.41800000000E+01 0.  1.
         -5    1    1    2    0  502 -0.71244767888E+02  0.14414374150E+01  0.14395702583E+02  0.72818976552E+02  0.41800000000E+01 0.  1.
        -11    1    1    2    0    0  0.38746595695E+02  0.90912649372E+01 -0.77789415073E+01  0.40551963049E+02  0.00000000000E+00 0.  1.
         11    1    1    2    0    0  0.53389223256E+02 -0.12585529179E+03 -0.38776757537E+02  0.14210418909E+03  0.00000000000E+00 0. -1.
</event>
<event>
 6    1  0.6981059E-006  0.1442613E+03  0.7561462E-02  0.1207707E+00
         -2   -1    0    0    0  501 -0.00000000000E+00  0.00000000000E+00  0.17087083677E+03  0.17087083677E+03  0.00000000000E+00 0.  1.
          2   -1    0    0  501    0  0.00000000000E+00 -0.00000000000E+00 -0.19194466114E+03  0.19194466114E+03  0.00000000000E+00 0. -1.
          5    1    1    2  502    0  0.14413466509E+02 -0.67663570519E+02 -0.82929427688E+02  0.10807806979E+03  0.41800000000E+01 0.  1.
         -5    1    1    2    0  502  0.57224705297E+02 -0.53045046652E+02  0.35499367025E+02  0.85826111003E+02  0.41800000000E+01 0.  1.
        -11    1    1    2    0    0 -0.10084199737E+02  0.28288656808E+02 -0.31650339049E+02  0.43631217611E+02  0.00000000000E+00 0. -1.
         11    1    1    2    0    0 -0.61553972070E+02  0.92419960363E+02  0.58006575335E+02  0.12528009951E+03  0.00000000000E+00 0.  1.
</event>
<event>
 6    1  0.6981059E-006  0.1362613E+03  0.7561462E-02  0.1218450E+00
         -2   -1    0    0    0  501 -0.00000000000E+00  0.00000000000E+00  0.62098743711E+02  0.62098743711E+02  0.00000000000E+00 0. -1.
          2   -1    0    0  501    0  0.00000000000E+00 -0.00000000000E+00 -0.34724871614E+03  0.34724871614E+03  0.00000000000E+00 0.  1.
          5    1    1    2  502    0 -0.35677776757E+02 -0.92914711971E+02 -0.54428715985E+02  0.11351654055E+03  0.41800000000E+01 0. -1.
         -5    1    1    2    0  502  0.47407369499E+02 -0.40388261630E+01 -0.86095264935E+02  0.98456273765E+02  0.41800000000E+01 0. -1.
        -11    1    1    2    0    0  0.31996906884E+02  0.23648816808E+02 -0.15741169738E+02  0.42788468204E+02  0.00000000000E+00 0. -1.
         11    1    1    2    0    0 -0.43726499627E+02  0.73304721326E+02 -0.12888482177E+03  0.15458617733E+03  0.00000000000E+00 0.  1.
</event>
<event>
 6    1  0.6981059E-006  0.1179015E+03  0.7561462E-02  0.1246600E+00
          2   -1    0    0  501    0  0.00000000000E+00  0.00000000000E+00  0.38755903891E+03  0.38755903891E+03  0.00000000000E+00 0. -1.
         -2   -1    0    0    0  501 -0.00000000000E+00 -0.00000000000E+00 -0.94889173588E+02  0.94889173588E+02  0.00000000000E+00 0.  1.
          5    1    1    2  502    0 -0.80378441867E+02  0.40046872245E+02 -0.15909454267E+02  0.91296380151E+02  0.41800000000E+01 0. -1.
         -5    1    1    2    0  502  0.47094863419E+02  0.81416395464E+01 -0.14651296259E+02  0.50163187070E+02  0.41800000000E+01 0. -1.
        -11    1    1    2    0    0  0.55616996608E+02 -0.14444079945E+02  0.25723493051E+03  0.26357483042E+03  0.00000000000E+00 0. -1.
         11    1    1    2    0    0 -0.22333418160E+02 -0.33744431846E+02  0.65995685334E+02  0.77413814853E+02  0.00000000000E+00 0.  1.
</event>
<event>
 6    1  0.6981059E-006  0.1729551E+03  0.7561462E-02  0.1174801E+00
          2   -1    0    0  501    0  0.00000000000E+00  0.00000000000E+00  0.94692624570E+02  0.94692624570E+02  0.00000000000E+00 0. -1.
         -2   -1    0    0    0  501 -0.00000000000E+00 -0.00000000000E+00 -0.45932461319E+03  0.45932461319E+03  0.00000000000E+00 0.  1.
          5    1    1    2  502    0  0.38690570554E+01  0.80071436837E+02 -0.16458372467E+03  0.18311657332E+03  0.41800000000E+01 0. -1.
         -5    1    1    2    0  502 -0.10726234120E+03  0.21947014698E+02 -0.16211757162E+03  0.19566926361E+03  0.41800000000E+01 0. -1.
        -11    1    1    2    0    0  0.23698492850E+02 -0.63057212138E+02 -0.52408284100E+02  0.85349041051E+02  0.00000000000E+00 0.  1.
         11    1    1    2    0    0  0.79694791293E+02 -0.38961239397E+02  0.14477591773E+02  0.89882359772E+02  0.00000000000E+00 0. -1.
</event>
<event>
 6    1  0.6981059E-006  0.1483158E+03  0.7561462E-02  0.1202558E+00
         -1   -1    0    0    0  501 -0.00000000000E+00  0.00000000000E+00  0.32596142790E+02  0.32596142790E+02  0.00000000000E+00 0.  1.
          1   -1    0    0  501    0  0.00000000000E+00 -0.00000000000E+00 -0.75481420409E+03  0.75481420409E+03  0.00000000000E+00 0. -1.
          5    1    1    2  502    0  0.12964754375E+03 -0.28225857627E+02 -0.34243874873E+03  0.36726959263E+03  0.41800000000E+01 0. -1.
         -5    1    1    2    0  502 -0.17680533504E+02  0.12634552275E+02 -0.11864781385E+02  0.25109333195E+02  0.41800000000E+01 0. -1.
        -11    1    1    2    0    0 -0.45559267046E+02  0.49427041377E+02 -0.20819968811E+03  0.21878251612E+03  0.00000000000E+00 0. -1.
         11    1    1    2    0    0 -0.66407743204E+02 -0.33835736025E+02 -0.15971484308E+03  0.17624890493E+03  0.00000000000E+00 0.  1.
</event>
<event>
 6    1  0.6981059E-006  0.1360507E+03  0.7561462E-02  0.1218744E+00
          2   -1    0    0  501    0  0.00000000000E+00  0.00000000000E+00  0.97941148455E+03  0.97941148455E+03  0.00000000000E+00 0. -1.
         -2   -1    0    0    0  501 -0.00000000000E+00 -0.00000000000E+00 -0.24496483358E+02  0.24496483358E+02  0.00000000000E+00 0.  1.
          5    1    1    2  502    0  0.31226552384E+02  0.22138208343E+02  0.24060108276E+03  0.24366278187E+03  0.41800000000E+01 0.  1.
         -5    1    1    2    0  502  0.53196752662E+02 -0.82595672726E+02  0.14932663349E+03  0.17879556906E+03  0.41800000000E+01 0.  1.
        -11    1    1    2    0    0  0.62472907748E+01  0.42341789456E+02  0.13454992685E+03  0.14119326681E+03  0.00000000000E+00 0.  1.
         11    1    1    2    0    0 -0.90670595820E+02  0.18115674927E+02  0.43043735809E+03  0.44025635017E+03  0.00000000000E+00 0. -1.
</event>
<event>
 6    1  0.6981059E-006  0.1101310E+03  0.7561462E-02  0.1260327E+00
         -4   -1    0    0    0  501 -0.00000000000E+00  0.00000000000E+00  0.92760760723E+02  0.92760760723E+02  0.00000000000E+00 0.  1.
          4   -1    0    0  501    0  0.00000000000E+00 -0.00000000000E+00 -0.14674245860E+03  0.14674245860E+03  0.00000000000E+00 0. -1.
          5    1    1    2  502    0  0.76533149092E+02  0.16872090205E+02 -0.16944893512E+02  0.80290672895E+02  0.41800000000E+01 0. -1.
         -5    1    1    2    0  502 -0.41821847133E+02 -0.23253164357E+02  0.13105003854E+02  0.49789457481E+02  0.41800000000E+01 0. -1.
        -11    1    1    2    0    0  0.10726582786E+02  0.37283238255E+02 -0.66886993568E+01  0.39367983593E+02  0.00000000000E+00 0.  1.
         11    1    1    2    0    0 -0.45437884745E+02 -0.30902164103E+02 -0.43453108861E+02  0.70055105353E+02  0.00000000000E+00 0. -1.
</event>
<event>
 6    1  0.6981059E-006  0.1442719E+03  0.7561462E-02  0.1207694E+00
         -3   -1    0    0    0  501 -0.00000000000E+00  0.00000000000E+00  0.33141590873E+02  0.33141590873E+02  0.00000000000E+00 0.  1.
          3   -1    0    0  501    0  0.00000000000E+00 -0.00000000000E+00 -0.81392297236E+03  0.81392297236E+03  0.00000000000E+00 0. -1.
          5    1    1    2  502    0  0.11286259032E+03 -0.77087284465E+02 -0.25207044625E+03  0.28677063308E+03  0.41800000000E+01 0.  1.
         -5    1    1    2    0  502 -0.24790457625E+02 -0.83292931277E+01 -0.14268650069E+03  0.14512358110E+03  0.41800000000E+01 0.  1.
        -11    1    1    2    0    0 -0.18204873352E+02  0.34016771075E+02 -0.30395487908E+02  0.49116634792E+02  0.00000000000E+00 0.  1.
         11    1    1    2    0    0 -0.69867259347E+02  0.51399806517E+02 -0.35562894664E+03  0.36605371426E+03  0.00000000000E+00 0. -1.
</event>
<event>
 6    1  0.6981059E-006  0.2027026E+03  0.7561462E-02  0.1147479E+00
          1   -1    0    0  501    0  0.00000000000E+00  0.00000000000E+00  0.93655084246E+02  0.93655084246E+02  0.00000000000E+00 0. -1.
         -1   -1    0    0    0  501 -0.00000000000E+00 -0.00000000000E+00 -0.56688147583E+03  0.56688147583E+03  0.00000000000E+00 0.  1.
          5    1    1    2  502    0  0.18693228641E+03 -0.69026926257E+02 -0.22571599386E+03  0.30112053822E+03  0.41800000000E+01 0. -1.
         -5    1    1    2    0  502  0.17426192153E+00  0.43657615243E+01  0.13572138277E+02  0.14858182201E+02  0.41800000000E+01 0. -1.
        -11    1    1    2    0    0 -0.66427747760E+02  0.37739371586E+02 -0.18303597835E+03  0.19834080571E+03  0.00000000000E+00 0.  1.
         11    1    1    2    0    0 -0.12067880058E+03  0.26921793147E+02 -0.78046557655E+02  0.14621703395E+03  0.00000000000E+00 0. -1.
</event>
<event>
 6    1  0.6981059E-006  0.1046008E+03  0.7561462E-02  0.1270908E+00
          2   -1    0    0  501    0  0.00000000000E+00  0.00000000000E+00  0.46173808428E+03  0.46173808428E+03  0.00000000000E+00 0.  1.
         -2   -1    0    0    0  501 -0.00000000000E+00 -0.00000000000E+00 -0.38681802806E+02  0.38681802806E+02  0.00000000000E+00 0. -1.
          5    1    1    2  502    0  0.39509309834E+02 -0.33722274308E+01  0.53471067959E+02  0.66700712065E+02  0.41800000000E+01 0. -1.
         -5    1    1    2    0  502 -0.88235723328E+02  0.49582464714E+02  0.99193717562E+02  0.14177739482E+03  0.41800000000E+01 0. -1.
        -11    1    1    2    0    0  0.35101412521E+02 -0.39499173272E+02  0.27161220036E+03  0.27670468235E+03  0.00000000000E+00 0.  1.
         11    1    1    2    0    0  0.13625000973E+02 -0.67110640107E+01 -0.12207044054E+01  0.15237097851E+02  0.00000000000E+00 0. -1.
</event>
<event>
 6    1  0.6981059E-006  0.8595852E+02  0.7561462E-02  0.1312945E+00
          2   -1    0    0  501    0  0.00000000000E+00  0.00000000000E+00  0.70578152393E+02  0.70578152393E+02  0.00000000000E+00 0. -1.
         -2   -1    0    0    0  501 -0.00000000000E+00 -0.00000000000E+00 -0.21356815730E+03  0.21356815730E+03  0.00000000000E+00 0.  1.
          5    1    1    2  502    0  0.51019789284E+02  0.15659882111E+01 -0.16878361345E+02  0.53924231096E+02  0.41800000000E+01 0.  1.
         -5    1    1    2    0  502 -0.47344068909E+02 -0.21933598349E+02 -0.12984793272E+03  0.14000179152E+03  0.41800000000E+01 0.  1.
        -11    1    1    2    0    0 -0.33732843945E+02  0.35606660919E+01 -0.27545977049E+02  0.43696269351E+02  0.00000000000E+00 0.  1.
         11    1    1    2    0    0  0.30057123569E+02  0.16806944046E+02  0.31282266212E+02  0.46524017720E+02  0.00000000000E+00 0. -1.
</event>
<event>
 6    1  0.6981059E-006  0.1313581E+03  0.7561462E-02  0.1225454E+00
         -2   -1    0    0    0  501 -0.00000000000E+00  0.00000000000E+00  0.34752027654E+03  0.34752027654E+03  0.00000000000E+00 0.  1.
          2   -1    0    0  501    0  0.00000000000E+00 -0.00000000000E+00 -0.63026727408E+02  0.63026727408E+02  0.00000000000E+00 0. -1.
          5    1    1    2  502    0 -0.78068789768E+02 -0.58254018325E+01  0.15413932091E+03  0.17293083558E+03  0.41800000000E+01 0. -1.
         -5    1    1    2    0  502  0.21496232963E+02 -0.65215331549E+02  0.60725458848E+02  0.91761545612E+02  0.41800000000E+01 0. -1.
        -11    1    1    2    0    0 -0.14998396540E+02  0.28659814356E+02 -0.66188744958E+01  0.33017364481E+02  0.00000000000E+00 0. -1.
         11    1    1    2    0    0  0.71570953345E+02  0.42380919026E+02  0.76247643866E+02  0.11283725828E+03  0.00000000000E+00 0.  1.
</event>
<event>
 6    1  0.6981059E-006  0.1525373E+03  0.7561462E-02  0.1197389E+00
          2   -1    0    0  501    0  0.00000000000E+00  0.00000000000E+00  0.54702781913E+02  0.54702781913E+02  0.00000000000E+00 0. -1.
         -2   -1    0    0    0  501 -0.00000000000E+00 -0.00000000000E+00 -0.55761400286E+03  0.55761400286E+03  0.00000000000E+00 0.  1.
          5    1    1    2  502    0  0.11485285621E+03 -0.92191557563E+02 -0.26542673645E+03  0.30357748053E+03  0.41800000000E+01 0.  1.
         -5    1    1    2    0  502 -0.29096755686E+02 -0.90039846438E+00 -0.36343761492E+02  0.46752254579E+02  0.41800000000E+01 0.  1.
        -11    1    1    2    0    0 -0.37703055653E+02  0.56522999191E+02 -0.18839342422E+03  0.20027094680E+03  0.00000000000E+00 0.  1.
         11    1    1    2    0    0 -0.48053044873E+02  0.36568956836E+02 -0.12747298787E+02  0.61716102858E+02  0.00000000000E+00 0. -1.
</event>
<event>
 6    1  0.6981059E-006  0.1523028E+03  0.7561462E-02  0.1197672E+00
          3   -1    0    0  501    0  0.00000000000E+00  0.00000000000E+00  0.68497227877E+03  0.68497227877E+03  0.00000000000E+00 0. -1.
         -3   -1    0    0    0  501 -0.00000000000E+00 -0.00000000000E+00 -0.64292207053E+02  0.64292207053E+02  0.00000000000E+00 0.  1.
          5    1    1    2  502    0 -0.53394536740E+02  0.18150868931E+02  0.46612993508E+02  0.73284883574E+02  0.41800000000E+01 0. -1.
         -5    1    1    2    0  502  0.11254702050E+03  0.44261307529E+02  0.40812505608E+02  0.12770680554E+03  0.41800000000E+01 0.  1.
        -11    1    1    2    0    0 -0.13130186054E+02 -0.77506943631E+02  0.30845539721E+03  0.31831503289E+03  0.00000000000E+00 0.  1.
         11    1    1    2    0    0 -0.46022297708E+02  0.15094767171E+02  0.22479917540E+03  0.22995776382E+03  0.00000000000E+00 0. -1.
</event>
<event>
 6    1  0.6981059E-006  0.1795093E+03  0.7561462E-02  0.1168279E+00
         -1   -1    0    0    0  501 -0.00000000000E+00  0.00000000000E+00  0.54328867902E+03  0.54328867902E+03  0.00000000000E+00 0.  1.
          1   -1    0    0  501    0  0.00000000000E+00 -0.00000000000E+00 -0.24221025227E+03  0.24221025227E+03  0.00000000000E+00 0. -1.
          5    1    1    2  502    0 -0.28497073286E+02  0.15226533771E+02  0.17094169832E+03  0.17401858275E+03  0.41800000000E+01 0. -1.
         -5    1    1    2    0  502  0.88779433919E+02  0.12301352571E+03  0.31944139307E+03  0.35365858027E+03  0.41800000000E+01 0.  1.
        -11    1    1    2    0    0 -0.57216907100E+02 -0.26777193215E+02 -0.60701652244E+02  0.87609834606E+02  0.00000000000E+00 0.  1.
         11    1    1    2    0    0 -0.30654535342E+01 -0.11146286627E+03 -0.12860301240E+03  0.17021193366E+03  0.00000000000E+00 0. -1.
</event>
<event>
 6    1  0.6981059E-006  0.1754426E+03  0.7561462E-02  0.1172288E+00
         -2   -1    0    0    0  501 -0.00000000000E+00  0.00000000000E+00  0.39105477206E+02  0.39105477206E+02  0.00000000000E+00 0.  1.
          2   -1    0    0  501    0  0.00000000000E+00 -0.00000000000E+00 -0.96409248501E+03  0.96409248501E+03  0.00000000000E+00 0. -1.
          5    1    1    2  502    0  0.25737303761E+02 -0.13119666397E+02 -0.35645384705E+02  0.46071686555E+02  0.41800000000E+01 0. -1.
         -5    1    1    2    0  502 -0.14233965818E+03 -0.87845665928E+02 -0.33221320223E+03  0.37196844416E+03  0.41800000000E+01 0. -1.
        -11    1    1    2    0    0  0.29667850136E+02  0.21995479148E+02 -0.38314591479E+02  0.53216448161E+02  0.00000000000E+00 0.  1.
         11    1    1    2    0    0  0.86934504284E+02  0.78969853176E+02 -0.51881382939E+03  0.53194138335E+03  0.00000000000E+00 0. -1.
</event>
<event>
 6    1  0.6981059E-006  0.1025287E+03  0.7561462E-02  0.1275067E+00
         -1   -1    0    0    0  501 -0.00000000000E+00  0.00000000000E+00  0.23659261878E+02  0.23659261878E+02  0.00000000000E+00 0.  1.
          1   -1    0    0  501    0  0.00000000000E+00 -0.00000000000E+00 -0.56611594168E+03  0.56611594168E+03  0.00000000000E+00 0. -1.
          5    1    1    2  502    0 -0.26138873124E+02 -0.59218375293E+02 -0.15157595242E+03  0.16487206681E+03  0.41800000000E+01 0.  1.
         -5    1    1    2    0  502  0.35464008075E+02  0.42758714092E+02 -0.61902649446E+02  0.83279132489E+02  0.41800000000E+01 0.  1.
        -11    1    1    2    0    0  0.11512409081E+02  0.46510760041E+02 -0.25053761498E+03  0.25507818974E+03  0.00000000000E+00 0. -1.
         11    1    1    2    0    0 -0.20837544032E+02 -0.30051098840E+02 -0.78440462963E+02  0.86545814530E+02  0.00000000000E+00 0.  1.
</event>
<event>
 6    1  0.6981059E-006  0.1047054E+03  0.7561462E-02  0.1270701E+00
          1   -1    0    0  501    0  0.00000000000E+00  0.00000000000E+00  0.10835717123E+03  0.10835717123E+03  0.00000000000E+00 0. -1.
         -1   -1    0    0    0  501 -0.00000000000E+00 -0.00000000000E+00 -0.15021794360E+03  0.15021794360E+03  0.00000000000E+00 0.  1.
          5    1    1    2  502    0 -0.91619002036E+01  0.65847638366E+02 -0.27347475191E+02  0.72008393213E+02  0.41800000000E+01 0. -1.
         -5    1    1    2    0  502  0.26109272178E+01 -0.55388612879E+02 -0.55308509990E+02  0.78429707732E+02  0.41800000000E+01 0. -1.
        -11    1    1    2    0    0 -0.41633410824E+01 -0.47984639716E+02 -0.44696261614E+01  0.48371857683E+02  0.00000000000E+00 0.  1.
         11    1    1    2    0    0  0.10714314068E+02  0.37525614229E+02  0.45264838973E+02  0.59765156207E+02  0.00000000000E+00 0. -1.
</event>
<event>
 6    1  0.6981059E-006  0.7726366E+02  0.7561462E-02  0.1337001E+00
         -2   -1    0    0    0  501 -0.00000000000E+00  0.00000000000E+00  0.75819705938E+02  0.75819705938E+02  0.00000000000E+00 0. -1.
          2   -1    0    0  501    0  0.00000000000E+00 -0.00000000000E+00 -0.18720957726E+03  0.18720957726E+03  0.00000000000E+00 0.  1.
          5    1    1    2  502    0  0.22275603912E+02 -0.25020578218E+02 -0.91181780056E+02  0.97230763024E+02  0.41800000000E+01 0.  1.
         -5    1    1    2    0  502  0.25038947200E+02  0.95669853845E+01  0.38713775345E+02  0.47272665333E+02  0.41800000000E+01 0.  1.
        -11    1    1    2    0    0 -0.25579726628E+02 -0.32282367199E+02 -0.50879957590E+02  0.65461773048E+02  0.00000000000E+00 0. -1.
         11    1    1    2    0    0 -0.21734824485E+02  0.47735960032E+02 -0.80419090196E+01  0.53064081790E+02  0.00000000000E+00 0.  1.
</event>
<event>
 6    1  0.6981059E-006  0.1337783E+03  0.7561462E-02  0.1221955E+00
         -1   -1    0    0    0  501 -0.00000000000E+00  0.00000000000E+00  0.46533757847E+02  0.46533757847E+02  0.00000000000E+00 0.  1.
          1   -1    0    0  501    0  0.00000000000E+00 -0.00000000000E+00 -0.44846323863E+03  0.44846323863E+03  0.00000000000E+00 0. -1.
          5    1    1    2  502    0 -0.95836972488E+02 -0.52631899546E+02 -0.13679573338E+03  0.17517244994E+03  0.41800000000E+01 0.  1.
         -5    1    1    2    0  502  0.11808904286E+02  0.33228904001E+02 -0.11982199859E+02  0.37478737906E+02  0.41800000000E+01 0.  1.
        -11    1    1    2    0    0  0.48597995515E+02 -0.33450007806E+02 -0.14952446478E+03  0.16074275647E+03  0.00000000000E+00 0. -1.
         11    1    1    2    0    0  0.35430072687E+02  0.52853003351E+02 -0.10362708277E+03  0.12160305217E+03  0.00000000000E+00 0.  1.
</event>
<event>
 6    1  0.6981059E-006  0.1612781E+03  0.7561462E-02  0.1187261E+00
         -2   -1    0    0    0  501 -0.00000000000E+00  0.00000000000E+00  0.47671668626E+02  0.47671668626E+02  0.00000000000E+00 0.  1.
          2   -1    0    0  501    0  0.00000000000E+00 -0.00000000000E+00 -0.59456430871E+03  0.59456430871E+03  0.00000000000E+00 0. -1.
          5    1    1    2  502    0 -0.13201424574E+03  0.60613122792E+02 -0.20378760913E+03  0.25029697115E+03  0.41800000000E+01 0. -1.
         -5    1    1    2    0  502  0.99713420791E+01 -0.28984336401E+02 -0.28148939513E+02  0.41825286792E+02  0.41800000000E+01 0. -1.
        -11    1    1    2    0    0 -0.31829648946E+01 -0.20312463463E+02 -0.16874857982E+02  0.26598651646E+02  0.00000000000E+00 0.  1.
         11    1    1    2    0    0  0.12522586855E+03 -0.11316322928E+02 -0.29808123347E+03  0.32351506775E+03  0.00000000000E+00 0. -1.
</event>
<event>
 6    1  0.6981059E-006  0.1603122E+03  0.7561462E-02  0.1188345E+00
         -3   -1    0    0    0  501 -0.00000000000E+00  0.00000000000E+00  0.29571320393E+02  0.29571320393E+02  0.00000000000E+00 0.  1.
          3   -1    0    0  501    0  0.00000000000E+00 -0.00000000000E+00 -0.11809059766E+04  0.11809059766E+04  0.00000000000E+00 0. -1.
          5    1    1    2  502    0  0.37700784544E+02  0.11260733831E+03 -0.27385584481E+03  0.29852346295E+03  0.41800000000E+01 0.  1.
         -5    1    1    2    0  502 -0.24286280497E+02  0.35627840637E+02 -0.41470398087E+03  0.41696046647E+03  0.41800000000E+01 0.  1.
        -11    1    1    2    0    0  0.14572690500E+02 -0.11072189981E+03 -0.20926537950E+03  0.23719970797E+03  0.00000000000E+00 0.  1.
         11    1    1    2    0    0 -0.27987194547E+02 -0.37513279138E+02 -0.25350945106E+03  0.25779365963E+03  0.00000000000E+00 0. -1.
</event>
<event>
 6    1  0.6981059E-006  0.9770131E+02  0.7561462E-02  0.1285205E+00
          2   -1    0    0  501    0  0.00000000000E+00  0.00000000000E+00  0.18454946296E+02  0.18454946296E+02  0.00000000000E+00 0. -1.
         -2   -1    0    0    0  501 -0.00000000000E+00 -0.00000000000E+00 -0.66356055714E+03  0.66356055714E+03  0.00000000000E+00 0.  1.
          5    1    1    2  502    0 -0.64945630585E+00  0.51643743504E+02 -0.13528386208E+03  0.14486784935E+03  0.41800000000E+01 0.  1.
         -5    1    1    2    0  502 -0.41707341773E+02 -0.63027541577E+02 -0.35811261130E+03  0.36602470972E+03  0.41800000000E+01 0.  1.
        -11    1    1    2    0    0  0.47277671615E+02 -0.79510406186E+01 -0.14001921469E+03  0.14799924919E+03  0.00000000000E+00 0.  1.
         11    1    1    2    0    0 -0.49208735359E+01  0.19334838692E+02 -0.11689922771E+02  0.23123695163E+02  0.00000000000E+00 0. -1.
</event>
<event>
 6    1  0.6981059E-006  0.1249341E+03  0.7561462E-02  0.1235172E+00
          1   -1    0    0  501    0  0.00000000000E+00  0.00000000000E+00  0.10090344032E+04  0.10090344032E+04  0.00000000000E+00 0. -1.
         -1   -1    0    0    0  501 -0.00000000000E+00 -0.00000000000E+00 -0.16957360839E+02  0.16957360839E+02  0.00000000000E+00 0.  1.
          5    1    1    2  502    0 -0.17361093985E+02  0.67028793331E+02  0.17411834148E+03  0.18742714841E+03  0.41800000000E+01 0.  1.
         -5    1    1    2    0  502 -0.45563111153E+02 -0.53071642157E+02  0.23447073978E+03  0.24471738089E+03  0.41800000000E+01 0.  1.
        -11    1    1    2    0    0  0.77946071715E+02  0.13524086766E+02  0.41487208584E+03  0.42234741461E+03  0.00000000000E+00 0. -1.
         11    1    1    2    0    0 -0.15021866578E+02 -0.27481237940E+02  0.16861587527E+03  0.17149982013E+03  0.00000000000E+00 0.  1.
</event>
<event>
 6    1  0.6981059E-006  0.1234182E+03  0.7561462E-02  0.1237562E+00
          1   -1    0    0  501    0  0.00000000000E+00  0.00000000000E+00  0.30266703815E+03  0.30266703815E+03  0.00000000000E+00 0. -1.
         -1   -1    0    0    0  501 -0.00000000000E+00 -0.00000000000E+00 -0.81045341355E+02  0.81045341355E+02  0.00000000000E+00 0.  1.
          5    1    1    2  502    0  0.39001591947E+02  0.25977480533E+02 -0.20793029867E+02  0.51437108786E+02  0.41800000000E+01 0. -1.
         -5    1    1    2    0  502  0.65724519301E+02 -0.53449658019E+02  0.10267199544E+03  0.13317503305E+03  0.41800000000E+01 0. -1.
        -11    1    1    2    0    0 -0.23246224262E+02 -0.99781370303E+01  0.96092123501E+02  0.99366223436E+02  0.00000000000E+00 0. -1.
         11    1    1    2    0    0 -0.81479886986E+02  0.37450314516E+02  0.43650607716E+02  0.99734014231E+02  0.00000000000E+00 0.  1.
</event>
<event>
 6    1  0.6981059E-006  0.1249486E+03  0.7561462E-02  0.1235150E+00
          2   -1    0    0  501    0  0.00000000000E+00  0.00000000000E+00  0.48007699439E+03  0.48007699439E+03  0.00000000000E+00 0. -1.
         -2   -1    0    0    0  501 -0.00000000000E+00 -0.00000000000E+00 -0.40593078535E+02  0.40593078535E+02  0.00000000000E+00 0.  1.
          5    1    1    2  502    0  0.38139652524E+02 -0.20841264140E+02  0.63474243540E+02  0.77041828759E+02  0.41800000000E+01 0. -1.
         -5    1    1    2    0  502 -0.98902175889E+02 -0.31174621959E+02  0.10805561933E+03  0.14982318485E+03  0.41800000000E+01 0. -1.
        -11    1    1    2    0    0  0.50730907062E+02  0.67232615308E+02  0.26107428845E+03  0.27432395736E+03  0.00000000000E+00 0. -1.
         11    1    1    2    0    0  0.10031616304E+02 -0.15216729209E+02  0.68797645443E+01  0.19481101962E+02  0.00000000000E+00 0.  1.
</event>
<event>
 6    1  0.6981059E-006  0.1215378E+03  0.7561462E-02  0.1240581E+00
         -3   -1    0    0    0  501 -0.00000000000E+00  0.00000000000E+00  0.17376409742E+03  0.17376409742E+03  0.00000000000E+00 0.  1.
          3   -1    0    0  501    0  0.00000000000E+00 -0.00000000000E+00 -0.98585177661E+02  0.98585177661E+02  0.00000000000E+00 0. -1.
          5    1    1    2  502    0 -0.15199082849E+02 -0.82409215313E+02  0.25786788488E+02  0.87776544410E+02  0.41800000000E+01 0.  1.
         -5    1    1    2    0  502  0.45453859034E+02  0.25599507331E+02  0.48311687599E+02  0.71224150647E+02  0.41800000000E+01 0.  1.
        -11    1    1    2    0    0 -0.59641207758E+02  0.28758523865E+02  0.19090555400E+02  0.68909909761E+02  0.00000000000E+00 0.  1.
         11    1    1    2    0    0  0.29386431572E+02  0.28051184117E+02 -0.18010111723E+02  0.44438670268E+02  0.00000000000E+00 0. -1.
</event>
<event>
 6    1  0.6981059E-006  0.1200936E+03  0.7561462E-02  0.1242943E+00
         -2   -1    0    0    0  501 -0.00000000000E+00  0.00000000000E+00  0.10480300514E+03  0.10480300514E+03  0.00000000000E+00 0.  1.
          2   -1    0    0  501    0  0.00000000000E+00 -0.00000000000E+00 -0.26361304200E+03  0.26361304200E+03  0.00000000000E+00 0. -1.
          5    1    1    2  502    0  0.58036772688E+02 -0.22701179397E+02 -0.11010789217E+02  0.63421766052E+02  0.41800000000E+01 0. -1.
         -5    1    1    2    0  502 -0.53513191832E+02 -0.43760673762E+02  0.43136615957E+02  0.81589817406E+02  0.41800000000E+01 0.  1.
        -11    1    1    2    0    0 -0.27773555241E+01  0.87409728324E+02 -0.17902511265E+03  0.19924398427E+03  0.00000000000E+00 0. -1.
         11    1    1    2    0    0 -0.17462253323E+01 -0.20947875165E+02 -0.11910750955E+02  0.24160479407E+02  0.00000000000E+00 0.  1.
</event>
<event>
 6    1  0.6981059E-006  0.1335415E+03  0.7561462E-02  0.1222293E+00
          1   -1    0    0  501    0  0.00000000000E+00  0.00000000000E+00  0.95038933840E+02  0.95038933840E+02  0.00000000000E+00 0. -1.
         -1   -1    0    0    0  501 -0.00000000000E+00 -0.00000000000E+00 -0.39308478841E+03  0.39308478841E+03  0.00000000000E+00 0.  1.
          5    1    1    2  502    0  0.73573947609E+02  0.62772108494E+01 -0.10395461456E+03  0.12757963564E+03  0.41800000000E+01 0. -1.
         -5    1    1    2    0  502 -0.20395327738E+02  0.74912077522E+02 -0.21239388631E+03  0.22617785942E+03  0.41800000000E+01 0. -1.
        -11    1    1    2    0    0  0.13428447443E+02 -0.24360363324E+02 -0.24354835477E+02  0.36971725860E+02  0.00000000000E+00 0.  1.
         11    1    1    2    0    0 -0.66607067315E+02 -0.56828925048E+02  0.42657481767E+02  0.97394501329E+02  0.00000000000E+00 0. -1.
</event>
<event>
 6    1  0.6981059E-006  0.8661174E+02  0.7561462E-02  0.1311271E+00
          2   -1    0    0  501    0  0.00000000000E+00  0.00000000000E+00  0.89308368057E+02  0.89308368057E+02  0.00000000000E+00 0. -1.
         -2   -1    0    0    0  501 -0.00000000000E+00 -0.00000000000E+00 -0.16320550161E+03  0.16320550161E+03  0.00000000000E+00 0.  1.
          5    1    1    2  502    0  0.75374538393E+01 -0.62084898992E+02 -0.76146322110E+02  0.98625973577E+02  0.41800000000E+01 0. -1.
         -5    1    1    2    0  502  0.35182977176E+01  0.11848286714E+02  0.39421077579E+02  0.41524138454E+02  0.41800000000E+01 0. -1.
        -11    1    1    2    0    0 -0.20060462405E+02 -0.19027404887E+02 -0.32051803301E+02  0.42329450545E+02  0.00000000000E+00 0.  1.
         11    1    1    2    0    0  0.90047108480E+01  0.69264017165E+02 -0.51200857175E+01  0.70034307086E+02  0.00000000000E+00 0. -1.
</event>
<event>
 6    1  0.1781735E-005  0.2119571E+03  0.7561462E-02  0.1140026E+00
          1   -1    0    0  501    0  0.00000000000E+00  0.00000000000E+00  0.23720618505E+04  0.23720618505E+04  0.00000000000E+00 0. -1.
         -1   -1    0    0    0  501 -0.00000000000E+00 -0.00000000000E+00 -0.22417820808E+02  0.22417820808E+02  0.00000000000E+00 0.  1.
          5    1    1    2  502    0  0.25994917377E+02 -0.59072772664E+02  0.72235031379E+03  0.72523980616E+03  0.41800000000E+01 0.  1.
         -5    1    1    2    0  502  0.58224419857E+02 -0.12562747509E+03  0.43905855754E+03  0.46039356524E+03  0.41800000000E+01 0.  1.
        -11    1    1    2    0    0 -0.93622223315E+02  0.10588929299E+03  0.82732710386E+03  0.83931388637E+03  0.00000000000E+00 0.  1.
         11    1    1    2    0    0  0.94028860812E+01  0.78810954761E+02  0.36090805453E+03  0.36953241357E+03  0.00000000000E+00 0. -1.
</event>
<event>
 6    1  0.6981059E-006  0.1315081E+03  0.7561462E-02  0.1225235E+00
          2   -1    0    0  501    0  0.00000000000E+00  0.00000000000E+00  0.92204752066E+03  0.92204752066E+03  0.00000000000E+00 0. -1.
         -2   -1    0    0    0  501 -0.00000000000E+00 -0.00000000000E+00 -0.20236129457E+02  0.20236129457E+02  0.00000000000E+00 0.  1.
          5    1    1    2  502    0 -0.21022492915E+02 -0.69217667669E+02  0.22042596391E+03  0.23203040467E+03  0.41800000000E+01 0. -1.
         -5    1    1    2    0  502 -0.51472493331E+02  0.49871619496E+02  0.15847044525E+03  0.17397399351E+03  0.41800000000E+01 0. -1.
        -11    1    1    2    0    0  0.53792003581E+02 -0.33047278211E+02  0.26192911791E+03  0.26943007452E+03  0.00000000000E+00 0.  1.
         11    1    1    2    0    0  0.18702982665E+02  0.52393326384E+02  0.26098586414E+03  0.26684917742E+03  0.00000000000E+00 0. -1.
</event>
<event>
 6    1  0.6981059E-006  0.1267680E+03  0.7561462E-02  0.1232332E+00
         -1   -1    0    0    0  501 -0.00000000000E+00  0.00000000000E+00  0.86389460917E+02  0.86389460917E+02  0.00000000000E+00 0.  1.
          1   -1    0    0  501    0  0.00000000000E+00 -0.00000000000E+00 -0.27247578846E+03  0.27247578846E+03  0.00000000000E+00 0. -1.
          5    1    1    2  502    0 -0.35821263245E+01 -0.41319306240E+02 -0.25945763073E+02  0.49099610168E+02  0.41800000000E+01 0. -1.
         -5    1    1    2    0  502 -0.72498070152E+02  0.68278502721E+02  0.12122266199E+02  0.10041088510E+03  0.41800000000E+01 0. -1.
        -11    1    1    2    0    0  0.23645147341E+02 -0.49687049371E+02 -0.11955727654E+03  0.13161245474E+03  0.00000000000E+00 0. -1.
         11    1    1    2    0    0  0.52435049135E+02  0.22727852890E+02 -0.52705554121E+02  0.77742299361E+02  0.00000000000E+00 0.  1.
</event>
<event>
 6    1  0.6981059E-006  0.3513743E+03  0.7561462E-02  0.1062052E+00
         -2   -1    0    0    0  501 -0.00000000000E+00  0.00000000000E+00  0.10148617598E+04  0.10148617598E+04  0.00000000000E+00 0.  1.
          2   -1    0    0  501    0  0.00000000000E+00 -0.00000000000E+00 -0.13509137221E+03  0.13509137221E+03  0.00000000000E+00 0. -1.
          5    1    1    2  502    0  0.10647694269E+02 -0.93468489029E+02  0.74664140318E+02  0.12017461497E+03  0.41800000000E+01 0.  1.
         -5    1    1    2    0  502 -0.61427535906E+02 -0.24600976125E+03  0.50425163944E+03  0.56443009583E+03  0.41800000000E+01 0.  1.
        -11    1    1    2    0    0 -0.26396270240E+02  0.77192051328E+02  0.66622022561E+02  0.10532744068E+03  0.00000000000E+00 0.  1.
         11    1    1    2    0    0  0.77176111876E+02  0.26228619895E+03  0.23423258524E+03  0.36002098049E+03  0.00000000000E+00 0. -1.
</event>
<event>
 6    1  0.6981059E-006  0.1060098E+03  0.7561462E-02  0.1268143E+00
         -2   -1    0    0    0  501 -0.00000000000E+00  0.00000000000E+00  0.70166163655E+02  0.70166163655E+02  0.00000000000E+00 0.  1.
          2   -1    0    0  501    0  0.00000000000E+00 -0.00000000000E+00 -0.17112934557E+03  0.17112934557E+03  0.00000000000E+00 0. -1.
          5    1    1    2  502    0 -0.53079295449E+02  0.15525867457E-01 -0.36194531667E+01  0.53366512793E+02  0.41800000000E+01 0.  1.
         -5    1    1    2    0  502  0.65154992367E+02 -0.15323728634E+02 -0.52329524774E+02  0.85063748170E+02  0.41800000000E+01 0.  1.
        -11    1    1    2    0    0  0.38625712439E+02 -0.41973018988E+00 -0.12434098398E+02  0.40579904359E+02  0.00000000000E+00 0.  1.
         11    1    1    2    0    0 -0.50701409356E+02  0.15727932956E+02 -0.32580105575E+02  0.62285343903E+02  0.00000000000E+00 0. -1.
</event>
<event>
 6    1  0.6981059E-006  0.1069077E+03  0.7561462E-02  0.1266406E+00
          2   -1    0    0  501    0  0.00000000000E+00  0.00000000000E+00  0.62097994417E+03  0.62097994417E+03  0.00000000000E+00 0. -1.
         -2   -1    0    0    0  501 -0.00000000000E+00 -0.00000000000E+00 -0.22221423853E+02  0.22221423853E+02  0.00000000000E+00 0.  1.
          5    1    1    2  502    0  0.39636374435E+02 -0.10278176011E+02  0.16249165778E+03  0.16762366876E+03  0.41800000000E+01 0. -1.
         -5    1    1    2    0  502 -0.83011065316E+02  0.31464413018E+01  0.14355694697E+03  0.16591204441E+03  0.41800000000E+01 0. -1.
        -11    1    1    2    0    0 -0.86424605474E+01 -0.26274269795E+02  0.34815103436E+02  0.44464826603E+02  0.00000000000E+00 0.  1.
         11    1    1    2    0    0  0.52017151428E+02  0.33406004504E+02  0.25789481213E+03  0.26520082825E+03  0.00000000000E+00 0. -1.
</event>
<event>
 6    1  0.6981059E-006  0.1546550E+03  0.7561462E-02  0.1194867E+00
         -3   -1    0    0    0  501 -0.00000000000E+00  0.00000000000E+00  0.55530365117E+02  0.55530365117E+02  0.00000000000E+00 0.  1.
          3   -1    0    0  501    0  0.00000000000E+00 -0.00000000000E+00 -0.57010525806E+03  0.57010525806E+03  0.00000000000E+00 0. -1.
          5    1    1    2  502    0 -0.11877195637E+03  0.85948393866E+01 -0.24847804519E+03  0.27557115274E+03  0.41800000000E+01 0. -1.
         -5    1    1    2    0  502 -0.10773424120E+02  0.46633611211E+02 -0.19207043287E+02  0.51741117824E+02  0.41800000000E+01 0. -1.
        -11    1    1    2    0    0  0.85747019182E+02 -0.46161888036E+02 -0.23128794431E+03  0.25095335102E+03  0.00000000000E+00 0. -1.
         11    1    1    2    0    0  0.43798361311E+02 -0.90665625622E+01 -0.15601860165E+02  0.47370001592E+02  0.00000000000E+00 0.  1.
</event>
<event>
 6    1  0.6981059E-006  0.1074093E+03  0.7561462E-02  0.1265444E+00
         -2   -1    0    0    0  501 -0.00000000000E+00  0.00000000000E+00  0.70006844871E+03  0.70006844871E+03  0.00000000000E+00 0.  1.
          2   -1    0    0  501    0  0.00000000000E+00 -0.00000000000E+00 -0.18658332337E+02  0.18658332337E+02  0.00000000000E+00 0. -1.
          5    1    1    2  502    0  0.43549012805E+02  0.10840669240E+02  0.87293222846E+02  0.98242637285E+02  0.41800000000E+01 0. -1.
         -5    1    1    2    0  502 -0.66492798114E+02 -0.42060371305E+02  0.32145029102E+03  0.33096544991E+03  0.41800000000E+01 0. -1.
        -11    1    1    2    0    0 -0.13871124584E+02  0.48386714850E+02  0.20033097874E+03  0.20655794179E+03  0.00000000000E+00 0.  1.
         11    1    1    2    0    0  0.36814909894E+02 -0.17167012785E+02  0.72335623763E+02  0.82960752067E+02  0.00000000000E+00 0. -1.
</event>
<event>
 6    1  0.6981059E-006  0.8462017E+02  0.7561462E-02  0.1316429E+00
         -2   -1    0    0    0  501 -0.00000000000E+00  0.00000000000E+00  0.59659424522E+02  0.59659424522E+02  0.00000000000E+00 0.  1.
          2   -1    0    0  501    0  0.00000000000E+00 -0.00000000000E+00 -0.23438665496E+03  0.23438665496E+03  0.00000000000E+00 0. -1.
          5    1    1    2  502    0  0.34909243951E+02 -0.10760899594E+02  0.11081610933E+02  0.38402171477E+02  0.41800000000E+01 0.  1.
         -5    1    1    2    0  502 -0.53890505996E+02  0.51059012605E+02 -0.87418657843E+02  0.11476368565E+03  0.41800000000E+01 0.  1.
        -11    1    1    2    0    0  0.29383058674E+02 -0.36909072736E+02 -0.11310193139E+03  0.12254668772E+03  0.00000000000E+00 0. -1.
         11    1    1    2    0    0 -0.10401796629E+02 -0.33890402752E+01  0.14711747861E+02  0.18333534636E+02  0.00000000000E+00 0.  1.
</event>
<event>
 6    1  0.6981059E-006  0.1177363E+03  0.7561462E-02  0.1246879E+00
          3   -1    0    0  501    0  0.00000000000E+00  0.00000000000E+00  0.56005022226E+03  0.56005022226E+03  0.00000000000E+00 0. -1.
         -3   -1    0    0    0  501 -0.00000000000E+00 -0.00000000000E+00 -0.28044940951E+02  0.28044940951E+02  0.00000000000E+00 0.  1.
          5    1    1    2  502    0 -0.48989509734E+02  0.63423018655E+02  0.17421329112E+03  0.19180770204E+03  0.41800000000E+01 0. -1.
         -5    1    1    2    0  502  0.59557836839E+02  0.52405070263E+01  0.97089989627E+02  0.11409880511E+03  0.41800000000E+01 0.  1.
        -11    1    1    2    0    0  0.96712210469E+01 -0.73781822176E+02  0.24504136205E+03  0.25609091924E+03  0.00000000000E+00 0. -1.
         11    1    1    2    0    0 -0.20239548151E+02  0.51182964948E+01  0.15660638508E+02  0.26097736815E+02  0.00000000000E+00 0.  1.
</event>
<event>
 6    1  0.6981059E-006  0.1400880E+03  0.7561462E-02  0.1213211E+00
         -2   -1    0    0    0  501 -0.00000000000E+00  0.00000000000E+00  0.56855638127E+02  0.56855638127E+02  0.00000000000E+00 0.  1.
          2   -1    0    0  501    0  0.00000000000E+00 -0.00000000000E+00 -0.49873672754E+03  0.49873672754E+03  0.00000000000E+00 0. -1.
          5    1    1    2  502    0 -0.73285706344E+02  0.11107171489E+02 -0.62276807940E+02  0.96902204412E+02  0.41800000000E+01 0. -1.
         -5    1    1    2    0  502  0.80291345179E+02 -0.80259856196E+02 -0.86680889691E+02  0.14289644385E+03  0.41800000000E+01 0.  1.
        -11    1    1    2    0    0 -0.31993249093E+02  0.21564616902E+02 -0.34238090873E+02  0.51583403885E+02  0.00000000000E+00 0.  1.
         11    1    1    2    0    0  0.24987610258E+02  0.47588067805E+02 -0.25868530091E+03  0.26421031352E+03  0.00000000000E+00 0. -1.
</event>
<event>
 6    1  0.6981059E-006  0.1503374E+03  0.7561462E-02  0.1200059E+00
         -1   -1    0    0    0  501 -0.00000000000E+00  0.00000000000E+00  0.61256805640E+02  0.61256805640E+02  0.00000000000E+00 0.  1.
          1   -1    0    0  501    0  0.00000000000E+00 -0.00000000000E+00 -0.47044440393E+03  0.47044440393E+03  0.00000000000E+00 0. -1.
          5    1    1    2  502    0  0.10040802137E+03 -0.99711941126E+02 -0.99296278460E+02  0.17292040156E+03  0.41800000000E+01 0. -1.
         -5    1    1    2    0  502 -0.32876785216E+02  0.12777645585E+02 -0.41471839242E+02  0.54603453031E+02  0.41800000000E+01 0.  1.
        -11    1    1    2    0    0 -0.58938830135E+02  0.30237872008E+02 -0.21792487782E+03  0.22777042603E+03  0.00000000000E+00 0. -1.
         11    1    1    2    0    0 -0.85924060233E+01  0.56696423533E+02 -0.50494602767E+02  0.76406928949E+02  0.00000000000E+00 0.  1.
</event>
<event>
 6    1  0.6981059E-006  0.8187144E+02  0.7561462E-02  0.1323823E+00
          3   -1    0    0  501    0  0.00000000000E+00  0.00000000000E+00  0.58837499782E+02  0.58837499782E+02  0.00000000000E+00 0. -1.
         -3   -1    0    0    0  501 -0.00000000000E+00 -0.00000000000E+00 -0.24370068169E+03  0.24370068169E+03  0.00000000000E+00 0.  1.
          5    1    1    2  502    0  0.11004744569E+02 -0.65867519285E+01  0.23478362195E+02  0.27077584740E+02  0.41800000000E+01 0. -1.
         -5    1    1    2    0  502 -0.26487059684E+02 -0.39438133694E+02 -0.14603135349E+03  0.15362148067E+03  0.41800000000E+01 0. -1.
        -11    1    1    2    0    0 -0.29119004603E+02 -0.10147851481E+02 -0.30511099494E+02  0.43379978228E+02  0.00000000000E+00 0. -1.
         11    1    1    2    0    0  0.44601319718E+02  0.56172737104E+02 -0.31799091119E+02  0.78459137838E+02  0.00000000000E+00 0.  1.
</event>
<event>
 6    1  0.6981059E-006  0.1104273E+03  0.7561462E-02  0.1259781E+00
         -2   -1    0    0    0  501 -0.00000000000E+00  0.00000000000E+00  0.10873779120E+03  0.10873779120E+03  0.00000000000E+00 0.  1.
          2   -1    0    0  501    0  0.00000000000E+00 -0.00000000000E+00 -0.25803089292E+03  0.25803089292E+03  0.00000000000E+00 0. -1.
          5    1    1    2  502    0  0.75483627919E+02 -0.32432392684E+02 -0.12693258647E+03  0.15125803148E+03  0.41800000000E+01 0. -1.
         -5    1    1    2    0  502 -0.22707592402E+02  0.27204620931E+02  0.68366053645E+02  0.77117545628E+02  0.41800000000E+01 0.  1.
        -11    1    1    2    0    0 -0.71544992077E+02 -0.17281454642E+02 -0.75205298566E+02  0.10522913807E+03  0.00000000000E+00 0.  1.
         11    1    1    2    0    0  0.18768956559E+02  0.22509226394E+02 -0.15521270325E+02  0.33163968937E+02  0.00000000000E+00 0. -1.
</event>
<event>
 6    1  0.6981059E-006  0.1646394E+03  0.7561462E-02  0.1183556E+00
          2   -1    0    0  501    0  0.00000000000E+00  0.00000000000E+00  0.84654088543E+03  0.84654088543E+03  0.00000000000E+00 0. -1.
         -2   -1    0    0    0  501 -0.00000000000E+00 -0.00000000000E+00 -0.40567905334E+02  0.40567905334E+02  0.00000000000E+00 0.  1.
          5    1    1    2  502    0 -0.90714369116E+01 -0.43862850178E+02  0.62592117040E+02  0.77081035987E+02  0.41800000000E+01 0. -1.
         -5    1    1    2    0  502  0.13444881721E+03  0.11612240994E+02  0.18018455414E+03  0.22515611149E+03  0.41800000000E+01 0. -1.
        -11    1    1    2    0    0 -0.64314349688E+02 -0.21618551164E+02  0.16447659677E+03  0.17792202848E+03  0.00000000000E+00 0.  1.
         11    1    1    2    0    0 -0.61063030614E+02  0.53869160348E+02  0.39871971213E+03  0.40694961480E+03  0.00000000000E+00 0. -1.
</event>
<event>
 6    1  0.6981059E-006  0.1075081E+03  0.7561462E-02  0.1265255E+00
          1   -1    0    0  501    0  0.00000000000E+00  0.00000000000E+00  0.15386408815E+03  0.15386408815E+03  0.00000000000E+00 0. -1.
         -1   -1    0    0    0  501 -0.00000000000E+00 -0.00000000000E+00 -0.99521739666E+02  0.99521739666E+02  0.00000000000E+00 0.  1.
          5    1    1    2  502    0 -0.44984147078E+01 -0.68652121111E+02  0.38290682024E+02  0.78847943523E+02  0.41800000000E+01 0. -1.
         -5    1    1    2    0  502  0.41685009401E+02  0.27003279401E+02 -0.30370198886E+02  0.58366415750E+02  0.41800000000E+01 0. -1.
        -11    1    1    2    0    0 -0.59645332809E+02  0.43334384437E+02  0.55094810580E+02  0.92037344341E+02  0.00000000000E+00 0. -1.
         11    1    1    2    0    0  0.22458738116E+02 -0.16855427275E+01 -0.86729452334E+01  0.24134124204E+02  0.00000000000E+00 0.  1.
</event>
<event>
 6    1  0.6981059E-006  0.1020960E+03  0.7561462E-02  0.1275949E+00
          1   -1    0    0  501    0  0.00000000000E+00  0.00000000000E+00  0.72580031292E+02  0.72580031292E+02  0.00000000000E+00 0. -1.
         -1   -1    0    0    0  501 -0.00000000000E+00 -0.00000000000E+00 -0.19137647223E+03  0.19137647223E+03  0.00000000000E+00 0.  1.
          5    1    1    2  502    0 -0.11163708344E+02  0.53863856312E+02 -0.48921918651E+02  0.73734455483E+02  0.41800000000E+01 0. -1.
         -5    1    1    2    0  502 -0.25753640697E+02 -0.71177187124E+02 -0.48864399742E+02  0.90192260966E+02  0.41800000000E+01 0. -1.
        -11    1    1    2    0    0  0.48695235641E+02  0.28957086790E+02 -0.43973130134E+02  0.71717327218E+02  0.00000000000E+00 0.  1.
         11    1    1    2    0    0 -0.11777886600E+02 -0.11643755978E+02  0.22963007584E+02  0.28312459860E+02  0.00000000000E+00 0. -1.
</event>
<event>
 6    1  0.6981059E-006  0.9979247E+02  0.7561462E-02  0.1280733E+00
          4   -1    0    0  501    0  0.00000000000E+00  0.00000000000E+00  0.57984395480E+02  0.57984395480E+02  0.00000000000E+00 0. -1.
         -4   -1    0    0    0  501 -0.00000000000E+00 -0.00000000000E+00 -0.27523488442E+03  0.27523488442E+03  0.00000000000E+00 0.  1.
          5    1    1    2  502    0  0.65261427793E+02 -0.45667092290E+01 -0.18242182745E+03  0.19384298884E+03  0.41800000000E+01 0. -1.
         -5    1    1    2    0  502 -0.38665275888E+02  0.93428253418E+00 -0.15586507472E+02  0.41908090609E+02  0.41800000000E+01 0. -1.
        -11    1    1    2    0    0 -0.32970262556E+02 -0.39543291972E+02 -0.58517610628E+01  0.51816534625E+02  0.00000000000E+00 0. -1.
         11    1    1    2    0    0  0.63741106503E+01  0.43175718667E+02 -0.13390392946E+02  0.45651665821E+02  0.00000000000E+00 0.  1.
</event>
<event>
 6    1  0.6981059E-006  0.1303343E+03  0.7561462E-02  0.1226960E+00
         -2   -1    0    0    0  501 -0.00000000000E+00  0.00000000000E+00  0.16906387301E+04  0.16906387301E+04  0.00000000000E+00 0.  1.
          2   -1    0    0  501    0  0.00000000000E+00 -0.00000000000E+00 -0.13486796253E+02  0.13486796253E+02  0.00000000000E+00 0. -1.
          5    1    1    2  502    0 -0.31566118119E+02 -0.13819891925E+02  0.18314299049E+03  0.18640342430E+03  0.41800000000E+01 0.  1.
         -5    1    1    2    0  502  0.10553126601E+03 -0.63626707893E+01  0.11124867517E+04  0.11175068576E+04  0.41800000000E+01 0.  1.
        -11    1    1    2    0    0 -0.67596992347E+02 -0.26817476183E+02  0.25194424234E+03  0.26222973068E+03  0.00000000000E+00 0.  1.
         11    1    1    2    0    0 -0.63681555398E+01  0.47000038898E+02  0.12957794936E+03  0.13798551381E+03  0.00000000000E+00 0. -1.
</event>
<event>
 6    1  0.6981059E-006  0.1083163E+03  0.7561462E-02  0.1263720E+00
          1   -1    0    0  501    0  0.00000000000E+00  0.00000000000E+00  0.38808003736E+02  0.38808003736E+02  0.00000000000E+00 0. -1.
         -1   -1    0    0    0  501 -0.00000000000E+00 -0.00000000000E+00 -0.37320985105E+03  0.37320985105E+03  0.00000000000E+00 0.  1.
          5    1    1    2  502    0 -0.50715641046E+02  0.46387904533E+02 -0.84170795122E+02  0.10874791531E+03  0.41800000000E+01 0.  1.
         -5    1    1    2    0  502  0.76773059685E+01 -0.55439909151E+02 -0.15303359905E+03  0.16300085703E+03  0.41800000000E+01 0.  1.
        -11    1    1    2    0    0  0.67083369139E+02  0.82811441354E+01 -0.94321956759E+02  0.11604045540E+03  0.00000000000E+00 0.  1.
         11    1    1    2    0    0 -0.24045034062E+02  0.77086048202E+00 -0.28754963840E+01  0.24228627043E+02  0.00000000000E+00 0. -1.
</event>
<event>
 6    1  0.6981059E-006  0.1526321E+03  0.7561462E-02  0.1197275E+00
         -1   -1    0    0    0  501 -0.00000000000E+00  0.00000000000E+00  0.87152294093E+02  0.87152294093E+02  0.00000000000E+00 0.  1.
          1   -1    0    0  501    0  0.00000000000E+00 -0.00000000000E+00 -0.29991099385E+03  0.29991099385E+03  0.00000000000E+00 0. -1.
          5    1    1    2  502    0  0.57372117130E+02  0.60988920913E+02 -0.19808271398E+02  0.86145506638E+02  0.41800000000E+01 0. -1.
         -5    1    1    2    0  502  0.59633451210E+02 -0.56324276710E+02 -0.66622574962E+02  0.10575732856E+03  0.41800000000E+01 0. -1.
        -11    1    1    2    0    0 -0.99648246942E+02 -0.33930677249E+02 -0.12155675248E+03  0.16080145537E+03  0.00000000000E+00 0. -1.
         11    1    1    2    0    0 -0.17357321398E+02  0.29266033046E+02 -0.47711009214E+01  0.34358997371E+02  0.00000000000E+00 0.  1.
</event>
<event>
 6    1  0.6981059E-006  0.9989280E+02  0.7561462E-02  0.1280522E+00
          2   -1    0    0  501    0  0.00000000000E+00  0.00000000000E+00  0.59353144072E+02  0.59353144072E+02  0.00000000000E+00 0.  1.
         -2   -1    0    0    0  501 -0.00000000000E+00 -0.00000000000E+00 -0.24530440054E+03  0.24530440054E+03  0.00000000000E+00 0. -1.
          5    1    1    2  502    0 -0.19982693591E+02 -0.32988574864E+02  0.26056018974E+01  0.38882073967E+02  0.41800000000E+01 0. -1.
         -5    1    1    2    0  502  0.59669625008E+02  0.77296919122E+01 -0.14170453992E+03  0.15400604313E+03  0.41800000000E+01 0. -1.
        -11    1    1    2    0    0  0.27911900975E+02 -0.15546632528E+01 -0.19448856356E+02  0.34055090771E+02  0.00000000000E+00 0. -1.
         11    1    1    2    0    0 -0.67598832392E+02  0.26813546205E+02 -0.27403462082E+02  0.77714336740E+02  0.00000000000E+00 0.  1.
</event>
<event>
 6    1  0.6981059E-006  0.1356935E+03  0.7561462E-02  0.1219244E+00
          2   -1    0    0  501    0  0.00000000000E+00  0.00000000000E+00  0.71616219116E+03  0.71616219116E+03  0.00000000000E+00 0. -1.
         -2   -1    0    0    0  501 -0.00000000000E+00 -0.00000000000E+00 -0.38463665273E+02  0.38463665273E+02  0.00000000000E+00 0.  1.
          5    1    1    2  502    0  0.17667552731E+02 -0.25322789060E+02  0.33071659433E+02  0.45437793993E+02  0.41800000000E+01 0. -1.
         -5    1    1    2    0  502 -0.49817972179E+02  0.11677477073E+03  0.14917678807E+03  0.19593203906E+03  0.41800000000E+01 0. -1.
        -11    1    1    2    0    0  0.43837477060E+02 -0.91561431038E+02  0.48991900648E+03  0.50032574685E+03  0.00000000000E+00 0. -1.
         11    1    1    2    0    0 -0.11687057612E+02  0.10944936851E+00  0.55310719021E+01  0.12930276531E+02  0.00000000000E+00 0.  1.
</event>
<event>
 6    1  0.8948362E-006  0.1079748E+03  0.7561462E-02  0.1264367E+00
         -3   -1    0    0    0  501 -0.00000000000E+00  0.00000000000E+00  0.68663668602E+03  0.68663668602E+03  0.00000000000E+00 0.  1.
          3   -1    0    0  501    0  0.00000000000E+00 -0.00000000000E+00 -0.22735168037E+02  0.22735168037E+02  0.00000000000E+00 0. -1.
          5    1    1    2  502    0 -0.19191321001E+02 -0.48058253132E+02  0.73410971490E+02  0.89914101402E+02  0.41800000000E+01 0.  1.
         -5    1    1    2    0  502  0.48908349351E+02  0.16746382062E+02  0.34632840399E+03  0.35019038216E+03  0.41800000000E+01 0.  1.
        -11    1    1    2    0    0 -0.68672579673E+02  0.17884046864E+02  0.13360744911E+03  0.15128355095E+03  0.00000000000E+00 0. -1.
         11    1    1    2    0    0  0.38955551323E+02  0.13427824206E+02  0.11055469339E+03  0.11798381954E+03  0.00000000000E+00 0.  1.
</event>
<event>
 6    1  0.6981059E-006  0.1142588E+03  0.7561462E-02  0.1252880E+00
          2   -1    0    0  501    0  0.00000000000E+00  0.00000000000E+00  0.27778366023E+02  0.27778366023E+02  0.00000000000E+00 0. -1.
         -2   -1    0    0    0  501 -0.00000000000E+00 -0.00000000000E+00 -0.55013953916E+03  0.55013953916E+03  0.00000000000E+00 0.  1.
          5    1    1    2  502    0 -0.33358931110E+02 -0.33017942656E+02 -0.21463104955E+03  0.21974294677E+03  0.41800000000E+01 0.  1.
         -5    1    1    2    0  502 -0.40656829710E+01  0.70824565279E+02 -0.97004322546E+02  0.12024957305E+03  0.41800000000E+01 0.  1.
        -11    1    1    2    0    0 -0.21162606001E+02 -0.46512943418E+02 -0.10350801158E+03  0.11543490919E+03  0.00000000000E+00 0. -1.
         11    1    1    2    0    0  0.58587220082E+02  0.87063207954E+01 -0.10721778946E+03  0.12249047618E+03  0.00000000000E+00 0.  1.
</event>
<event>
 6    1  0.6981059E-006  0.1217170E+03  0.7561462E-02  0.1240291E+00
          2   -1    0    0  501    0  0.00000000000E+00  0.00000000000E+00  0.47457422639E+03  0.47457422639E+03  0.00000000000E+00 0. -1.
         -2   -1    0    0    0  501 -0.00000000000E+00 -0.00000000000E+00 -0.33025450650E+02  0.33025450650E+02  0.00000000000E+00 0.  1.
          5    1    1    2  502    0  0.73326198915E+02 -0.80419933707E+01  0.10794514672E+03  0.13080914420E+03  0.41800000000E+01 0. -1.
         -5    1    1    2    0  502 -0.34600353254E+02  0.55109320597E+02  0.10148787337E+03  0.12062952584E+03  0.41800000000E+01 0. -1.
        -11    1    1    2    0    0 -0.57594596049E+02 -0.58653189836E+02  0.14927603029E+03  0.17041322540E+03  0.00000000000E+00 0.  1.
         11    1    1    2    0    0  0.18868750388E+02  0.11585862609E+02  0.82839725354E+02  0.85747781606E+02  0.00000000000E+00 0. -1.
</event>
<event>
 6    1  0.6981059E-006  0.1046544E+03  0.7561462E-02  0.1270802E+00
          1   -1    0    0  501    0  0.00000000000E+00  0.00000000000E+00  0.27233861498E+03  0.27233861498E+03  0.00000000000E+00 0. -1.
         -1   -1    0    0    0  501 -0.00000000000E+00 -0.00000000000E+00 -0.49185402197E+02  0.49185402197E+02  0.00000000000E+00 0.  1.
          5    1    1    2  502    0 -0.11203185070E+02  0.46711412572E+02  0.72229404364E+02  0.86844842535E+02  0.41800000000E+01 0.  1.
         -5    1    1    2    0  502 -0.12372165950E+02 -0.65013471910E+02  0.13421866752E+02  0.67656787740E+02  0.41800000000E+01 0.  1.
        -11    1    1    2    0    0  0.27106089109E+02  0.53197592373E+02  0.84414471589E+02  0.10339500430E+03  0.00000000000E+00 0.  1.
         11    1    1    2    0    0 -0.35307380886E+01 -0.34895533035E+02  0.53087470082E+02  0.63627382603E+02  0.00000000000E+00 0. -1.
</event>
<event>
 6    1  0.6981059E-006  0.5899354E+02  0.7561462E-02  0.1402105E+00
          4   -1    0    0  501    0  0.00000000000E+00  0.00000000000E+00  0.36859345116E+02  0.36859345116E+02  0.00000000000E+00 0. -1.
         -4   -1    0    0    0  501 -0.00000000000E+00 -0.00000000000E+00 -0.40087853723E+03  0.40087853723E+03  0.00000000000E+00 0.  1.
          5    1    1    2  502    0 -0.21971597613E+02 -0.31903331022E+02 -0.28831760772E+03  0.29093829063E+03  0.41800000000E+01 0.  1.
         -5    1    1    2    0  502  0.29897180019E+02  0.35661493065E+01 -0.70958333327E+01  0.31215093219E+02  0.41800000000E+01 0.  1.
        -11    1    1    2    0    0 -0.22450293851E+02  0.84222296207E+01  0.15092243825E+02  0.28332410230E+02  0.00000000000E+00 0. -1.
         11    1    1    2    0    0  0.14524711445E+02  0.19914952095E+02 -0.83697994885E+02  0.87252088268E+02  0.00000000000E+00 0.  1.
</event>
<event>
 6    1  0.6981059E-006  0.1513893E+03  0.7561462E-02  0.1198776E+00
         -3   -1    0    0    0  501 -0.00000000000E+00  0.00000000000E+00  0.75629499048E+02  0.75629499048E+02  0.00000000000E+00 0.  1.
          3   -1    0    0  501    0  0.00000000000E+00 -0.00000000000E+00 -0.35621563975E+03  0.35621563975E+03  0.00000000000E+00 0. -1.
          5    1    1    2  502    0  0.39926232894E+02 -0.52580491571E+02 -0.41316573347E+02  0.77995793477E+02  0.41800000000E+01 0. -1.
         -5    1    1    2    0  502 -0.91193046303E+02 -0.57771258743E+02 -0.83983363407E+02  0.13683701166E+03  0.41800000000E+01 0. -1.
        -11    1    1    2    0    0  0.11698966775E+02  0.73811510178E+02 -0.29798330335E+02  0.80454616704E+02  0.00000000000E+00 0.  1.
         11    1    1    2    0    0  0.39567846634E+02  0.36540240136E+02 -0.12548787361E+03  0.13655771696E+03  0.00000000000E+00 0. -1.
</event>
<event>
 6    1  0.6981059E-006  0.1369920E+03  0.7561462E-02  0.1217435E+00
          1   -1    0    0  501    0  0.00000000000E+00  0.00000000000E+00  0.17272041697E+03  0.17272041697E+03  0.00000000000E+00 0. -1.
         -1   -1    0    0    0  501 -0.00000000000E+00 -0.00000000000E+00 -0.11084884988E+03  0.11084884988E+03  0.00000000000E+00 0.  1.
          5    1    1    2  502    0  0.49362005936E+02  0.44700425553E+02  0.26783836799E+02  0.71899805203E+02  0.41800000000E+01 0. -1.
         -5    1    1    2    0  502  0.28139994450E+02 -0.78580780148E+02  0.16501406112E+02  0.85185486440E+02  0.41800000000E+01 0. -1.
        -11    1    1    2    0    0 -0.97670747435E+02  0.34287498526E+02  0.22508941762E+02  0.10593328051E+03  0.00000000000E+00 0. -1.
         11    1    1    2    0    0  0.20168747049E+02 -0.40714393049E+00 -0.39226175795E+01  0.20550694693E+02  0.00000000000E+00 0.  1.
</event>
<event>
 6    1  0.6981059E-006  0.7556806E+02  0.7561462E-02  0.1342121E+00
         -2   -1    0    0    0  501 -0.00000000000E+00  0.00000000000E+00  0.49765528856E+02  0.49765528856E+02  0.00000000000E+00 0.  1.
          2   -1    0    0  501    0  0.00000000000E+00 -0.00000000000E+00 -0.24059836061E+03  0.24059836061E+03  0.00000000000E+00 0. -1.
          5    1    1    2  502    0 -0.20375024032E+02 -0.40993869195E+02  0.24948637573E+01  0.46036242908E+02  0.41800000000E+01 0. -1.
         -5    1    1    2    0  502  0.45168141916E+02  0.29946618235E+02 -0.73293209161E+02  0.91248714495E+02  0.41800000000E+01 0.  1.
        -11    1    1    2    0    0  0.29048712346E+01 -0.13496190592E+02  0.10535233026E+02  0.17365960161E+02  0.00000000000E+00 0.  1.
         11    1    1    2    0    0 -0.27697989119E+02  0.24543441552E+02 -0.13056971937E+03  0.13571297190E+03  0.00000000000E+00 0. -1.
</event>
<event>
 6    1  0.6981059E-006  0.1016033E+03  0.7561462E-02  0.1276960E+00
          1   -1    0    0  501    0  0.00000000000E+00  0.00000000000E+00  0.47693507571E+03  0.47693507571E+03  0.00000000000E+00 0. -1.
         -1   -1    0    0    0  501 -0.00000000000E+00 -0.00000000000E+00 -0.39306695514E+02  0.39306695514E+02  0.00000000000E+00 0.  1.
          5    1    1    2  502    0 -0.50054538531E+01 -0.12977268668E+02  0.11962091138E+03  0.12049937307E+03  0.41800000000E+01 0.  1.
         -5    1    1    2    0  502  0.38616591527E+02  0.75023061561E+02  0.37679187163E+02  0.92503483461E+02  0.41800000000E+01 0.  1.
        -11    1    1    2    0    0 -0.14884716052E+02  0.17215314668E+02  0.19429290074E+02  0.29923555001E+02  0.00000000000E+00 0.  1.
         11    1    1    2    0    0 -0.18726421621E+02 -0.79261107562E+02  0.26089899158E+03  0.27331535970E+03  0.00000000000E+00 0. -1.
</event>
<event>
 6    1  0.6981059E-006  0.8909864E+02  0.7561462E-02  0.1305049E+00
         -1   -1    0    0    0  501 -0.00000000000E+00  0.00000000000E+00  0.59775404171E+02  0.59775404171E+02  0.00000000000E+00 0.  1.
          1   -1    0    0  501    0  0.00000000000E+00 -0.00000000000E+00 -0.23559648306E+03  0.23559648306E+03  0.00000000000E+00 0. -1.
          5    1    1    2  502    0 -0.75088194060E+02 -0.21113154782E+02 -0.84720606961E+01  0.78570035029E+02  0.41800000000E+01 0.  1.
         -5    1    1    2    0  502  0.37985115690E+02  0.49847870311E+01 -0.55679466727E+02  0.67715526512E+02  0.41800000000E+01 0.  1.
        -11    1    1    2    0    0  0.10494076060E+02  0.29826902399E+02 -0.11472518492E+03  0.11900267978E+03  0.00000000000E+00 0. -1.
         11    1    1    2    0    0  0.26609002309E+02 -0.13698534648E+02  0.30556334581E+01  0.30083645910E+02  0.00000000000E+00 0.  1.
</event>
<event>
 6    1  0.6981059E-006  0.1093141E+03  0.7561462E-02  0.1261845E+00
         -2   -1    0    0    0  501 -0.00000000000E+00  0.00000000000E+00  0.21029053224E+02  0.21029053224E+02  0.00000000000E+00 0. -1.
          2   -1    0    0  501    0  0.00000000000E+00 -0.00000000000E+00 -0.68807421598E+03  0.68807421598E+03  0.00000000000E+00 0.  1.
          5    1    1    2  502    0  0.45623135632E+02 -0.34520936030E+02 -0.93067377477E+02  0.10932600185E+03  0.41800000000E+01 0.  1.
         -5    1    1    2    0  502 -0.77080104981E+02 -0.81085409212E+01 -0.16524158329E+03  0.18256326100E+03  0.41800000000E+01 0.  1.
        -11    1    1    2    0    0 -0.95650764434E+01  0.41521493415E+02 -0.21410061082E+03  0.21829932812E+03  0.00000000000E+00 0. -1.
         11    1    1    2    0    0  0.41022045793E+02  0.11079835356E+01 -0.19463559117E+03  0.19891467824E+03  0.00000000000E+00 0.  1.
</event>
<event>
 6    1  0.6981059E-006  0.1162063E+03  0.7561462E-02  0.1249490E+00
         -3   -1    0    0    0  501 -0.00000000000E+00  0.00000000000E+00  0.39254048519E+03  0.39254048519E+03  0.00000000000E+00 0.  1.
          3   -1    0    0  501    0  0.00000000000E+00 -0.00000000000E+00 -0.48595056540E+02  0.48595056540E+02  0.00000000000E+00 0. -1.
          5    1    1    2  502    0  0.20328175487E+02  0.83738018990E+01  0.68726825688E+01  0.23410712133E+02  0.41800000000E+01 0. -1.
         -5    1    1    2    0  502 -0.91849159431E+02  0.23026014042E+02  0.25374963987E+03  0.27087417290E+03  0.41800000000E+01 0.  1.
        -11    1    1    2    0    0  0.64740956123E+02 -0.58535417715E+02  0.80506217898E+02  0.11873936856E+03  0.00000000000E+00 0.  1.
         11    1    1    2    0    0  0.67800278200E+01  0.27135601774E+02  0.28168883171E+01  0.28111288136E+02  0.00000000000E+00 0. -1.
</event>
<event>
 6    1  0.6981059E-006  0.1173954E+03  0.7561462E-02  0.1247457E+00
         -1   -1    0    0    0  501 -0.00000000000E+00  0.00000000000E+00  0.47015280597E+02  0.47015280597E+02  0.00000000000E+00 0.  1.
          1   -1    0    0  501    0  0.00000000000E+00 -0.00000000000E+00 -0.35739988568E+03  0.35739988568E+03  0.00000000000E+00 0. -1.
          5    1    1    2  502    0 -0.45185569422E+02 -0.63564707561E+02 -0.39455327741E+02  0.87500874387E+02  0.41800000000E+01 0.  1.
         -5    1    1    2    0  502 -0.19464565655E+02  0.47678249344E+02 -0.93531465304E+02  0.10685360162E+03  0.41800000000E+01 0.  1.
        -11    1    1    2    0    0 -0.78853987909E+00 -0.26852156971E+02 -0.17438323232E+02  0.32027413981E+02  0.00000000000E+00 0.  1.
         11    1    1    2    0    0  0.65438674956E+02  0.42738615188E+02 -0.15995948881E+03  0.17803327629E+03  0.00000000000E+00 0. -1.
</event>
<event>
 6    1  0.6981059E-006  0.8188794E+02  0.7561462E-02  0.1323778E+00
         -1   -1    0    0    0  501 -0.00000000000E+00  0.00000000000E+00  0.40059433541E+02  0.40059433541E+02  0.00000000000E+00 0.  1.
          1   -1    0    0  501    0  0.00000000000E+00 -0.00000000000E+00 -0.33031834755E+03  0.33031834755E+03  0.00000000000E+00 0. -1.
          5    1    1    2  502    0 -0.47778436265E+02  0.28914962023E+01 -0.15473145491E+03  0.16201986070E+03  0.41800000000E+01 0. -1.
         -5    1    1    2    0  502  0.22789378100E+02 -0.28111505266E+02  0.44586459115E+01  0.36701013690E+02  0.41800000000E+01 0. -1.
        -11    1    1    2    0    0 -0.25044702827E+02  0.10379968182E+02 -0.58617798742E+01  0.27737003126E+02  0.00000000000E+00 0.  1.
         11    1    1    2    0    0  0.50033760992E+02  0.14840040881E+02 -0.13412432513E+03  0.14391990358E+03  0.00000000000E+00 0. -1.
</event>
<event>
 6    1  0.6981059E-006  0.6092983E+02  0.7561462E-02  0.1393971E+00
         -1   -1    0    0    0  501 -0.00000000000E+00  0.00000000000E+00  0.17595168987E+02  0.17595168987E+02  0.00000000000E+00 0.  1.
          1   -1    0    0  501    0  0.00000000000E+00 -0.00000000000E+00 -0.69986985776E+03  0.69986985776E+03  0.00000000000E+00 0. -1.
          5    1    1    2  502    0  0.14784042592E+02 -0.13341953157E+02 -0.38788235179E+03  0.38841571397E+03  0.41800000000E+01 0. -1.
         -5    1    1    2    0  502 -0.22418274869E+01 -0.52098610435E+01  0.88736993669E+01  0.11330639127E+02  0.41800000000E+01 0. -1.
        -11    1    1    2    0    0 -0.26558853733E+02  0.51894997154E+02 -0.19859985810E+03  0.20697914648E+03  0.00000000000E+00 0. -1.
         11    1    1    2    0    0  0.14016638627E+02 -0.33343182954E+02 -0.10466617826E+03  0.11073952717E+03  0.00000000000E+00 0.  1.
</event>
<event>
 6    1  0.6981059E-006  0.9330683E+02  0.7561462E-02  0.1295036E+00
         -3   -1    0    0    0  501 -0.00000000000E+00  0.00000000000E+00  0.64063575209E+02  0.64063575209E+02  0.00000000000E+00 0.  1.
          3   -1    0    0  501    0  0.00000000000E+00 -0.00000000000E+00 -0.29217855160E+03  0.29217855160E+03  0.00000000000E+00 0. -1.
          5    1    1    2  502    0  0.49863440548E+02  0.40300126207E+02 -0.85682596332E+02  0.10709548352E+03  0.41800000000E+01 0.  1.
         -5    1    1    2    0  502 -0.29282605511E+02  0.20360493983E+02  0.27276709188E+02  0.45094478208E+02  0.41800000000E+01 0.  1.
        -11    1    1    2    0    0  0.20188304812E+02 -0.26180609114E+02 -0.83647658795E+01  0.34102217714E+02  0.00000000000E+00 0.  1.
         11    1    1    2    0    0 -0.40769139849E+02 -0.34480011077E+02 -0.16134432337E+03  0.16994994737E+03  0.00000000000E+00 0. -1.
</event>
<event>
 6    1  0.6981059E-006  0.1132155E+03  0.7561462E-02  0.1254728E+00
         -2   -1    0    0    0  501 -0.00000000000E+00  0.00000000000E+00  0.25135273168E+02  0.25135273168E+02  0.00000000000E+00 0.  1.
          2   -1    0    0  501    0  0.00000000000E+00 -0.00000000000E+00 -0.89462943975E+03  0.89462943975E+03  0.00000000000E+00 0. -1.
          5    1    1    2  502    0 -0.59107317517E+01  0.26677809921E+02 -0.28418452940E+03  0.28552576319E+03  0.41800000000E+01 0. -1.
         -5    1    1    2    0  502 -0.62126417610E+01 -0.88375361034E+02 -0.88541323319E+02  0.12532294160E+03  0.41800000000E+01 0.  1.
        -11    1    1    2    0    0  0.49190600071E+02  0.17037331319E+02 -0.21252789551E+03  0.21881063083E+03  0.00000000000E+00 0.  1.
         11    1    1    2    0    0 -0.37067226558E+02  0.44660219794E+02 -0.28424041835E+03  0.29010537731E+03  0.00000000000E+00 0. -1.
</event>
<event>
 6    1  0.6981059E-006  0.9668647E+02  0.7561462E-02  0.1287422E+00
         -2   -1    0    0    0  501 -0.00000000000E+00  0.00000000000E+00  0.35618348831E+03  0.35618348831E+03  0.00000000000E+00 0.  1.
          2   -1    0    0  501    0  0.00000000000E+00 -0.00000000000E+00 -0.54570797794E+02  0.54570797794E+02  0.00000000000E+00 0. -1.
          5    1    1    2  502    0 -0.27625974157E+01  0.56681567870E+01 -0.15406059679E+02  0.17163304480E+02  0.41800000000E+01 0. -1.
         -5    1    1    2    0  502 -0.41446171006E+02 -0.75335898516E+02  0.22158526525E+03  0.23771997155E+03  0.41800000000E+01 0. -1.
        -11    1    1    2    0    0  0.54429433414E+02  0.37832202373E+02  0.13871951395E+02  0.67722003763E+02  0.00000000000E+00 0. -1.
         11    1    1    2    0    0 -0.10220664993E+02  0.31835539356E+02  0.81561533545E+02  0.88149006309E+02  0.00000000000E+00 0.  1.
</event>
<event>
 6    1  0.6981059E-006  0.3596866E+03  0.7561462E-02  0.1058708E+00
          2   -1    0    0  501    0  0.00000000000E+00  0.00000000000E+00  0.25090901653E+03  0.25090901653E+03  0.00000000000E+00 0. -1.
         -2   -1    0    0    0  501 -0.00000000000E+00 -0.00000000000E+00 -0.73080786519E+03  0.73080786519E+03  0.00000000000E+00 0.  1.
          5    1    1    2  502    0 -0.26266804198E+02 -0.11298257851E+03 -0.76759297448E+02  0.13915627975E+03  0.41800000000E+01 0.  1.
         -5    1    1    2    0  502  0.12540488756E+02 -0.24229194286E+03 -0.41059433406E+03  0.47693587515E+03  0.41800000000E+01 0.  1.
        -11    1    1    2    0    0 -0.23775711434E+02  0.11141486435E+03 -0.25399166206E+02  0.11672049561E+03  0.00000000000E+00 0.  1.
         11    1    1    2    0    0  0.37502026875E+02  0.24385965703E+03  0.32853949052E+02  0.24890423121E+03  0.00000000000E+00 0. -1.
</event>
<event>
 6    1  0.6981059E-006  0.1108270E+03  0.7561462E-02  0.1259046E+00
          1   -1    0    0  501    0  0.00000000000E+00  0.00000000000E+00  0.44962175463E+03  0.44962175463E+03  0.00000000000E+00 0. -1.
         -1   -1    0    0    0  501 -0.00000000000E+00 -0.00000000000E+00 -0.32114497332E+02  0.32114497332E+02  0.00000000000E+00 0.  1.
          5    1    1    2  502    0 -0.53288585153E+02  0.37634721415E+02  0.87801294830E+02  0.10946499595E+03  0.41800000000E+01 0.  1.
         -5    1    1    2    0  502  0.16643660950E+02 -0.65397480922E+02  0.10631810144E+03  0.12599544855E+03  0.41800000000E+01 0.  1.
        -11    1    1    2    0    0  0.46359949906E+02 -0.11877251553E+02  0.54514716822E+02  0.72540805137E+02  0.00000000000E+00 0. -1.
         11    1    1    2    0    0 -0.97150257032E+01  0.39640011060E+02  0.16887314420E+03  0.17373500232E+03  0.00000000000E+00 0.  1.
</event>
<event>
 6    1  0.6981059E-006  0.1238963E+03  0.7561462E-02  0.1236804E+00
         -2   -1    0    0    0  501 -0.00000000000E+00  0.00000000000E+00  0.10285547823E+03  0.10285547823E+03  0.00000000000E+00 0.  1.
          2   -1    0    0  501    0  0.00000000000E+00 -0.00000000000E+00 -0.18019833018E+03  0.18019833018E+03  0.00000000000E+00 0. -1.
          5    1    1    2  502    0 -0.36900255593E+02 -0.64568087796E+01  0.11842595150E+01  0.37711988983E+02  0.41800000000E+01 0.  1.
         -5    1    1    2    0  502  0.81010947579E+02  0.74144624224E+02 -0.30632907172E+02  0.11408788862E+03  0.41800000000E+01 0.  1.
        -11    1    1    2    0    0  0.14387735180E+02 -0.20486254701E+02  0.18368705245E+02  0.31050006243E+02  0.00000000000E+00 0.  1.
         11    1    1    2    0    0 -0.58498427166E+02 -0.47201560744E+02 -0.66262909539E+02  0.10020392456E+03  0.00000000000E+00 0. -1.
</event>
<event>
 6    1  0.6981059E-006  0.7820136E+02  0.7561462E-02  0.1334235E+00
          1   -1    0    0  501    0  0.00000000000E+00  0.00000000000E+00  0.14194145508E+03  0.14194145508E+03  0.00000000000E+00 0. -1.
         -1   -1    0    0    0  501 -0.00000000000E+00 -0.00000000000E+00 -0.84522018457E+02  0.84522018457E+02  0.00000000000E+00 0.  1.
          5    1    1    2  502    0  0.43891776654E+01 -0.50185975871E+02 -0.19735558908E+02  0.54266580324E+02  0.41800000000E+01 0.  1.
         -5    1    1    2    0  502 -0.17782362175E+02  0.56870507205E+02  0.43609418016E+02  0.73957560357E+02  0.41800000000E+01 0.  1.
        -11    1    1    2    0    0 -0.14951720722E+02 -0.93745485163E+01  0.58050636068E+02  0.60673820222E+02  0.00000000000E+00 0. -1.
         11    1    1    2    0    0  0.28344905231E+02  0.26900171816E+01 -0.24505058551E+02  0.37565512636E+02  0.00000000000E+00 0.  1.
</event>
<event>
 6    1  0.6981059E-006  0.2182665E+03  0.7561462E-02  0.1135182E+00
         -2   -1    0    0    0  501 -0.00000000000E+00  0.00000000000E+00  0.91591079074E+02  0.91591079074E+02  0.00000000000E+00 0.  1.
          2   -1    0    0  501    0  0.00000000000E+00 -0.00000000000E+00 -0.96638203455E+03  0.96638203455E+03  0.00000000000E+00 0. -1.
          5    1    1    2  502    0  0.36361945472E+02  0.18896645630E+02 -0.72220692279E+02  0.83141897307E+02  0.41800000000E+01 0.  1.
         -5    1    1    2    0  502  0.16142873897E+03 -0.85492376505E+02 -0.51565802666E+02  0.18985438791E+03  0.41800000000E+01 0.  1.
        -11    1    1    2    0    0 -0.14372588719E+03  0.28601570542E+02 -0.63288898747E+03  0.64963347431E+03  0.00000000000E+00 0. -1.
         11    1    1    2    0    0 -0.54064797250E+02  0.37994160333E+02 -0.11811547306E+03  0.13534335409E+03  0.00000000000E+00 0.  1.
</event>
<event>
 6    1  0.6981059E-006  0.7555142E+02  0.7561462E-02  0.1342172E+00
          1   -1    0    0  501    0  0.00000000000E+00  0.00000000000E+00  0.10127623442E+03  0.10127623442E+03  0.00000000000E+00 0. -1.
         -1   -1    0    0    0  501 -0.00000000000E+00 -0.00000000000E+00 -0.11376816986E+04  0.11376816986E+04  0.00000000000E+00 0.  1.
          5    1    1    2  502    0 -0.12954756649E+02 -0.34723845725E+02 -0.11985865467E+03  0.12552744991E+03  0.41800000000E+01 0. -1.
         -5    1    1    2    0  502  0.48843159667E+01  0.21971069890E+02 -0.99298057088E+03  0.99324441655E+03  0.41800000000E+01 0.  1.
        -11    1    1    2    0    0  0.49038927005E+02  0.63609506290E+01  0.53296137344E+02  0.72703207017E+02  0.00000000000E+00 0. -1.
         11    1    1    2    0    0 -0.40968486324E+02  0.63918252060E+01  0.23137624059E+02  0.47482859520E+02  0.00000000000E+00 0.  1.
</event>
<event>
 6    1  0.6981059E-006  0.1149487E+03  0.7561462E-02  0.1251671E+00
         -1   -1    0    0    0  501 -0.00000000000E+00  0.00000000000E+00  0.35221959728E+02  0.35221959728E+02  0.00000000000E+00 0.  1.
          1   -1    0    0  501    0  0.00000000000E+00 -0.00000000000E+00 -0.50165975157E+03  0.50165975157E+03  0.00000000000E+00 0. -1.
          5    1    1    2  502    0 -0.60071908942E+01  0.16121731217E+02  0.36321499977E+01  0.18073778617E+02  0.41800000000E+01 0.  1.
         -5    1    1    2    0  502  0.32893886138E+02 -0.87592790009E+02 -0.27242762345E+03  0.28807774476E+03  0.41800000000E+01 0.  1.
        -11    1    1    2    0    0 -0.51274097700E+02  0.97819820003E+01 -0.97841896333E+02  0.11089525213E+03  0.00000000000E+00 0.  1.
         11    1    1    2    0    0  0.24387402456E+02  0.61689076792E+02 -0.99800422056E+02  0.11983493579E+03  0.00000000000E+00 0. -1.
</event>
<event>
 6    1  0.6981059E-006  0.8894322E+02  0.7561462E-02  0.1305431E+00
         -2   -1    0    0    0  501 -0.00000000000E+00  0.00000000000E+00  0.77406561408E+02  0.77406561408E+02  0.00000000000E+00 0. -1.
          2   -1    0    0  501    0  0.00000000000E+00 -0.00000000000E+00 -0.21129791166E+03  0.21129791166E+03  0.00000000000E+00 0.  1.
          5    1    1    2  502    0 -0.19052171675E+02  0.67204584386E+02  0.11944989834E+02  0.70990116144E+02  0.41800000000E+01 0.  1.
         -5    1    1    2    0  502  0.20761865913E+02 -0.11629317601E+01 -0.86213101308E+02  0.88783887748E+02  0.41800000000E+01 0.  1.
        -11    1    1    2    0    0 -0.19413543981E+02 -0.66205865262E+02 -0.77506387896E+02  0.10376580578E+03  0.00000000000E+00 0.  1.
         11    1    1    2    0    0  0.17703849744E+02  0.16421263640E+00  0.17883149115E+02  0.25164663396E+02  0.00000000000E+00 0. -1.
</event>
<event>
 6    1  0.6981059E-006  0.9643570E+02  0.7561462E-02  0.1287975E+00
         -2   -1    0    0    0  501 -0.00000000000E+00  0.00000000000E+00  0.29116925997E+02  0.29116925997E+02  0.00000000000E+00 0.  1.
          2   -1    0    0  501    0  0.00000000000E+00 -0.00000000000E+00 -0.66095934344E+03  0.66095934344E+03  0.00000000000E+00 0. -1.
          5    1    1    2  502    0 -0.34095913871E+02  0.89084400204E+01 -0.13887244105E+03  0.14333498850E+03  0.41800000000E+01 0. -1.
         -5    1    1    2    0  502  0.31388060919E+02 -0.48724917781E+02 -0.17149027309E+02  0.60587866101E+02  0.41800000000E+01 0. -1.
        -11    1    1    2    0    0 -0.42935589529E+02  0.30560528010E+02 -0.27481855988E+03  0.27982610953E+03  0.00000000000E+00 0. -1.
         11    1    1    2    0    0  0.45643442481E+02  0.92559497501E+01 -0.20100238921E+03  0.20632730531E+03  0.00000000000E+00 0.  1.
</event>
<event>
 6    1  0.6981059E-006  0.1601255E+03  0.7561462E-02  0.1188555E+00
         -2   -1    0    0    0  501 -0.00000000000E+00  0.00000000000E+00  0.93599192926E+02  0.93599192926E+02  0.00000000000E+00 0.  1.
          2   -1    0    0  501    0  0.00000000000E+00 -0.00000000000E+00 -0.35988947361E+03  0.35988947361E+03  0.00000000000E+00 0. -1.
          5    1    1    2  502    0 -0.63365690927E+02  0.88742513493E+02 -0.73512820014E+02  0.13157526969E+03  0.41800000000E+01 0. -1.
         -5    1    1    2    0  502  0.31809116418E+02  0.41465970551E+02 -0.14185640134E+03  0.15123477643E+03  0.41800000000E+01 0. -1.
        -11    1    1    2    0    0 -0.72218226386E+00 -0.12616650074E+03 -0.23951018721E+02  0.12842180016E+03  0.00000000000E+00 0.  1.
         11    1    1    2    0    0  0.32278756773E+02 -0.40419832986E+01 -0.26970040605E+02  0.42256820255E+02  0.00000000000E+00 0. -1.
</event>
<event>
 6    1  0.6981059E-006  0.1532705E+03  0.7561462E-02  0.1196511E+00
          1   -1    0    0  501    0  0.00000000000E+00  0.00000000000E+00  0.57965745043E+02  0.57965745043E+02  0.00000000000E+00 0. -1.
         -1   -1    0    0    0  501 -0.00000000000E+00 -0.00000000000E+00 -0.44248931210E+03  0.44248931210E+03  0.00000000000E+00 0.  1.
          5    1    1    2  502    0 -0.72777504211E+02 -0.84499342941E+02 -0.20688467453E+03  0.23506476774E+03  0.41800000000E+01 0.  1.
         -5    1    1    2    0  502 -0.44993069561E+02  0.43270114613E+02 -0.75656484501E+02  0.98173597134E+02  0.41800000000E+01 0.  1.
        -11    1    1    2    0    0  0.22677785348E+02 -0.95167603150E+01 -0.21986739912E+02  0.32988898241E+02  0.00000000000E+00 0.  1.
         11    1    1    2    0    0  0.95092788424E+02  0.50745988643E+02 -0.79995668122E+02  0.13422779404E+03  0.00000000000E+00 0. -1.
</event>
<event>
 6    1  0.6981059E-006  0.1892102E+03  0.7561462E-02  0.1159176E+00
          2   -1    0    0  501    0  0.00000000000E+00  0.00000000000E+00  0.91982285707E+02  0.91982285707E+02  0.00000000000E+00 0. -1.
         -2   -1    0    0    0  501 -0.00000000000E+00 -0.00000000000E+00 -0.75185338658E+03  0.75185338658E+03  0.00000000000E+00 0.  1.
          5    1    1    2  502    0  0.99649901916E+01  0.11725974498E+02 -0.24693090432E+00  0.15947817478E+02  0.41800000000E+01 0. -1.
         -5    1    1    2    0  502  0.16904781453E+03  0.12348405850E+02 -0.58944429732E+03  0.61334468186E+03  0.41800000000E+01 0. -1.
        -11    1    1    2    0    0 -0.99554554290E+02 -0.47189717171E+02 -0.69356774593E+01  0.11039058976E+03  0.00000000000E+00 0. -1.
         11    1    1    2    0    0 -0.79458250436E+02  0.23115336823E+02 -0.63244195196E+02  0.10415258319E+03  0.00000000000E+00 0.  1.
</event>
<event>
 6    1  0.6981059E-006  0.1248864E+03  0.7561462E-02  0.1235247E+00
          1   -1    0    0  501    0  0.00000000000E+00  0.00000000000E+00  0.12128268942E+03  0.12128268942E+03  0.00000000000E+00 0. -1.
         -1   -1    0    0    0  501 -0.00000000000E+00 -0.00000000000E+00 -0.15218422607E+03  0.15218422607E+03  0.00000000000E+00 0.  1.
          5    1    1    2  502    0 -0.30959061822E+02 -0.13531601908E+02 -0.11999364101E+02  0.36097436168E+02  0.41800000000E+01 0.  1.
         -5    1    1    2    0  502  0.10482547486E+03  0.44234691328E+02 -0.15296561696E+02  0.11487621727E+03  0.41800000000E+01 0.  1.
        -11    1    1    2    0    0 -0.82268758278E+02 -0.14379857771E+02 -0.31365564565E+02  0.89211700682E+02  0.00000000000E+00 0.  1.
         11    1    1    2    0    0  0.84023452438E+01 -0.16323231649E+02  0.27759953710E+02  0.33281561368E+02  0.00000000000E+00 0. -1.
</event>
<event>
 6    1  0.6981059E-006  0.1270565E+03  0.7561462E-02  0.1231890E+00
          1   -1    0    0  501    0  0.00000000000E+00  0.00000000000E+00  0.61680698217E+02  0.61680698217E+02  0.00000000000E+00 0. -1.
         -1   -1    0    0    0  501 -0.00000000000E+00 -0.00000000000E+00 -0.43345233721E+03  0.43345233721E+03  0.00000000000E+00 0.  1.
          5    1    1    2  502    0  0.39234200319E+02 -0.49740516631E+02 -0.17466205957E+03  0.18584334511E+03  0.41800000000E+01 0. -1.
         -5    1    1    2    0  502  0.44636779631E+02 -0.37289714071E+02  0.32002633999E+01  0.58401018460E+02  0.41800000000E+01 0. -1.
        -11    1    1    2    0    0 -0.63799194288E+02  0.27475317865E+02 -0.16447883997E+03  0.17854556584E+03  0.00000000000E+00 0.  1.
         11    1    1    2    0    0 -0.20071785661E+02  0.59554912837E+02 -0.35831002857E+02  0.72343106019E+02  0.00000000000E+00 0. -1.
</event>
<event>
 6    1  0.6981059E-006  0.1099771E+03  0.7561462E-02  0.1260612E+00
         -2   -1    0    0    0  501 -0.00000000000E+00  0.00000000000E+00  0.21430472781E+04  0.21430472781E+04  0.00000000000E+00 0.  1.
          2   -1    0    0  501    0  0.00000000000E+00 -0.00000000000E+00 -0.90518027372E+02  0.90518027372E+02  0.00000000000E+00 0. -1.
          5    1    1    2  502    0 -0.10499588152E+02  0.61876148556E+02  0.45625046231E+03  0.46056579972E+03  0.41800000000E+01 0. -1.
         -5    1    1    2    0  502 -0.58986727683E+02 -0.74475870519E+01  0.16395713456E+04  0.16406543116E+04  0.41800000000E+01 0.  1.
        -11    1    1    2    0    0  0.19342646184E+02  0.47193651559E+01  0.22933923474E+02  0.30370630794E+02  0.00000000000E+00 0.  1.
         11    1    1    2    0    0  0.50143669651E+02 -0.59147926660E+02 -0.66226480626E+02  0.10197456335E+03  0.00000000000E+00 0. -1.
</event>
<event>
 6    1  0.6981059E-006  0.1531627E+03  0.7561462E-02  0.1196640E+00
         -1   -1    0    0    0  501 -0.00000000000E+00  0.00000000000E+00  0.10152233041E+03  0.10152233041E+03  0.00000000000E+00 0.  1.
          1   -1    0    0  501    0  0.00000000000E+00 -0.00000000000E+00 -0.30855052333E+03  0.30855052333E+03  0.00000000000E+00 0. -1.
          5    1    1    2  502    0 -0.52508238243E+01  0.89600706901E+02 -0.10783191616E+01  0.89858182711E+02  0.41800000000E+01 0. -1.
         -5    1    1    2    0  502 -0.78385922310E+02  0.17323219988E+02 -0.74681932415E+02  0.10972379048E+03  0.41800000000E+01 0. -1.
        -11    1    1    2    0    0  0.41513158402E+02 -0.45324157589E+02 -0.12026300174E+03  0.13505854719E+03  0.00000000000E+00 0. -1.
         11    1    1    2    0    0  0.42123587732E+02 -0.61599769299E+02 -0.11004939594E+02  0.75432333364E+02  0.00000000000E+00 0.  1.
</event>
<event>
 6    1  0.6981059E-006  0.8182927E+02  0.7561462E-02  0.1323939E+00
          2   -1    0    0  501    0  0.00000000000E+00  0.00000000000E+00  0.38803169178E+03  0.38803169178E+03  0.00000000000E+00 0. -1.
         -2   -1    0    0    0  501 -0.00000000000E+00 -0.00000000000E+00 -0.31415948311E+02  0.31415948311E+02  0.00000000000E+00 0.  1.
          5    1    1    2  502    0  0.34525198073E+02 -0.30750349600E+00  0.15750536133E+03  0.16129939587E+03  0.41800000000E+01 0. -1.
         -5    1    1    2    0  502 -0.43388291628E+02  0.82507259056E+01  0.57946994439E+01  0.44740018663E+02  0.41800000000E+01 0. -1.
        -11    1    1    2    0    0 -0.19443888575E+02 -0.38335056533E+02  0.13596852624E+03  0.14260112724E+03  0.00000000000E+00 0. -1.
         11    1    1    2    0    0  0.28306982129E+02  0.30391834124E+02  0.57347156454E+02  0.70807098317E+02  0.00000000000E+00 0.  1.
</event>
<event>
 6    1  0.6981059E-006  0.1258219E+03  0.7561462E-02  0.1233790E+00
          2   -1    0    0  501    0  0.00000000000E+00  0.00000000000E+00  0.72125251127E+03  0.72125251127E+03  0.00000000000E+00 0. -1.
         -2   -1    0    0    0  501 -0.00000000000E+00 -0.00000000000E+00 -0.23801973666E+02  0.23801973666E+02  0.00000000000E+00 0.  1.
          5    1    1    2  502    0 -0.61365517475E+02 -0.80847497347E+02  0.23309519050E+03  0.25426931548E+03  0.41800000000E+01 0.  1.
         -5    1    1    2    0  502  0.28238156578E+01  0.34680770270E+02  0.18946710647E+03  0.19268104888E+03  0.41800000000E+01 0.  1.
        -11    1    1    2    0    0  0.76796514172E+02  0.55266840596E+02  0.21710039520E+03  0.23682210593E+03  0.00000000000E+00 0.  1.
         11    1    1    2    0    0 -0.18254812355E+02 -0.91001135197E+01  0.57787845432E+02  0.61282014653E+02  0.00000000000E+00 0. -1.
</event>
<event>
 6    1  0.6981059E-006  0.1546044E+03  0.7561462E-02  0.1194927E+00
          1   -1    0    0  501    0  0.00000000000E+00  0.00000000000E+00  0.72878005840E+02  0.72878005840E+02  0.00000000000E+00 0. -1.
         -1   -1    0    0    0  501 -0.00000000000E+00 -0.00000000000E+00 -0.50948888838E+03  0.50948888838E+03  0.00000000000E+00 0.  1.
          5    1    1    2  502    0 -0.13570430039E+03 -0.23655669892E+02 -0.20788170661E+03  0.24941436246E+03  0.41800000000E+01 0. -1.
         -5    1    1    2    0  502  0.10632942188E+02 -0.16013665703E+02 -0.15487085161E+03  0.15611518192E+03  0.41800000000E+01 0. -1.
        -11    1    1    2    0    0  0.10242440744E+03 -0.40305769345E+01 -0.75947246378E+02  0.12757346520E+03  0.00000000000E+00 0.  1.
         11    1    1    2    0    0  0.22646950761E+02  0.43699912529E+02  0.20889220573E+01  0.49263884634E+02  0.00000000000E+00 0. -1.
</event>
<event>
 6    1  0.6981059E-006  0.1118602E+03  0.7561462E-02  0.1257163E+00
         -1   -1    0    0    0  501 -0.00000000000E+00  0.00000000000E+00  0.21931124692E+02  0.21931124692E+02  0.00000000000E+00 0.  1.
          1   -1    0    0  501    0  0.00000000000E+00 -0.00000000000E+00 -0.63512973445E+03  0.63512973445E+03  0.00000000000E+00 0. -1.
          5    1    1    2  502    0 -0.55329351128E+02 -0.27571047353E+01 -0.16729699971E+03  0.17628016688E+03  0.41800000000E+01 0.  1.
         -5    1    1    2    0  502  0.62288691160E+02 -0.42895696636E+02 -0.15525618197E+03  0.17274801381E+03  0.41800000000E+01 0.  1.
        -11    1    1    2    0    0  0.34666168596E+02  0.35405598335E+02 -0.21905017125E+03  0.22458467704E+03  0.00000000000E+00 0. -1.
         11    1    1    2    0    0 -0.41625508628E+02  0.10247203036E+02 -0.71595256835E+02  0.83448001413E+02  0.00000000000E+00 0.  1.
</event>
<event>
 6    1  0.6981059E-006  0.2187315E+03  0.7561462E-02  0.1134832E+00
         -2   -1    0    0    0  501 -0.00000000000E+00  0.00000000000E+00  0.22588864395E+03  0.22588864395E+03  0.00000000000E+00 0.  1.
          2   -1    0    0  501    0  0.00000000000E+00 -0.00000000000E+00 -0.25111438432E+03  0.25111438432E+03  0.00000000000E+00 0. -1.
          5    1    1    2  502    0  0.67291605198E+02 -0.17587018774E+03  0.27185313674E+02  0.19030238239E+03  0.41800000000E+01 0. -1.
         -5    1    1    2    0  502 -0.18603695722E+02 -0.30177201135E+02 -0.43328741245E+02  0.56139230319E+02  0.41800000000E+01 0. -1.
        -11    1    1    2    0    0 -0.18799009412E+02  0.34546868442E+02  0.33137477661E+02  0.51429381678E+02  0.00000000000E+00 0.  1.
         11    1    1    2    0    0 -0.29888900063E+02  0.17150052043E+03 -0.42219790462E+02  0.17913203388E+03  0.00000000000E+00 0. -1.
</event>
<event>
 6    1  0.6981059E-006  0.4160033E+03  0.7561462E-02  0.1038375E+00
         -2   -1    0    0    0  501 -0.00000000000E+00  0.00000000000E+00  0.37261826789E+03  0.37261826789E+03  0.00000000000E+00 0.  1.
          2   -1    0    0  501    0  0.00000000000E+00 -0.00000000000E+00 -0.62117980076E+03  0.62117980076E+03  0.00000000000E+00 0. -1.
          5    1    1    2  502    0  0.27276990462E+03 -0.18779915840E+02 -0.27765462089E+03  0.38969945728E+03  0.41800000000E+01 0. -1.
         -5    1    1    2    0  502 -0.76403762128E+02  0.24505835035E+03  0.11197734541E+03  0.28008485897E+03  0.41800000000E+01 0.  1.
        -11    1    1    2    0    0 -0.29081794700E+02 -0.16210852408E+02  0.17146207311E+02  0.37450433161E+02  0.00000000000E+00 0.  1.
         11    1    1    2    0    0 -0.16728434779E+03 -0.21006758210E+03 -0.10003046470E+03  0.28656331923E+03  0.00000000000E+00 0. -1.
</event>
<event>
 6    1  0.6981059E-006  0.1164417E+03  0.7561462E-02  0.1249085E+00
          2   -1    0    0  501    0  0.00000000000E+00  0.00000000000E+00  0.40693032553E+02  0.40693032553E+02  0.00000000000E+00 0. -1.
         -2   -1    0    0    0  501 -0.00000000000E+00 -0.00000000000E+00 -0.35643282842E+03  0.35643282842E+03  0.00000000000E+00 0.  1.
          5    1    1    2  502    0  0.87086879029E+01  0.81920012071E+02 -0.12709507171E+03  0.15151686136E+03  0.41800000000E+01 0.  1.
         -5    1    1    2    0  502  0.18846145453E+02 -0.46546742855E+02 -0.79223431989E+02  0.93891432223E+02  0.41800000000E+01 0.  1.
        -11    1    1    2    0    0 -0.42600183427E+01 -0.63410261355E+02 -0.45599685839E+02  0.78219820698E+02  0.00000000000E+00 0. -1.
         11    1    1    2    0    0 -0.23294815013E+02  0.28036992139E+02 -0.63821606331E+02  0.73497746696E+02  0.00000000000E+00 0.  1.
</event>
<event>
 6    1  0.6981059E-006  0.9739012E+02  0.7561462E-02  0.1285882E+00
          1   -1    0    0  501    0  0.00000000000E+00  0.00000000000E+00  0.54868536153E+03  0.54868536153E+03  0.00000000000E+00 0. -1.
         -1   -1    0    0    0  501 -0.00000000000E+00 -0.00000000000E+00 -0.27797310464E+02  0.27797310464E+02  0.00000000000E+00 0.  1.
          5    1    1    2  502    0 -0.42872608878E+02  0.58254600137E+01  0.11954503802E+03  0.12720253571E+03  0.41800000000E+01 0. -1.
         -5    1    1    2    0  502  0.64569434559E+02 -0.13325981627E+02  0.41534415413E+02  0.78034439379E+02  0.41800000000E+01 0. -1.
        -11    1    1    2    0    0  0.31592880779E+02  0.15852696381E+01  0.74414715356E+02  0.80858970172E+02  0.00000000000E+00 0.  1.
         11    1    1    2    0    0 -0.53289706460E+02  0.59152519749E+01  0.28539388228E+03  0.29038672674E+03  0.00000000000E+00 0. -1.
</event>
<event>
 6    1  0.6981059E-006  0.1315574E+03  0.7561462E-02  0.1225163E+00
          1   -1    0    0  501    0  0.00000000000E+00  0.00000000000E+00  0.29442626891E+03  0.29442626891E+03  0.00000000000E+00 0. -1.
         -1   -1    0    0    0  501 -0.00000000000E+00 -0.00000000000E+00 -0.88349182549E+02  0.88349182549E+02  0.00000000000E+00 0.  1.
          5    1    1    2  502    0  0.16002904840E+02  0.16142975486E+02  0.99529757457E+02  0.10217795085E+03  0.41800000000E+01 0.  1.
         -5    1    1    2    0  502  0.63747259420E+02  0.71435041110E+02 -0.18587934944E+01  0.95851998910E+02  0.41800000000E+01 0.  1.
        -11    1    1    2    0    0 -0.45576314385E+02 -0.98300623578E+02  0.57967941124E+02  0.12288407231E+03  0.00000000000E+00 0.  1.
         11    1    1    2    0    0 -0.34173849876E+02  0.10722606983E+02  0.50438181276E+02  0.61861429391E+02  0.00000000000E+00 0. -1.
</event>
<event>
 6    1  0.6981059E-006  0.9981029E+02  0.7561462E-02  0.1280695E+00
         -2   -1    0    0    0  501 -0.00000000000E+00  0.00000000000E+00  0.35318931533E+03  0.35318931533E+03  0.00000000000E+00 0.  1.
          2   -1    0    0  501    0  0.00000000000E+00 -0.00000000000E+00 -0.39514734042E+02  0.39514734042E+02  0.00000000000E+00 0. -1.
          5    1    1    2  502    0 -0.39303839130E+02  0.47745192650E+02  0.62158359164E+02  0.87781143793E+02  0.41800000000E+01 0. -1.
         -5    1    1    2    0  502  0.15600990604E+02 -0.44728843058E+02  0.17573211376E+03  0.18205303765E+03  0.41800000000E+01 0. -1.
        -11    1    1    2    0    0  0.54445579879E+02 -0.15943762036E+02  0.24728889981E+02  0.61887338899E+02  0.00000000000E+00 0. -1.
         11    1    1    2    0    0 -0.30742731353E+02  0.12927412444E+02  0.51055218380E+02  0.60982529034E+02  0.00000000000E+00 0.  1.
</event>
<event>
 6    1  0.6981059E-006  0.9829695E+02  0.7561462E-02  0.1283919E+00
          1   -1    0    0  501    0  0.00000000000E+00  0.00000000000E+00  0.23063727024E+02  0.23063727024E+02  0.00000000000E+00 0. -1.
         -1   -1    0    0    0  501 -0.00000000000E+00 -0.00000000000E+00 -0.84981825097E+03  0.84981825097E+03  0.00000000000E+00 0.  1.
          5    1    1    2  502    0 -0.37840415758E+02 -0.25868089827E+02 -0.51157487252E+02  0.68815812412E+02  0.41800000000E+01 0. -1.
         -5    1    1    2    0  502 -0.23485308110E+02 -0.24416716636E+02 -0.52382077278E+03  0.52493181476E+03  0.41800000000E+01 0. -1.
        -11    1    1    2    0    0  0.47009980681E+02  0.74622425268E+02 -0.21765727239E+03  0.23484704141E+03  0.00000000000E+00 0.  1.
         11    1    1    2    0    0  0.14315743188E+02 -0.24337618805E+02 -0.34118991522E+02  0.44287309408E+02  0.00000000000E+00 0. -1.
</event>
<event>
 6    1  0.6981059E-006  0.9927254E+02  0.7561462E-02  0.1281833E+00
          1   -1    0    0  501    0  0.00000000000E+00  0.00000000000E+00  0.29946580252E+03  0.29946580252E+03  0.00000000000E+00 0. -1.
         -1   -1    0    0    0  501 -0.00000000000E+00 -0.00000000000E+00 -0.89187172280E+02  0.89187172280E+02  0.00000000000E+00 0.  1.
          5    1    1    2  502    0 -0.39150933800E+02  0.51881662875E+01 -0.21716449438E+02  0.45263553363E+02  0.41800000000E+01 0.  1.
         -5    1    1    2    0  502  0.88839825125E+02  0.31807525724E+02  0.91170019690E+01  0.94893758203E+02  0.41800000000E+01 0.  1.
        -11    1    1    2    0    0 -0.16524893894E+02 -0.23139455470E+02  0.65196407392E+01  0.29172113962E+02  0.00000000000E+00 0.  1.
         11    1    1    2    0    0 -0.33163997431E+02 -0.13856236542E+02  0.21635843697E+03  0.21932354927E+03  0.00000000000E+00 0. -1.
</event>
<event>
 6    1  0.8803991E-006  0.1052506E+03  0.7561462E-02  0.1269627E+00
          1   -1    0    0  501    0  0.00000000000E+00  0.00000000000E+00  0.22664735980E+03  0.22664735980E+03  0.00000000000E+00 0. -1.
         -1   -1    0    0    0  501 -0.00000000000E+00 -0.00000000000E+00 -0.68723205710E+02  0.68723205710E+02  0.00000000000E+00 0.  1.
          5    1    1    2  502    0  0.98206700943E+01 -0.48156007987E+02 -0.20117867676E+02  0.53269575427E+02  0.41800000000E+01 0. -1.
         -5    1    1    2    0  502  0.40442560509E+02  0.43850820138E+02  0.66332645545E+02  0.89308383662E+02  0.41800000000E+01 0. -1.
        -11    1    1    2    0    0 -0.65691024811E+02  0.29359842689E+02  0.61774123533E+02  0.94833292897E+02  0.00000000000E+00 0. -1.
         11    1    1    2    0    0  0.15427794208E+02 -0.25054654840E+02  0.49935252690E+02  0.57959313526E+02  0.00000000000E+00 0.  1.
</event>
<event>
 6    1  0.6981059E-006  0.1141466E+03  0.7561462E-02  0.1253078E+00
         -1   -1    0    0    0  501 -0.00000000000E+00  0.00000000000E+00  0.19423438496E+03  0.19423438496E+03  0.00000000000E+00 0.  1.
          1   -1    0    0  501    0  0.00000000000E+00 -0.00000000000E+00 -0.14210041780E+03  0.14210041780E+03  0.00000000000E+00 0. -1.
          5    1    1    2  502    0 -0.61246375853E+02  0.58732060350E+02  0.71163088569E+02  0.11082522747E+03  0.41800000000E+01 0.  1.
         -5    1    1    2    0  502  0.51795612872E+02  0.32166359609E+00  0.68446594382E+02  0.85937754583E+02  0.41800000000E+01 0.  1.
        -11    1    1    2    0    0 -0.30021417513E+02 -0.21887599090E+02 -0.75356816123E+02  0.84017868573E+02  0.00000000000E+00 0. -1.
         11    1    1    2    0    0  0.39472180494E+02 -0.37166124855E+02 -0.12118899672E+02  0.55553952145E+02  0.00000000000E+00 0.  1.
</event>
<event>
 6    1  0.6981059E-006  0.6064819E+02  0.7561462E-02  0.1395132E+00
         -1   -1    0    0    0  501 -0.00000000000E+00  0.00000000000E+00  0.32005796820E+02  0.32005796820E+02  0.00000000000E+00 0.  1.
          1   -1    0    0  501    0  0.00000000000E+00 -0.00000000000E+00 -0.38153847177E+03  0.38153847177E+03  0.00000000000E+00 0. -1.
          5    1    1    2  502    0 -0.31758355065E+01 -0.24484984132E+02 -0.21491944164E+03  0.21637337908E+03  0.41800000000E+01 0. -1.
         -5    1    1    2    0  502  0.15646142426E+02  0.24781952171E+02  0.46851076765E+01  0.29972813684E+02  0.41800000000E+01 0.  1.
        -11    1    1    2    0    0 -0.35838920025E+02 -0.15205693684E+02 -0.13325772427E+03  0.13882817577E+03  0.00000000000E+00 0.  1.
         11    1    1    2    0    0  0.23368613105E+02  0.14908725646E+02 -0.60406167084E+01  0.28369900054E+02  0.00000000000E+00 0. -1.
</event>
<event>
 6    1  0.6981059E-006  0.9846391E+02  0.7561462E-02  0.1283560E+00
          2   -1    0    0  501    0  0.00000000000E+00  0.00000000000E+00  0.66435993697E+03  0.66435993697E+03  0.00000000000E+00 0.  1.
         -2   -1    0    0    0  501 -0.00000000000E+00 -0.00000000000E+00 -0.21374299932E+02  0.21374299932E+02  0.00000000000E+00 0. -1.
          5    1    1    2  502    0  0.36717971904E+02 -0.11288559212E+02  0.48537312798E+02  0.62040181846E+02  0.41800000000E+01 0. -1.
         -5    1    1    2    0  502 -0.84938195319E+02  0.15181256228E+02  0.27319848288E+03  0.28653071565E+03  0.41800000000E+01 0. -1.
        -11    1    1    2    0    0 -0.13958761314E+01 -0.19760608171E+02  0.11177337041E+02  0.22745614276E+02  0.00000000000E+00 0. -1.
         11    1    1    2    0    0  0.49616099546E+02  0.15867911155E+02  0.31007250433E+03  0.31441772513E+03  0.00000000000E+00 0.  1.
</event>
<event>
 6    1  0.6981059E-006  0.2464456E+03  0.7561462E-02  0.1115572E+00
          2   -1    0    0  501    0  0.00000000000E+00  0.00000000000E+00  0.50282000476E+03  0.50282000476E+03  0.00000000000E+00 0. -1.
         -2   -1    0    0    0  501 -0.00000000000E+00 -0.00000000000E+00 -0.13400467443E+03  0.13400467443E+03  0.00000000000E+00 0.  1.
          5    1    1    2  502    0 -0.15236765289E+02 -0.81922433625E+02  0.62770776688E+01  0.83667904548E+02  0.41800000000E+01 0.  1.
         -5    1    1    2    0  502  0.96117506764E+02 -0.13623345603E+03  0.14339706678E+03  0.21995072360E+03  0.41800000000E+01 0.  1.
        -11    1    1    2    0    0  0.10073029883E+02  0.57026895116E+01  0.37551025489E+02  0.39294606678E+02  0.00000000000E+00 0. -1.
         11    1    1    2    0    0 -0.90953771358E+02  0.21245320015E+03  0.18159016040E+03  0.29391144437E+03  0.00000000000E+00 0.  1.
</event>
<event>
 6    1  0.6981059E-006  0.1414781E+03  0.7561462E-02  0.1211354E+00
          1   -1    0    0  501    0  0.00000000000E+00  0.00000000000E+00  0.31959343308E+02  0.31959343308E+02  0.00000000000E+00 0. -1.
         -1   -1    0    0    0  501 -0.00000000000E+00 -0.00000000000E+00 -0.89426000595E+03  0.89426000595E+03  0.00000000000E+00 0.  1.
          5    1    1    2  502    0  0.40078927155E+02 -0.81919069897E+02 -0.25732328040E+03  0.27303808791E+03  0.41800000000E+01 0. -1.
         -5    1    1    2    0  502 -0.54538150598E+02 -0.18368567280E+02 -0.41765163132E+03  0.42161851439E+03  0.41800000000E+01 0.  1.
        -11    1    1    2    0    0  0.32183437858E+02  0.63632980784E-01 -0.28867513044E+02  0.43233216754E+02  0.00000000000E+00 0.  1.
         11    1    1    2    0    0 -0.17724214415E+02  0.10022400420E+03 -0.15845823788E+03  0.18832953020E+03  0.00000000000E+00 0. -1.
</event>
<event>
 6    1  0.6981059E-006  0.1386998E+03  0.7561462E-02  0.1215089E+00
         -1   -1    0    0    0  501 -0.00000000000E+00  0.00000000000E+00  0.15235931872E+03  0.15235931872E+03  0.00000000000E+00 0.  1.
          1   -1    0    0  501    0  0.00000000000E+00 -0.00000000000E+00 -0.21226909967E+03  0.21226909967E+03  0.00000000000E+00 0. -1.
          5    1    1    2  502    0 -0.18356967773E+02  0.95223881431E+02  0.34163382832E+02  0.10290371707E+03  0.41800000000E+01 0. -1.
         -5    1    1    2    0  502  0.65242922484E+02 -0.20467608274E+01  0.33190585917E+02  0.73347907657E+02  0.41800000000E+01 0. -1.
        -11    1    1    2    0    0 -0.38623665190E+02 -0.24472603525E+02 -0.26039085401E+01  0.45798211490E+02  0.00000000000E+00 0.  1.
         11    1    1    2    0    0 -0.82622895203E+01 -0.68704517079E+02 -0.12465984116E+03  0.14257858217E+03  0.00000000000E+00 0. -1.
</event>
<event>
 6    1  0.6981059E-006  0.1070875E+03  0.7561462E-02  0.1266060E+00
         -1   -1    0    0    0  501 -0.00000000000E+00  0.00000000000E+00  0.86722056948E+02  0.86722056948E+02  0.00000000000E+00 0.  1.
          1   -1    0    0  501    0  0.00000000000E+00 -0.00000000000E+00 -0.18672431762E+03  0.18672431762E+03  0.00000000000E+00 0. -1.
          5    1    1    2  502    0  0.54732921544E+02  0.15945328821E+02  0.18424111055E+02  0.60057193408E+02  0.41800000000E+01 0.  1.
         -5    1    1    2    0  502 -0.56831308740E+02  0.39607978312E+02 -0.35309935210E+02  0.77864327671E+02  0.41800000000E+01 0.  1.
        -11    1    1    2    0    0  0.20681942687E+02  0.74085221101E+01  0.78633285439E+01  0.23333685713E+02  0.00000000000E+00 0.  1.
         11    1    1    2    0    0 -0.18583555491E+02 -0.62961829244E+02 -0.90979765061E+02  0.11219116778E+03  0.00000000000E+00 0. -1.
</event>
<event>
 6    1  0.6981059E-006  0.1124855E+03  0.7561462E-02  0.1256035E+00
         -3   -1    0    0    0  501 -0.00000000000E+00  0.00000000000E+00  0.88843546500E+03  0.88843546500E+03  0.00000000000E+00 0.  1.
          3   -1    0    0  501    0  0.00000000000E+00 -0.00000000000E+00 -0.16106345232E+02  0.16106345232E+02  0.00000000000E+00 0. -1.
          5    1    1    2  502    0 -0.36853911486E+02 -0.56978379334E+02  0.39415390908E+03  0.39997440286E+03  0.41800000000E+01 0.  1.
         -5    1    1    2    0  502  0.56956267757E+02  0.16750496440E+02  0.18952496334E+03  0.19864989226E+03  0.41800000000E+01 0.  1.
        -11    1    1    2    0    0  0.31570699090E+02  0.32344082028E+02  0.92944522553E+02  0.10335150195E+03  0.00000000000E+00 0. -1.
         11    1    1    2    0    0 -0.51673055361E+02  0.78838008655E+01  0.19570572480E+03  0.20256601315E+03  0.00000000000E+00 0.  1.
</event>
<event>
 6    1  0.6981059E-006  0.9540011E+02  0.7561462E-02  0.1290277E+00
         -1   -1    0    0    0  501 -0.00000000000E+00  0.00000000000E+00  0.80768288828E+02  0.80768288828E+02  0.00000000000E+00 0.  1.
          1   -1    0    0  501    0  0.00000000000E+00 -0.00000000000E+00 -0.22050034067E+03  0.22050034067E+03  0.00000000000E+00 0. -1.
          5    1    1    2  502    0  0.42571611290E+02 -0.94508304077E+01  0.45933931477E+02  0.63474867028E+02  0.41800000000E+01 0. -1.
         -5    1    1    2    0  502 -0.16811861927E+01  0.42637077023E+02 -0.58904539567E+02  0.72855774690E+02  0.41800000000E+01 0. -1.
        -11    1    1    2    0    0 -0.35639531424E+02 -0.63787906567E+02 -0.10060517889E+03  0.12434015942E+03  0.00000000000E+00 0. -1.
         11    1    1    2    0    0 -0.52508936735E+01  0.30601659952E+02 -0.26156264861E+02  0.40597828362E+02  0.00000000000E+00 0.  1.
</event>
<event>
 6    1  0.6981059E-006  0.1315248E+03  0.7561462E-02  0.1225211E+00
         -3   -1    0    0    0  501 -0.00000000000E+00  0.00000000000E+00  0.30929112715E+03  0.30929112715E+03  0.00000000000E+00 0.  1.
          3   -1    0    0  501    0  0.00000000000E+00 -0.00000000000E+00 -0.10569114105E+03  0.10569114105E+03  0.00000000000E+00 0. -1.
          5    1    1    2  502    0  0.81678377584E+01  0.56160140268E+02  0.13671192664E+03  0.14808206581E+03  0.41800000000E+01 0.  1.
         -5    1    1    2    0  502  0.80288122514E+02 -0.41684335664E+02  0.10741421178E+03  0.14049573570E+03  0.41800000000E+01 0.  1.
        -11    1    1    2    0    0 -0.41087070800E+02 -0.43655180315E+02 -0.44876709160E+01  0.60117063680E+02  0.00000000000E+00 0.  1.
         11    1    1    2    0    0 -0.47368889472E+02  0.29179375711E+02 -0.36038481396E+02  0.66287403012E+02  0.00000000000E+00 0. -1.
</event>
<event>
 6    1  0.6981059E-006  0.1272564E+03  0.7561462E-02  0.1231584E+00
          1   -1    0    0  501    0  0.00000000000E+00  0.00000000000E+00  0.67587619328E+03  0.67587619328E+03  0.00000000000E+00 0. -1.
         -1   -1    0    0    0  501 -0.00000000000E+00 -0.00000000000E+00 -0.27935126961E+02  0.27935126961E+02  0.00000000000E+00 0.  1.
          5    1    1    2  502    0 -0.79799852258E+02 -0.66309454010E+02  0.15727607495E+03  0.18846271849E+03  0.41800000000E+01 0.  1.
         -5    1    1    2    0  502  0.36855413764E+02  0.11606889976E+02  0.72006159499E+02  0.81825428959E+02  0.41800000000E+01 0.  1.
        -11    1    1    2    0    0  0.47897734453E+02 -0.83003628474E+01  0.15778354312E+03  0.16510219704E+03  0.00000000000E+00 0.  1.
         11    1    1    2    0    0 -0.49532959588E+01  0.63002926882E+02  0.26087528876E+03  0.26842097575E+03  0.00000000000E+00 0. -1.
</event>
<event>
 6    1  0.6981059E-006  0.8420783E+02  0.7561462E-02  0.1317517E+00
          1   -1    0    0  501    0  0.00000000000E+00  0.00000000000E+00  0.12240003477E+03  0.12240003477E+03  0.00000000000E+00 0. -1.
         -1   -1    0    0    0  501 -0.00000000000E+00 -0.00000000000E+00 -0.10693462021E+03  0.10693462021E+03  0.00000000000E+00 0.  1.
          5    1    1    2  502    0 -0.18494478060E+02  0.49575155033E+02 -0.45181793758E+02  0.69703720148E+02  0.41800000000E+01 0.  1.
         -5    1    1    2    0  502 -0.11832222283E+02 -0.29160951430E+02  0.51848386779E+02  0.60795478319E+02  0.41800000000E+01 0.  1.
        -11    1    1    2    0    0  0.49444188564E+02 -0.34115450450E+02  0.30021572418E+02  0.67155688907E+02  0.00000000000E+00 0. -1.
         11    1    1    2    0    0 -0.19117488222E+02  0.13701246847E+02 -0.21222750872E+02  0.31679767607E+02  0.00000000000E+00 0.  1.
</event>
<event>
 6    1  0.6981059E-006  0.1741077E+03  0.7561462E-02  0.1173631E+00
          1   -1    0    0  501    0  0.00000000000E+00  0.00000000000E+00  0.36969860510E+03  0.36969860510E+03  0.00000000000E+00 0. -1.
         -1   -1    0    0    0  501 -0.00000000000E+00 -0.00000000000E+00 -0.96285174267E+02  0.96285174267E+02  0.00000000000E+00 0.  1.
          5    1    1    2  502    0 -0.34641330014E+02  0.29703166719E+00  0.40404677788E+02  0.53386518524E+02  0.41800000000E+01 0.  1.
         -5    1    1    2    0  502  0.38947376414E+02 -0.15042866319E+03  0.63329575723E+02  0.16785049419E+03  0.41800000000E+01 0.  1.
        -11    1    1    2    0    0  0.97076492232E+01  0.14058546837E+03  0.99396480758E+02  0.17244759424E+03  0.00000000000E+00 0.  1.
         11    1    1    2    0    0 -0.14013695624E+02  0.95461631513E+01  0.70282696562E+02  0.72299172415E+02  0.00000000000E+00 0. -1.
</event>
<event>
 6    1  0.6981059E-006  0.9798483E+02  0.7561462E-02  0.1284592E+00
          2   -1    0    0  501    0  0.00000000000E+00  0.00000000000E+00  0.41732857985E+03  0.41732857985E+03  0.00000000000E+00 0.  1.
         -2   -1    0    0    0  501 -0.00000000000E+00 -0.00000000000E+00 -0.39082919450E+02  0.39082919450E+02  0.00000000000E+00 0. -1.
          5    1    1    2  502    0 -0.10946964560E+00  0.76213081353E+02  0.20159182594E+03  0.21555784012E+03  0.41800000000E+01 0.  1.
         -5    1    1    2    0  502 -0.55771518060E+01 -0.98464134624E+01 -0.14683297308E+02  0.19003370759E+02  0.41800000000E+01 0.  1.
        -11    1    1    2    0    0  0.25974872846E+02 -0.79348847315E+02  0.11719908736E+03  0.14389774032E+03  0.00000000000E+00 0. -1.
         11    1    1    2    0    0 -0.20288251395E+02  0.12982179424E+02  0.74138044409E+02  0.77952548105E+02  0.00000000000E+00 0.  1.
</event>
<event>
 6    1  0.6981059E-006  0.1435182E+03  0.7561462E-02  0.1208672E+00
         -1   -1    0    0    0  501 -0.00000000000E+00  0.00000000000E+00  0.15764569477E+02  0.15764569477E+02  0.00000000000E+00 0.  1.
          1   -1    0    0  501    0  0.00000000000E+00 -0.00000000000E+00 -0.13067965998E+04  0.13067965998E+04  0.00000000000E+00 0. -1.
          5    1    1    2  502    0 -0.24733633027E+02  0.38992439946E+02 -0.21088528013E+03  0.21592183019E+03  0.41800000000E+01 0. -1.
         -5    1    1    2    0  502  0.10148613252E+03 -0.13919823921E+02 -0.46726395476E+03  0.47837879595E+03  0.41800000000E+01 0. -1.
        -11    1    1    2    0    0  0.28351393713E+02  0.50895514155E+01 -0.12669134049E+03  0.12992459665E+03  0.00000000000E+00 0.  1.
         11    1    1    2    0    0 -0.10510389321E+03 -0.30162167441E+02 -0.48619145496E+03  0.49833594651E+03  0.00000000000E+00 0. -1.
</event>
<event>
 6    1  0.6981059E-006  0.7942841E+02  0.7561462E-02  0.1330681E+00
          2   -1    0    0  501    0  0.00000000000E+00  0.00000000000E+00  0.31630956701E+02  0.31630956701E+02  0.00000000000E+00 0.  1.
         -2   -1    0    0    0  501 -0.00000000000E+00 -0.00000000000E+00 -0.56786249151E+03  0.56786249151E+03  0.00000000000E+00 0. -1.
          5    1    1    2  502    0 -0.40008624622E+02  0.29322038545E+02 -0.56303325005E+02  0.75153235428E+02  0.41800000000E+01 0.  1.
         -5    1    1    2    0  502  0.43163433179E+01 -0.96493224271E+01 -0.38937747470E+03  0.38954336144E+03  0.41800000000E+01 0.  1.
        -11    1    1    2    0    0  0.91206964385E+01  0.35403646221E+02 -0.47824997067E+02  0.60198302416E+02  0.00000000000E+00 0. -1.
         11    1    1    2    0    0  0.26571584866E+02 -0.55076362339E+02 -0.42725738042E+02  0.74598548927E+02  0.00000000000E+00 0.  1.
</event>
<event>
 6    1  0.6981059E-006  0.7991583E+02  0.7561462E-02  0.1329290E+00
         -2   -1    0    0    0  501 -0.00000000000E+00  0.00000000000E+00  0.47171705960E+03  0.47171705960E+03  0.00000000000E+00 0.  1.
          2   -1    0    0  501    0  0.00000000000E+00 -0.00000000000E+00 -0.32010911107E+02  0.32010911107E+02  0.00000000000E+00 0. -1.
          5    1    1    2  502    0 -0.46065841597E+02 -0.23851385662E+02  0.32863813218E+03  0.33273329362E+03  0.41800000000E+01 0.  1.
         -5    1    1    2    0  502  0.30115512021E+02 -0.63219077859E+01  0.14868540359E+02  0.34430458533E+02  0.41800000000E+01 0.  1.
        -11    1    1    2    0    0  0.14665677582E+01 -0.22274991552E+02 -0.38722457098E+01  0.22656574244E+02  0.00000000000E+00 0.  1.
         11    1    1    2    0    0  0.14483761817E+02  0.52448285000E+02  0.10007172167E+03  0.11390764432E+03  0.00000000000E+00 0. -1.
</event>
<event>
 6    1  0.6981059E-006  0.1865031E+03  0.7561462E-02  0.1161654E+00
         -2   -1    0    0    0  501 -0.00000000000E+00  0.00000000000E+00  0.22874866913E+03  0.22874866913E+03  0.00000000000E+00 0.  1.
          2   -1    0    0  501    0  0.00000000000E+00 -0.00000000000E+00 -0.15291738381E+03  0.15291738381E+03  0.00000000000E+00 0. -1.
          5    1    1    2  502    0  0.16091828005E+03 -0.66396311853E+02  0.33554276419E+02  0.17733168061E+03  0.41800000000E+01 0. -1.
         -5    1    1    2    0  502 -0.20869312996E+02  0.76452612456E+01  0.51652248112E+01  0.23197633323E+02  0.41800000000E+01 0. -1.
        -11    1    1    2    0    0 -0.33411865213E+02  0.61056528515E+02  0.24239538014E+02  0.73700797923E+02  0.00000000000E+00 0. -1.
         11    1    1    2    0    0 -0.10663710184E+03 -0.23054779081E+01  0.12872246075E+02  0.10743594108E+03  0.00000000000E+00 0.  1.
</event>
<event>
 6    1  0.6981059E-006  0.1226104E+03  0.7561462E-02  0.1238852E+00
         -2   -1    0    0    0  501 -0.00000000000E+00  0.00000000000E+00  0.20479503739E+03  0.20479503739E+03  0.00000000000E+00 0.  1.
          2   -1    0    0  501    0  0.00000000000E+00 -0.00000000000E+00 -0.11225342349E+03  0.11225342349E+03  0.00000000000E+00 0. -1.
          5    1    1    2  502    0  0.84128857864E+02  0.47418221021E+01  0.96289120512E+02  0.12802037623E+03  0.41800000000E+01 0. -1.
         -5    1    1    2    0  502  0.12938934326E+02 -0.42277114347E+02 -0.23496318788E+02  0.50242609562E+02  0.41800000000E+01 0. -1.
        -11    1    1    2    0    0 -0.32403427830E+02  0.40312146876E+02  0.45733172827E+02  0.69040382515E+02  0.00000000000E+00 0.  1.
         11    1    1    2    0    0 -0.64664364360E+02 -0.27768546310E+01 -0.25984360648E+02  0.69745092573E+02  0.00000000000E+00 0. -1.
</event>
<event>
 6    1  0.6981059E-006  0.8594788E+02  0.7561462E-02  0.1312972E+00
          1   -1    0    0  501    0  0.00000000000E+00  0.00000000000E+00  0.51486528609E+03  0.51486528609E+03  0.00000000000E+00 0. -1.
         -1   -1    0    0    0  501 -0.00000000000E+00 -0.00000000000E+00 -0.25982196376E+02  0.25982196376E+02  0.00000000000E+00 0.  1.
          5    1    1    2  502    0 -0.56285704276E+01  0.54061587433E+02  0.23973378930E+03  0.24585381464E+03  0.41800000000E+01 0.  1.
         -5    1    1    2    0  502 -0.65453752562E+01 -0.19525900332E+02 -0.59231814641E+01  0.21832526187E+02  0.41800000000E+01 0.  1.
        -11    1    1    2    0    0 -0.38276689856E+02 -0.22860951623E+02  0.95451177802E+02  0.10535015633E+03  0.00000000000E+00 0.  1.
         11    1    1    2    0    0  0.50450635540E+02 -0.11674735478E+02  0.15962130408E+03  0.16781098531E+03  0.00000000000E+00 0. -1.
</event>
<event>
 6    1  0.6981059E-006  0.9000393E+02  0.7561462E-02  0.1302842E+00
         -1   -1    0    0    0  501 -0.00000000000E+00  0.00000000000E+00  0.11925826726E+03  0.11925826726E+03  0.00000000000E+00 0.  1.
          1   -1    0    0  501    0  0.00000000000E+00 -0.00000000000E+00 -0.15082005988E+03  0.15082005988E+03  0.00000000000E+00 0. -1.
          5    1    1    2  502    0 -0.25109691961E+01 -0.79794928680E+00  0.50893228301E+02  0.51132521709E+02  0.41800000000E+01 0. -1.
         -5    1    1    2    0  502 -0.39783173566E+02 -0.72476363127E+02 -0.56046263299E+02  0.99970896469E+02  0.41800000000E+01 0. -1.
        -11    1    1    2    0    0  0.43749710305E+02  0.40942253929E+02 -0.50714106611E+02  0.78499846611E+02  0.00000000000E+00 0. -1.
         11    1    1    2    0    0 -0.14555675428E+01  0.32332058484E+02  0.24305348993E+02  0.40475062352E+02  0.00000000000E+00 0.  1.
</event>
<event>
 6    1  0.6981059E-006  0.1082053E+03  0.7561462E-02  0.1263930E+00
          2   -1    0    0  501    0  0.00000000000E+00  0.00000000000E+00  0.39443246557E+03  0.39443246557E+03  0.00000000000E+00 0. -1.
         -2   -1    0    0    0  501 -0.00000000000E+00 -0.00000000000E+00 -0.57054112474E+02  0.57054112474E+02  0.00000000000E+00 0.  1.
          5    1    1    2  502    0  0.67257246177E+02 -0.30787552743E+02 -0.10700298410E+02  0.74855723584E+02  0.41800000000E+01 0. -1.
         -5    1    1    2    0  502  0.43352110462E+01  0.29131543564E+02  0.79455159545E+02  0.84841237989E+02  0.41800000000E+01 0. -1.
        -11    1    1    2    0    0 -0.23090654373E+02  0.43024000360E+02  0.13925844726E+03  0.14757085776E+03  0.00000000000E+00 0. -1.
         11    1    1    2    0    0 -0.48501802850E+02 -0.41367991180E+02  0.12936504470E+03  0.14421875871E+03  0.00000000000E+00 0.  1.
</event>
<event>
 6    1  0.6981059E-006  0.1063941E+03  0.7561462E-02  0.1267397E+00
         -1   -1    0    0    0  501 -0.00000000000E+00  0.00000000000E+00  0.12138330477E+03  0.12138330477E+03  0.00000000000E+00 0.  1.
          1   -1    0    0  501    0  0.00000000000E+00 -0.00000000000E+00 -0.11768248846E+03  0.11768248846E+03  0.00000000000E+00 0. -1.
          5    1    1    2  502    0  0.17066417402E+02 -0.48948765868E+02  0.45946461440E+02  0.69395922083E+02  0.41800000000E+01 0.  1.
         -5    1    1    2    0  502  0.36340070317E+02  0.54026892141E+02 -0.21894256786E+02  0.68821048127E+02  0.41800000000E+01 0.  1.
        -11    1    1    2    0    0 -0.15363738469E+02 -0.40647871726E+02 -0.22072793467E+02  0.48739123372E+02  0.00000000000E+00 0. -1.
         11    1    1    2    0    0 -0.38042749250E+02  0.35569745453E+02  0.17214051187E+01  0.52109699651E+02  0.00000000000E+00 0.  1.
</event>
<event>
 6    1  0.6981059E-006  0.1424465E+03  0.7561462E-02  0.1210074E+00
         -2   -1    0    0    0  501 -0.00000000000E+00  0.00000000000E+00  0.56524882906E+02  0.56524882906E+02  0.00000000000E+00 0.  1.
          2   -1    0    0  501    0  0.00000000000E+00 -0.00000000000E+00 -0.39133175858E+03  0.39133175858E+03  0.00000000000E+00 0. -1.
          5    1    1    2  502    0  0.70899938772E+02 -0.37963708920E+01 -0.54736147391E+02  0.89748158650E+02  0.41800000000E+01 0.  1.
         -5    1    1    2    0  502 -0.30674672654E+02 -0.77332806953E+02 -0.62513041072E+02  0.10414725766E+03  0.41800000000E+01 0.  1.
        -11    1    1    2    0    0  0.19187458974E+02 -0.10035577365E+02 -0.28066683611E+02  0.35448697068E+02  0.00000000000E+00 0.  1.
         11    1    1    2    0    0 -0.59412725093E+02  0.91164755210E+02 -0.18949100360E+03  0.21851252811E+03  0.00000000000E+00 0. -1.
</event>
<event>
 6    1  0.6981059E-006  0.1880099E+03  0.7561462E-02  0.1160269E+00
          2   -1    0    0  501    0  0.00000000000E+00  0.00000000000E+00  0.10123550421E+04  0.10123550421E+04  0.00000000000E+00 0. -1.
         -2   -1    0    0    0  501 -0.00000000000E+00 -0.00000000000E+00 -0.60196268390E+02  0.60196268390E+02  0.00000000000E+00 0.  1.
          5    1    1    2  502    0  0.45144699647E+01  0.25878691318E+01  0.90331012056E+02  0.90577268919E+02  0.41800000000E+01 0.  1.
         -5    1    1    2    0  502  0.17101990481E+03  0.39848200362E+01  0.10761623246E+03  0.20214453374E+03  0.41800000000E+01 0.  1.
        -11    1    1    2    0    0 -0.31828050502E+02  0.36285569620E+02  0.18736225012E+03  0.19347940492E+03  0.00000000000E+00 0. -1.
         11    1    1    2    0    0 -0.14370632428E+03 -0.42858258788E+02  0.56684927910E+03  0.58635010292E+03  0.00000000000E+00 0.  1.
</event>
<event>
 6    1  0.6981059E-006  0.9992547E+02  0.7561462E-02  0.1280453E+00
          1   -1    0    0  501    0  0.00000000000E+00  0.00000000000E+00  0.36622961013E+03  0.36622961013E+03  0.00000000000E+00 0. -1.
         -1   -1    0    0    0  501 -0.00000000000E+00 -0.00000000000E+00 -0.41266804508E+02  0.41266804508E+02  0.00000000000E+00 0.  1.
          5    1    1    2  502    0  0.52805281663E+02 -0.57518979729E+02  0.11757819539E+03  0.14120529463E+03  0.41800000000E+01 0.  1.
         -5    1    1    2    0  502  0.50727038161E+01  0.57603032095E+02  0.57795084420E+02  0.81863214045E+02  0.41800000000E+01 0.  1.
        -11    1    1    2    0    0 -0.15921796098E+02  0.12091793695E+02 -0.75177732417E+01  0.21359587549E+02  0.00000000000E+00 0.  1.
         11    1    1    2    0    0 -0.41956189381E+02 -0.12175846062E+02  0.15710729905E+03  0.16306831841E+03  0.00000000000E+00 0. -1.
</event>
<event>
 6    1  0.6981059E-006  0.2225639E+03  0.7561462E-02  0.1131986E+00
          2   -1    0    0  501    0  0.00000000000E+00  0.00000000000E+00  0.19649476378E+04  0.19649476378E+04  0.00000000000E+00 0. -1.
         -2   -1    0    0    0  501 -0.00000000000E+00 -0.00000000000E+00 -0.28097398119E+02  0.28097398119E+02  0.00000000000E+00 0.  1.
          5    1    1    2  502    0  0.78938726676E+02 -0.65324371046E+02  0.59984982594E+03  0.60855228379E+03  0.41800000000E+01 0. -1.
         -5    1    1    2    0  502  0.18939344931E+02 -0.11481271879E+03  0.27438299639E+03  0.29806737542E+03  0.41800000000E+01 0. -1.
        -11    1    1    2    0    0 -0.11652563537E+03  0.14201594276E+03  0.87238257652E+03  0.89151450437E+03  0.00000000000E+00 0.  1.
         11    1    1    2    0    0  0.18647563758E+02  0.38121147074E+02  0.19023484083E+03  0.19491087233E+03  0.00000000000E+00 0. -1.
</event>
<event>
 6    1  0.6981059E-006  0.9024007E+02  0.7561462E-02  0.1302271E+00
          2   -1    0    0  501    0  0.00000000000E+00  0.00000000000E+00  0.55886109773E+03  0.55886109773E+03  0.00000000000E+00 0. -1.
         -2   -1    0    0    0  501 -0.00000000000E+00 -0.00000000000E+00 -0.23616406143E+02  0.23616406143E+02  0.00000000000E+00 0.  1.
          5    1    1    2  502    0  0.22816431148E+02  0.73861880161E+01  0.83862827956E+00  0.24358181400E+02  0.41800000000E+01 0.  1.
         -5    1    1    2    0  502 -0.58114559523E+02 -0.14105320183E+01  0.26860816528E+03  0.27485834622E+03  0.41800000000E+01 0.  1.
        -11    1    1    2    0    0  0.60566672490E+01  0.41585043953E+02  0.10906344608E+03  0.11687957208E+03  0.00000000000E+00 0. -1.
         11    1    1    2    0    0  0.29241461127E+02 -0.47560699951E+02  0.15673445195E+03  0.16638140418E+03  0.00000000000E+00 0.  1.
</event>
<event>
 6    1  0.6981059E-006  0.1610148E+03  0.7561462E-02  0.1187556E+00
         -1   -1    0    0    0  501 -0.00000000000E+00  0.00000000000E+00  0.35037481357E+03  0.35037481357E+03  0.00000000000E+00 0.  1.
          1   -1    0    0  501    0  0.00000000000E+00 -0.00000000000E+00 -0.80026266330E+02  0.80026266330E+02  0.00000000000E+00 0. -1.
          5    1    1    2  502    0 -0.64418209945E+02  0.96552061916E+02  0.70229259559E+02  0.13572629712E+03  0.41800000000E+01 0.  1.
         -5    1    1    2    0  502 -0.43911673793E+02 -0.30151073083E+02  0.86481538329E+02  0.10165555162E+03  0.41800000000E+01 0.  1.
        -11    1    1    2    0    0  0.12013923251E+03 -0.45535084383E+02  0.78769950976E+02  0.15070363060E+03  0.00000000000E+00 0. -1.
         11    1    1    2    0    0 -0.11809348775E+02 -0.20865904450E+02  0.34867798373E+02  0.42315600556E+02  0.00000000000E+00 0.  1.
</event>
<event>
 6    1  0.6981059E-006  0.1376818E+03  0.7561462E-02  0.1216483E+00
          4   -1    0    0  501    0  0.00000000000E+00  0.00000000000E+00  0.77021775963E+02  0.77021775963E+02  0.00000000000E+00 0. -1.
         -4   -1    0    0    0  501 -0.00000000000E+00 -0.00000000000E+00 -0.33673200743E+03  0.33673200743E+03  0.00000000000E+00 0.  1.
          5    1    1    2  502    0  0.98762646742E+02 -0.93625267028E+02 -0.73242857062E+02  0.15460187427E+03  0.41800000000E+01 0. -1.
         -5    1    1    2    0  502 -0.68947510381E+01  0.19704830663E+02 -0.57686612061E+02  0.61490125666E+02  0.41800000000E+01 0. -1.
        -11    1    1    2    0    0 -0.28081103883E+02  0.23334723934E+02 -0.10747802377E+03  0.11351027852E+03  0.00000000000E+00 0.  1.
         11    1    1    2    0    0 -0.63786791821E+02  0.50585712432E+02 -0.21302738582E+02  0.84151504942E+02  0.00000000000E+00 0. -1.
</event>
<event>
 6    1  0.6981059E-006  0.1275304E+03  0.7561462E-02  0.1231167E+00
          2   -1    0    0  501    0  0.00000000000E+00  0.00000000000E+00  0.10918451226E+03  0.10918451226E+03  0.00000000000E+00 0. -1.
         -2   -1    0    0    0  501 -0.00000000000E+00 -0.00000000000E+00 -0.19611790821E+03  0.19611790821E+03  0.00000000000E+00 0.  1.
          5    1    1    2  502    0 -0.11035698114E+03 -0.49086748560E+02 -0.53036778303E+02  0.13197933332E+03  0.41800000000E+01 0. -1.
         -5    1    1    2    0  502  0.15848746263E+02  0.32894109751E+02 -0.15235513232E+02  0.39784399931E+02  0.41800000000E+01 0. -1.
        -11    1    1    2    0    0  0.32203885058E+02  0.13992069688E+02 -0.52074238391E+02  0.62806007125E+02  0.00000000000E+00 0.  1.
         11    1    1    2    0    0  0.62304349817E+02  0.22005691210E+01  0.33413133977E+02  0.70732680090E+02  0.00000000000E+00 0. -1.
</event>
<event>
 6    1  0.6981059E-006  0.1398563E+03  0.7561462E-02  0.1213522E+00
          3   -1    0    0  501    0  0.00000000000E+00  0.00000000000E+00  0.74683540926E+03  0.74683540926E+03  0.00000000000E+00 0. -1.
         -3   -1    0    0    0  501 -0.00000000000E+00 -0.00000000000E+00 -0.29821219944E+02  0.29821219944E+02  0.00000000000E+00 0.  1.
          5    1    1    2  502    0  0.77668458938E+02  0.68831139615E+02  0.32158813978E+03  0.33794455069E+03  0.41800000000E+01 0.  1.
         -5    1    1    2    0  502  0.17431129039E+02 -0.34949128105E+02  0.32710252480E+02  0.51114761392E+02  0.41800000000E+01 0.  1.
        -11    1    1    2    0    0  0.36202903278E+01 -0.37607423690E+02  0.10567663667E+03  0.11222734228E+03  0.00000000000E+00 0. -1.
         11    1    1    2    0    0 -0.98719878305E+02  0.37254121796E+01  0.25703916039E+03  0.27536997484E+03  0.00000000000E+00 0.  1.
</event>
<event>
 6    1  0.6981059E-006  0.1605241E+03  0.7561462E-02  0.1188106E+00
         -1   -1    0    0    0  501 -0.00000000000E+00  0.00000000000E+00  0.11332298958E+04  0.11332298958E+04  0.00000000000E+00 0.  1.
          1   -1    0    0  501    0  0.00000000000E+00 -0.00000000000E+00 -0.38180282259E+02  0.38180282259E+02  0.00000000000E+00 0. -1.
          5    1    1    2  502    0  0.12225411959E+02  0.58517447499E+01  0.12271034070E+02  0.18755113738E+02  0.41800000000E+01 0. -1.
         -5    1    1    2    0  502 -0.10373174264E+03 -0.10724085357E+03  0.87492859592E+03  0.88756881168E+03  0.41800000000E+01 0. -1.
        -11    1    1    2    0    0  0.32143759500E+02 -0.80201370215E+01  0.80290616481E+02  0.86856933906E+02  0.00000000000E+00 0. -1.
         11    1    1    2    0    0  0.59362571181E+02  0.10940924585E+03  0.12755936711E+03  0.17822931877E+03  0.00000000000E+00 0.  1.
</event>
<event>
 6    1  0.6981059E-006  0.1216803E+03  0.7561462E-02  0.1240350E+00
         -2   -1    0    0    0  501 -0.00000000000E+00  0.00000000000E+00  0.25742982105E+02  0.25742982105E+02  0.00000000000E+00 0. -1.
          2   -1    0    0  501    0  0.00000000000E+00 -0.00000000000E+00 -0.59824297265E+03  0.59824297265E+03  0.00000000000E+00 0.  1.
          5    1    1    2  502    0 -0.26374359989E+02 -0.30815480176E+02 -0.61907257798E+02  0.74129492453E+02  0.41800000000E+01 0.  1.
         -5    1    1    2    0  502  0.26517964794E+02  0.91641597047E+02 -0.23905689410E+03  0.25742388347E+03  0.41800000000E+01 0.  1.
        -11    1    1    2    0    0  0.43444981977E+02 -0.38826770163E+02 -0.12354877979E+03  0.13659899534E+03  0.00000000000E+00 0.  1.
         11    1    1    2    0    0 -0.43588586782E+02 -0.21999346708E+02 -0.14798705886E+03  0.15583358349E+03  0.00000000000E+00 0. -1.
</event>
<event>
 6    1  0.6981059E-006  0.1373717E+03  0.7561462E-02  0.1216910E+00
          1   -1    0    0  501    0  0.00000000000E+00  0.00000000000E+00  0.40855718252E+03  0.40855718252E+03  0.00000000000E+00 0. -1.
         -1   -1    0    0    0  501 -0.00000000000E+00 -0.00000000000E+00 -0.57409173403E+02  0.57409173403E+02  0.00000000000E+00 0.  1.
          5    1    1    2  502    0  0.27171098305E+02  0.12137740990E+02  0.81998043152E+02  0.87331236223E+02  0.41800000000E+01 0. -1.
         -5    1    1    2    0  502 -0.45444780155E+00 -0.10899503746E+03  0.48009087456E+02  0.11917411461E+03  0.41800000000E+01 0. -1.
        -11    1    1    2    0    0 -0.50849919652E+02  0.99094296925E+02  0.17786183106E+03  0.20985763021E+03  0.00000000000E+00 0.  1.
         11    1    1    2    0    0  0.24133269148E+02 -0.22370004496E+01  0.43279047448E+02  0.49603374873E+02  0.00000000000E+00 0. -1.
</event>
<event>
 6    1  0.6981059E-006  0.2563588E+03  0.7561462E-02  0.1109351E+00
          2   -1    0    0  501    0  0.00000000000E+00  0.00000000000E+00  0.14809659699E+04  0.14809659699E+04  0.00000000000E+00 0. -1.
         -2   -1    0    0    0  501 -0.00000000000E+00 -0.00000000000E+00 -0.47458325449E+02  0.47458325449E+02  0.00000000000E+00 0.  1.
          5    1    1    2  502    0 -0.58210860256E+01  0.95988076826E+01  0.49186704886E+01  0.12949435155E+02  0.41800000000E+01 0. -1.
         -5    1    1    2    0  502 -0.11329843515E+03 -0.21946686184E+03  0.72593054590E+03  0.76680823464E+03  0.41800000000E+01 0. -1.
        -11    1    1    2    0    0  0.36155757939E+02  0.14199760519E+03  0.33369618469E+03  0.36444986266E+03  0.00000000000E+00 0. -1.
         11    1    1    2    0    0  0.82963763237E+02  0.67870448960E+02  0.36896224337E+03  0.38421676289E+03  0.00000000000E+00 0.  1.
</event>
<event>
 6    1  0.6981059E-006  0.2822863E+03  0.7561462E-02  0.1094447E+00
         -2   -1    0    0    0  501 -0.00000000000E+00  0.00000000000E+00  0.55015332551E+03  0.55015332551E+03  0.00000000000E+00 0.  1.
          2   -1    0    0  501    0  0.00000000000E+00 -0.00000000000E+00 -0.15362302598E+03  0.15362302598E+03  0.00000000000E+00 0. -1.
          5    1    1    2  502    0  0.15625062242E+03  0.75236049077E+02  0.10150640991E+03  0.20098692430E+03  0.41800000000E+01 0. -1.
         -5    1    1    2    0  502  0.11112021956E+03 -0.46307964515E+02  0.11186990756E+03  0.16439123879E+03  0.41800000000E+01 0. -1.
        -11    1    1    2    0    0 -0.18076436056E+03 -0.33821669246E+02  0.17041936189E+03  0.25072378879E+03  0.00000000000E+00 0.  1.
         11    1    1    2    0    0 -0.86606481425E+02  0.48935846836E+01  0.12734620166E+02  0.87674399608E+02  0.00000000000E+00 0. -1.
</event>
<event>
 6    1  0.6981059E-006  0.1228088E+03  0.7561462E-02  0.1238534E+00
         -1   -1    0    0    0  501 -0.00000000000E+00  0.00000000000E+00  0.79007210803E+03  0.79007210803E+03  0.00000000000E+00 0.  1.
          1   -1    0    0  501    0  0.00000000000E+00 -0.00000000000E+00 -0.25843792213E+02  0.25843792213E+02  0.00000000000E+00 0. -1.
          5    1    1    2  502    0 -0.78889516815E+02 -0.44697889401E+02  0.28288458444E+03  0.29709025176E+03  0.41800000000E+01 0. -1.
         -5    1    1    2    0  502 -0.63569970087E+01  0.59497524607E+02  0.21470843258E+03  0.22292947375E+03  0.41800000000E+01 0.  1.
        -11    1    1    2    0    0  0.14937944618E+02 -0.19310514336E+02  0.49733162151E+01  0.24915297058E+02  0.00000000000E+00 0. -1.
         11    1    1    2    0    0  0.70308569205E+02  0.45108791293E+01  0.26166198259E+03  0.27098087768E+03  0.00000000000E+00 0.  1.
</event>
<event>
 6    1  0.6981059E-006  0.1083476E+03  0.7561462E-02  0.1263661E+00
          2   -1    0    0  501    0  0.00000000000E+00  0.00000000000E+00  0.51331182586E+03  0.51331182586E+03  0.00000000000E+00 0. -1.
         -2   -1    0    0    0  501 -0.00000000000E+00 -0.00000000000E+00 -0.27761546830E+02  0.27761546830E+02  0.00000000000E+00 0.  1.
          5    1    1    2  502    0  0.37636221724E+02  0.63108868143E+02  0.87121921863E+02  0.11404786755E+03  0.41800000000E+01 0.  1.
         -5    1    1    2    0  502  0.66349224331E+01 -0.45439898325E+02  0.16606956799E+03  0.17235248872E+03  0.41800000000E+01 0.  1.
        -11    1    1    2    0    0 -0.61859627589E+02  0.11504245505E+02  0.19096956042E+03  0.20106798402E+03  0.00000000000E+00 0.  1.
         11    1    1    2    0    0  0.17588483432E+02 -0.29173215323E+02  0.41389228760E+02  0.53605032405E+02  0.00000000000E+00 0. -1.
</event>
<event>
 6    1  0.6981059E-006  0.1041459E+03  0.7561462E-02  0.1271812E+00
          1   -1    0    0  501    0  0.00000000000E+00  0.00000000000E+00  0.38660003916E+03  0.38660003916E+03  0.00000000000E+00 0. -1.
         -1   -1    0    0    0  501 -0.00000000000E+00 -0.00000000000E+00 -0.41205000875E+02  0.41205000875E+02  0.00000000000E+00 0.  1.
          5    1    1    2  502    0  0.20633857319E+02 -0.42334226843E+01  0.13203822530E+03  0.13377310371E+03  0.41800000000E+01 0. -1.
         -5    1    1    2    0  502 -0.38790120230E+02  0.67154561284E+02  0.35689279488E+02  0.85472835445E+02  0.41800000000E+01 0. -1.
        -11    1    1    2    0    0  0.35269627881E+02  0.80251555010E+01  0.55219483497E+02  0.66011674190E+02  0.00000000000E+00 0.  1.
         11    1    1    2    0    0 -0.17113364971E+02 -0.70946294100E+02  0.12244804999E+03  0.14254742669E+03  0.00000000000E+00 0. -1.
</event>
<event>
 6    1  0.6981059E-006  0.1244775E+03  0.7561462E-02  0.1235888E+00
         -2   -1    0    0    0  501 -0.00000000000E+00  0.00000000000E+00  0.55589639547E+02  0.55589639547E+02  0.00000000000E+00 0.  1.
          2   -1    0    0  501    0  0.00000000000E+00 -0.00000000000E+00 -0.54733329639E+03  0.54733329639E+03  0.00000000000E+00 0. -1.
          5    1    1    2  502    0 -0.13669222847E+02  0.27349243536E+02  0.74356869515E+01  0.31742567881E+02  0.41800000000E+01 0. -1.
         -5    1    1    2    0  502 -0.38364627075E+02 -0.91401085904E+02 -0.62210847025E+02  0.11710535856E+03  0.41800000000E+01 0.  1.
        -11    1    1    2    0    0  0.75010122124E+02  0.37804256974E+02 -0.24596954701E+03  0.25991671421E+03  0.00000000000E+00 0.  1.
         11    1    1    2    0    0 -0.22976272202E+02  0.26247585394E+02 -0.19099894975E+03  0.19415829529E+03  0.00000000000E+00 0. -1.
</event>
<event>
 6    1  0.6981059E-006  0.2283350E+03  0.7561462E-02  0.1127817E+00
          2   -1    0    0  501    0  0.00000000000E+00  0.00000000000E+00  0.90259101831E+03  0.90259101831E+03  0.00000000000E+00 0. -1.
         -2   -1    0    0    0  501 -0.00000000000E+00 -0.00000000000E+00 -0.69910107731E+02  0.69910107731E+02  0.00000000000E+00 0.  1.
          5    1    1    2  502    0 -0.72210151949E+02 -0.10374628840E+03  0.84694721524E+02  0.15221125666E+03  0.41800000000E+01 0. -1.
         -5    1    1    2    0  502  0.30823839856E+02 -0.99370691331E+02  0.16875513920E+03  0.19829375382E+03  0.41800000000E+01 0. -1.
        -11    1    1    2    0    0  0.38598142401E+02  0.21012367245E+02  0.95908343107E+02  0.10549761349E+03  0.00000000000E+00 0. -1.
         11    1    1    2    0    0  0.27881696919E+01  0.18210461248E+03  0.48332270675E+03  0.51649850206E+03  0.00000000000E+00 0.  1.
</event>
<event>
 6    1  0.6981059E-006  0.3859376E+03  0.7561462E-02  0.1048761E+00
          4   -1    0    0  501    0  0.00000000000E+00  0.00000000000E+00  0.65030358853E+03  0.65030358853E+03  0.00000000000E+00 0. -1.
         -4   -1    0    0    0  501 -0.00000000000E+00 -0.00000000000E+00 -0.23163739545E+03  0.23163739545E+03  0.00000000000E+00 0.  1.
          5    1    1    2  502    0 -0.15360167558E+03 -0.27557423531E+03  0.16937687831E+03  0.35810701363E+03  0.41800000000E+01 0.  1.
         -5    1    1    2    0  502 -0.74219196794E+02 -0.18501973700E+02  0.50558333092E+02  0.91784691799E+02  0.41800000000E+01 0.  1.
        -11    1    1    2    0    0  0.21299622114E+03  0.22791394518E+03  0.13832709549E+03  0.34124264384E+03  0.00000000000E+00 0. -1.
         11    1    1    2    0    0  0.14824651238E+02  0.66162263834E+02  0.60403886194E+02  0.90806634710E+02  0.00000000000E+00 0.  1.
</event>
<event>
 6    1  0.6981059E-006  0.1274995E+03  0.7561462E-02  0.1231214E+00
         -1   -1    0    0    0  501 -0.00000000000E+00  0.00000000000E+00  0.23675630817E+02  0.23675630817E+02  0.00000000000E+00 0.  1.
          1   -1    0    0  501    0  0.00000000000E+00 -0.00000000000E+00 -0.81601415524E+03  0.81601415524E+03  0.00000000000E+00 0. -1.
          5    1    1    2  502    0  0.25074817051E+02  0.15222959695E+02 -0.25238121898E+03  0.25411461399E+03  0.41800000000E+01 0. -1.
         -5    1    1    2    0  502 -0.30931009991E+02 -0.98075121634E+02 -0.25400598013E+03  0.27406562572E+03  0.41800000000E+01 0. -1.
        -11    1    1    2    0    0 -0.39057937562E+02  0.16677678694E+02 -0.79991582050E+02  0.90566664132E+02  0.00000000000E+00 0. -1.
         11    1    1    2    0    0  0.44914130502E+02  0.66174483246E+02 -0.20595974327E+03  0.22094288221E+03  0.00000000000E+00 0.  1.
</event>
<event>
 6    1  0.6981059E-006  0.1093305E+03  0.7561462E-02  0.1261815E+00
          2   -1    0    0  501    0  0.00000000000E+00  0.00000000000E+00  0.31039462166E+03  0.31039462166E+03  0.00000000000E+00 0. -1.
         -2   -1    0    0    0  501 -0.00000000000E+00 -0.00000000000E+00 -0.39801735543E+02  0.39801735543E+02  0.00000000000E+00 0.  1.
          5    1    1    2  502    0  0.64824284740E+02 -0.31399469483E+02  0.90064550103E+02  0.11540021734E+03  0.41800000000E+01 0. -1.
         -5    1    1    2    0  502 -0.54907315524E+02  0.53724983396E+01  0.52056178758E+02  0.75967066439E+02  0.41800000000E+01 0. -1.
        -11    1    1    2    0    0 -0.25100142111E+02 -0.26503601329E+02  0.35198301483E+02  0.50708761025E+02  0.00000000000E+00 0.  1.
         11    1    1    2    0    0  0.15183172894E+02  0.52530572473E+02  0.93273855774E+02  0.10812031240E+03  0.00000000000E+00 0. -1.
</event>
<event>
 6    1  0.6981059E-006  0.1332724E+03  0.7561462E-02  0.1222679E+00
         -2   -1    0    0    0  501 -0.00000000000E+00  0.00000000000E+00  0.39347740241E+02  0.39347740241E+02  0.00000000000E+00 0.  1.
          2   -1    0    0  501    0  0.00000000000E+00 -0.00000000000E+00 -0.61712602222E+03  0.61712602222E+03  0.00000000000E+00 0. -1.
          5    1    1    2  502    0  0.39355396311E+02  0.17227000732E+02 -0.18741385282E+03  0.19232015339E+03  0.41800000000E+01 0. -1.
         -5    1    1    2    0  502 -0.56594903200E+01  0.81634971325E+02 -0.51158332374E+02  0.96596820575E+02  0.41800000000E+01 0. -1.
        -11    1    1    2    0    0 -0.53482510929E+02 -0.10733314565E+03 -0.29259623214E+03  0.31621723260E+03  0.00000000000E+00 0.  1.
         11    1    1    2    0    0  0.19786604938E+02  0.84711735934E+01 -0.46609864642E+02  0.51339555889E+02  0.00000000000E+00 0. -1.
</event>
<event>
 6    1  0.6981059E-006  0.1728168E+03  0.7561462E-02  0.1174942E+00
          2   -1    0    0  501    0  0.00000000000E+00  0.00000000000E+00  0.14764853809E+04  0.14764853809E+04  0.00000000000E+00 0. -1.
         -2   -1    0    0    0  501 -0.00000000000E+00 -0.00000000000E+00 -0.23371021555E+02  0.23371021555E+02  0.00000000000E+00 0.  1.
          5    1    1    2  502    0 -0.13660811133E+03 -0.56878319758E+02  0.67415251974E+03  0.69021446784E+03  0.41800000000E+01 0. -1.
         -5    1    1    2    0  502  0.80019479715E+02  0.78017412400E+01  0.15743615807E+03  0.17682647021E+03  0.41800000000E+01 0.  1.
        -11    1    1    2    0    0  0.80740471259E+02  0.29359216214E+02  0.50153912003E+03  0.50884425534E+03  0.00000000000E+00 0.  1.
         11    1    1    2    0    0 -0.24151839648E+02  0.19717362305E+02  0.11998656151E+03  0.12397120906E+03  0.00000000000E+00 0. -1.
</event>
<event>
 6    1  0.6981059E-006  0.9329886E+02  0.7561462E-02  0.1295054E+00
          1   -1    0    0  501    0  0.00000000000E+00  0.00000000000E+00  0.49539844587E+03  0.49539844587E+03  0.00000000000E+00 0. -1.
         -1   -1    0    0    0  501 -0.00000000000E+00 -0.00000000000E+00 -0.34085614886E+02  0.34085614886E+02  0.00000000000E+00 0.  1.
          5    1    1    2  502    0  0.22240025638E+02 -0.10416150840E+01 -0.12110388529E+02  0.25687304504E+02  0.41800000000E+01 0.  1.
         -5    1    1    2    0  502  0.19442618040E+02  0.51089699702E+02  0.21181553105E+03  0.21879548534E+03  0.41800000000E+01 0.  1.
        -11    1    1    2    0    0 -0.10920813742E+02  0.25396805901E+02  0.37844713312E+02  0.46866664576E+02  0.00000000000E+00 0.  1.
         11    1    1    2    0    0 -0.30761829935E+02 -0.75444890519E+02  0.22376297515E+03  0.23813460633E+03  0.00000000000E+00 0. -1.
</event>
<event>
 6    1  0.6981059E-006  0.9257239E+02  0.7561462E-02  0.1296739E+00
         -2   -1    0    0    0  501 -0.00000000000E+00  0.00000000000E+00  0.43739482396E+02  0.43739482396E+02  0.00000000000E+00 0.  1.
          2   -1    0    0  501    0  0.00000000000E+00 -0.00000000000E+00 -0.42670273608E+03  0.42670273608E+03  0.00000000000E+00 0. -1.
          5    1    1    2  502    0 -0.93399212130E+01  0.67668954399E+02 -0.14930226890E+03  0.16424055959E+03  0.41800000000E+01 0. -1.
         -5    1    1    2    0  502  0.16613723550E+02 -0.10557030243E+00  0.21207149362E+02  0.27262474931E+02  0.41800000000E+01 0. -1.
        -11    1    1    2    0    0  0.14586987667E+02 -0.75059993005E+02 -0.12131987710E+03  0.14340605056E+03  0.00000000000E+00 0.  1.
         11    1    1    2    0    0 -0.21860790004E+02  0.74966089082E+01 -0.13354825705E+03  0.13553313339E+03  0.00000000000E+00 0. -1.
</event>
<event>
 6    1  0.6981059E-006  0.9920946E+02  0.7561462E-02  0.1281967E+00
          2   -1    0    0  501    0  0.00000000000E+00  0.00000000000E+00  0.75823395651E+03  0.75823395651E+03  0.00000000000E+00 0. -1.
         -2   -1    0    0    0  501 -0.00000000000E+00 -0.00000000000E+00 -0.17756462840E+02  0.17756462840E+02  0.00000000000E+00 0.  1.
          5    1    1    2  502    0  0.25777348845E+02 -0.30118732317E+02  0.60774150830E+02  0.72681356337E+02  0.41800000000E+01 0. -1.
         -5    1    1    2    0  502 -0.17152359625E+02  0.75717933359E+02  0.37872238408E+03  0.38662064803E+03  0.41800000000E+01 0. -1.
        -11    1    1    2    0    0 -0.31607650907E+02 -0.48240211743E+02  0.27857651568E+03  0.28448380747E+03  0.00000000000E+00 0. -1.
         11    1    1    2    0    0  0.22982661687E+02  0.26410107018E+01  0.22404443071E+02  0.32204607513E+02  0.00000000000E+00 0.  1.
</event>
<event>
 6    1  0.6981059E-006  0.9528868E+02  0.7561462E-02  0.1290527E+00
          4   -1    0    0  501    0  0.00000000000E+00  0.00000000000E+00  0.28579898224E+03  0.28579898224E+03  0.00000000000E+00 0. -1.
         -4   -1    0    0    0  501 -0.00000000000E+00 -0.00000000000E+00 -0.53409846805E+02  0.53409846805E+02  0.00000000000E+00 0.  1.
          5    1    1    2  502    0 -0.50856666785E+02 -0.39829561153E+02  0.13128131503E+01  0.64745581907E+02  0.41800000000E+01 0. -1.
         -5    1    1    2    0  502  0.40904945639E+02  0.29805124837E+02  0.49760707583E+02  0.71099651641E+02  0.41800000000E+01 0. -1.
        -11    1    1    2    0    0 -0.27442476287E+02 -0.13805245690E+02  0.21461695460E+02  0.37473706586E+02  0.00000000000E+00 0.  1.
         11    1    1    2    0    0  0.37394197433E+02  0.23829682006E+02  0.15985391924E+03  0.16588988891E+03  0.00000000000E+00 0. -1.
</event>
<event>
 6    1  0.6981059E-006  0.1176245E+03  0.7561462E-02  0.1247068E+00
          1   -1    0    0  501    0  0.00000000000E+00  0.00000000000E+00  0.44704741890E+03  0.44704741890E+03  0.00000000000E+00 0. -1.
         -1   -1    0    0    0  501 -0.00000000000E+00 -0.00000000000E+00 -0.48228415866E+02  0.48228415866E+02  0.00000000000E+00 0.  1.
          5    1    1    2  502    0 -0.66456681243E+02  0.43773770215E+02  0.39967571102E+02  0.89148822653E+02  0.41800000000E+01 0. -1.
         -5    1    1    2    0  502  0.16424572928E+02  0.42955947604E+02  0.16314240033E+03  0.16955204279E+03  0.41800000000E+01 0. -1.
        -11    1    1    2    0    0  0.92779886916E+01 -0.59845155938E+02  0.38031419049E+02  0.71511625616E+02  0.00000000000E+00 0.  1.
         11    1    1    2    0    0  0.40754119624E+02 -0.26884561881E+02  0.15767761256E+03  0.16506334371E+03  0.00000000000E+00 0. -1.
</event>
<event>
 6    1  0.6981059E-006  0.2399473E+03  0.7561462E-02  0.1119828E+00
         -1   -1    0    0    0  501 -0.00000000000E+00  0.00000000000E+00  0.75447133097E+02  0.75447133097E+02  0.00000000000E+00 0.  1.
          1   -1    0    0  501    0  0.00000000000E+00 -0.00000000000E+00 -0.12566374798E+04  0.12566374798E+04  0.00000000000E+00 0. -1.
          5    1    1    2  502    0  0.10588457757E+03 -0.47418005280E+02 -0.17638449414E+03  0.21116101241E+03  0.41800000000E+01 0.  1.
         -5    1    1    2    0  502  0.61303545375E+02 -0.11279788732E+03 -0.56714089888E+02  0.14041171052E+03  0.41800000000E+01 0.  1.
        -11    1    1    2    0    0 -0.11879550727E+03  0.85615885821E+02 -0.73782926155E+03  0.75221969640E+03  0.00000000000E+00 0. -1.
         11    1    1    2    0    0 -0.48392615667E+02  0.74600006774E+02 -0.21026250109E+03  0.22829219353E+03  0.00000000000E+00 0.  1.
</event>
<event>
 6    1  0.6981059E-006  0.1047245E+03  0.7561462E-02  0.1270663E+00
          2   -1    0    0  501    0  0.00000000000E+00  0.00000000000E+00  0.82022026311E+03  0.82022026311E+03  0.00000000000E+00 0.  1.
         -2   -1    0    0    0  501 -0.00000000000E+00 -0.00000000000E+00 -0.14422566544E+02  0.14422566544E+02  0.00000000000E+00 0. -1.
          5    1    1    2  502    0  0.55892448714E+02  0.23728206733E+02  0.16212048030E+03  0.17316903924E+03  0.41800000000E+01 0. -1.
         -5    1    1    2    0  502 -0.55921490753E+02 -0.29123215165E+02  0.22426107997E+03  0.23299330286E+03  0.41800000000E+01 0. -1.
        -11    1    1    2    0    0  0.39212464372E+02  0.19445579117E+02  0.26314549897E+03  0.26676075712E+03  0.00000000000E+00 0.  1.
         11    1    1    2    0    0 -0.39183422334E+02 -0.14050570685E+02  0.15627063733E+03  0.16171973044E+03  0.00000000000E+00 0. -1.
</event>
<event>
 6    1  0.6981059E-006  0.1092374E+03  0.7561462E-02  0.1261989E+00
          2   -1    0    0  501    0  0.00000000000E+00  0.00000000000E+00  0.39048143964E+03  0.39048143964E+03  0.00000000000E+00 0.  1.
         -2   -1    0    0    0  501 -0.00000000000E+00 -0.00000000000E+00 -0.46559622477E+02  0.46559622477E+02  0.00000000000E+00 0. -1.
          5    1    1    2  502    0  0.48652319446E+02 -0.45481786469E+02  0.15248031110E+03  0.16644325988E+03  0.41800000000E+01 0. -1.
         -5    1    1    2    0  502 -0.23690973110E+02 -0.25567417883E+02 -0.11079557596E+02  0.36812824676E+02  0.41800000000E+01 0. -1.
        -11    1    1    2    0    0 -0.55939166293E+02  0.63746305494E+02  0.15251614122E+03  0.17451061607E+03  0.00000000000E+00 0. -1.
         11    1    1    2    0    0  0.30977819957E+02  0.73028988581E+01  0.50004922438E+02  0.59274361481E+02  0.00000000000E+00 0.  1.
</event>
<event>
 6    1  0.6981059E-006  0.7543753E+02  0.7561462E-02  0.1342521E+00
          3   -1    0    0  501    0  0.00000000000E+00  0.00000000000E+00  0.19337794262E+03  0.19337794262E+03  0.00000000000E+00 0. -1.
         -3   -1    0    0    0  501 -0.00000000000E+00 -0.00000000000E+00 -0.63473205754E+02  0.63473205754E+02  0.00000000000E+00 0.  1.
          5    1    1    2  502    0  0.50763018059E+02 -0.38991893462E+01 -0.10714959192E+02  0.52195502014E+02  0.41800000000E+01 0.  1.
         -5    1    1    2    0  502 -0.36731741759E+02 -0.96857882692E+01  0.88490942345E+02  0.96390635562E+02  0.41800000000E+01 0.  1.
        -11    1    1    2    0    0 -0.26874441866E+02  0.30296330589E+02  0.69841653117E+02  0.80733882496E+02  0.00000000000E+00 0. -1.
         11    1    1    2    0    0  0.12843165566E+02 -0.16711352974E+02 -0.17712899407E+02  0.27531128298E+02  0.00000000000E+00 0.  1.
</event>
<event>
 6    1  0.6981059E-006  0.1568695E+03  0.7561462E-02  0.1192277E+00
         -2   -1    0    0    0  501 -0.00000000000E+00  0.00000000000E+00  0.18459387212E+03  0.18459387212E+03  0.00000000000E+00 0. -1.
          2   -1    0    0  501    0  0.00000000000E+00 -0.00000000000E+00 -0.17831211898E+03  0.17831211898E+03  0.00000000000E+00 0.  1.
          5    1    1    2  502    0  0.25371061281E+02 -0.14026668014E+02  0.44624914690E+02  0.53378774594E+02  0.41800000000E+01 0.  1.
         -5    1    1    2    0  502 -0.85646430890E+01 -0.12996801459E+03 -0.45718646849E+02  0.13810396445E+03  0.41800000000E+01 0.  1.
        -11    1    1    2    0    0  0.19634410833E+00  0.13480420982E+03 -0.21669886755E+02  0.13653496816E+03  0.00000000000E+00 0.  1.
         11    1    1    2    0    0 -0.17002762301E+02  0.91904727823E+01  0.29045372053E+02  0.34888283900E+02  0.00000000000E+00 0. -1.
</event>
<event>
 6    1  0.6981059E-006  0.8572977E+02  0.7561462E-02  0.1313535E+00
          2   -1    0    0  501    0  0.00000000000E+00  0.00000000000E+00  0.39269293974E+03  0.39269293974E+03  0.00000000000E+00 0.  1.
         -2   -1    0    0    0  501 -0.00000000000E+00 -0.00000000000E+00 -0.32472500862E+02  0.32472500862E+02  0.00000000000E+00 0. -1.
          5    1    1    2  502    0  0.24487594873E+02 -0.31652240510E+02  0.13716799283E+03  0.14294767325E+03  0.41800000000E+01 0. -1.
         -5    1    1    2    0  502 -0.30590720356E+02  0.39942809775E+02  0.11800369980E+02  0.51845360026E+02  0.41800000000E+01 0. -1.
        -11    1    1    2    0    0 -0.16921512508E+02  0.30931527125E+02  0.14996134782E+03  0.15405032553E+03  0.00000000000E+00 0.  1.
         11    1    1    2    0    0  0.23024637990E+02 -0.39222096391E+02  0.61290728252E+02  0.76322081795E+02  0.00000000000E+00 0. -1.
</event>
<event>
 6    1  0.6981059E-006  0.1572664E+03  0.7561462E-02  0.1191818E+00
         -2   -1    0    0    0  501 -0.00000000000E+00  0.00000000000E+00  0.57597793674E+02  0.57597793674E+02  0.00000000000E+00 0.  1.
          2   -1    0    0  501    0  0.00000000000E+00 -0.00000000000E+00 -0.45707209813E+03  0.45707209813E+03  0.00000000000E+00 0. -1.
          5    1    1    2  502    0 -0.17065586757E+02  0.16958995550E+02 -0.74597087918E+01  0.25533535530E+02  0.41800000000E+01 0. -1.
         -5    1    1    2    0  502  0.50921542246E+02 -0.13204135818E+03 -0.19491211272E+03  0.24090688620E+03  0.41800000000E+01 0. -1.
        -11    1    1    2    0    0 -0.10717370962E+02  0.12345903119E+03 -0.14593737432E+03  0.19145420247E+03  0.00000000000E+00 0.  1.
         11    1    1    2    0    0 -0.23138584527E+02 -0.83766685573E+01 -0.51165108626E+02  0.56775267597E+02  0.00000000000E+00 0. -1.
</event>
<event>
 6    1  0.6981059E-006  0.9246165E+02  0.7561462E-02  0.1296998E+00
          2   -1    0    0  501    0  0.00000000000E+00  0.00000000000E+00  0.42060802211E+03  0.42060802211E+03  0.00000000000E+00 0.  1.
         -2   -1    0    0    0  501 -0.00000000000E+00 -0.00000000000E+00 -0.52663159872E+02  0.52663159872E+02  0.00000000000E+00 0. -1.
          5    1    1    2  502    0 -0.23068420531E+02 -0.27293163788E+02  0.11710747105E+03  0.12251000364E+03  0.41800000000E+01 0. -1.
         -5    1    1    2    0  502 -0.47828795568E+02 -0.63831164911E+01 -0.21940222927E+02  0.53171267088E+02  0.41800000000E+01 0. -1.
        -11    1    1    2    0    0 -0.85613804475E+01 -0.71702537117E+01  0.66663221441E+00  0.11187232543E+02  0.00000000000E+00 0.  1.
         11    1    1    2    0    0  0.79458596547E+02  0.40846533991E+02  0.27211098190E+03  0.28640267872E+03  0.00000000000E+00 0. -1.
</event>
<event>
 6    1  0.6981059E-006  0.1583544E+03  0.7561462E-02  0.1190567E+00
         -3   -1    0    0    0  501 -0.00000000000E+00  0.00000000000E+00  0.15497564917E+03  0.15497564917E+03  0.00000000000E+00 0.  1.
          3   -1    0    0  501    0  0.00000000000E+00 -0.00000000000E+00 -0.21791940095E+03  0.21791940095E+03  0.00000000000E+00 0. -1.
          5    1    1    2  502    0  0.11329449854E+03  0.80969309247E+02  0.44911088249E+02  0.14637674231E+03  0.41800000000E+01 0. -1.
         -5    1    1    2    0  502 -0.17689558866E+01  0.10517928867E+02 -0.43068906408E+02  0.44566345282E+02  0.41800000000E+01 0. -1.
        -11    1    1    2    0    0  0.92084307317E+01 -0.28108501064E+02  0.28972934024E+01  0.29719982128E+02  0.00000000000E+00 0. -1.
         11    1    1    2    0    0 -0.12073397339E+03 -0.63378737050E+02 -0.67683227023E+02  0.15223198041E+03  0.00000000000E+00 0.  1.
</event>
<event>
 6    1  0.6981059E-006  0.1789351E+03  0.7561462E-02  0.1168838E+00
          4   -1    0    0  501    0  0.00000000000E+00  0.00000000000E+00  0.90017396615E+02  0.90017396615E+02  0.00000000000E+00 0. -1.
         -4   -1    0    0    0  501 -0.00000000000E+00 -0.00000000000E+00 -0.40919378729E+03  0.40919378729E+03  0.00000000000E+00 0.  1.
          5    1    1    2  502    0  0.52207809400E+02 -0.61382657939E+02 -0.40690518223E+02  0.90369667097E+02  0.41800000000E+01 0.  1.
         -5    1    1    2    0  502  0.10256407362E+03  0.36151494291E+02 -0.15846673020E+03  0.19223812503E+03  0.41800000000E+01 0.  1.
        -11    1    1    2    0    0 -0.48061199039E+02  0.37468233903E+02 -0.83048502703E+02  0.10300874335E+03  0.00000000000E+00 0. -1.
         11    1    1    2    0    0 -0.10671068398E+03 -0.12237070255E+02 -0.36970639555E+02  0.11359464843E+03  0.00000000000E+00 0.  1.
</event>
<event>
 6    1  0.6981059E-006  0.1142892E+03  0.7561462E-02  0.1252827E+00
         -1   -1    0    0    0  501 -0.00000000000E+00  0.00000000000E+00  0.40980083206E+03  0.40980083206E+03  0.00000000000E+00 0. -1.
          1   -1    0    0  501    0  0.00000000000E+00 -0.00000000000E+00 -0.32720148018E+02  0.32720148018E+02  0.00000000000E+00 0.  1.
          5    1    1    2  502    0  0.66640088658E+01  0.81341065613E+02  0.15252516778E+03  0.17303808013E+03  0.41800000000E+01 0.  1.
         -5    1    1    2    0  502 -0.13294568423E+00 -0.47773118609E+02  0.87894558372E+02  0.10012599227E+03  0.41800000000E+01 0.  1.
        -11    1    1    2    0    0  0.36253109951E+02 -0.41802062016E+02  0.88856337185E+02  0.10467640148E+03  0.00000000000E+00 0. -1.
         11    1    1    2    0    0 -0.42784173133E+02  0.82341150110E+01  0.47804620698E+02  0.64680506188E+02  0.00000000000E+00 0.  1.
</event>
<event>
 6    1  0.6981059E-006  0.7496940E+02  0.7561462E-02  0.1343966E+00
         -2   -1    0    0    0  501 -0.00000000000E+00  0.00000000000E+00  0.17535560767E+03  0.17535560767E+03  0.00000000000E+00 0.  1.
          2   -1    0    0  501    0  0.00000000000E+00 -0.00000000000E+00 -0.85353945286E+02  0.85353945286E+02  0.00000000000E+00 0. -1.
          5    1    1    2  502    0 -0.12228446710E+02  0.33789197347E+02  0.10676537460E+03  0.11272782434E+03  0.41800000000E+01 0.  1.
         -5    1    1    2    0  502  0.35780004918E+02  0.14490505557E+02 -0.24906421875E+02  0.46130095966E+02  0.41800000000E+01 0.  1.
        -11    1    1    2    0    0  0.95575648782E+01  0.60494396234E+01  0.31971048726E+02  0.33912987524E+02  0.00000000000E+00 0.  1.
         11    1    1    2    0    0 -0.33109123086E+02 -0.54329142527E+02 -0.23828339066E+02  0.67938645129E+02  0.00000000000E+00 0. -1.
</event>
<event>
 6    1  0.7303695E-006  0.2921405E+03  0.7561462E-02  0.1089237E+00
          1   -1    0    0  501    0  0.00000000000E+00  0.00000000000E+00  0.70469845241E+03  0.70469845241E+03  0.00000000000E+00 0. -1.
         -1   -1    0    0    0  501 -0.00000000000E+00 -0.00000000000E+00 -0.24024997367E+03  0.24024997367E+03  0.00000000000E+00 0.  1.
          5    1    1    2  502    0  0.76385810896E+02 -0.27717934867E+03 -0.67407379378E+02  0.29533779072E+03  0.41800000000E+01 0.  1.
         -5    1    1    2    0  502  0.70947585829E+01  0.96964075758E+01 -0.20045502363E+02  0.23741324399E+02  0.41800000000E+01 0.  1.
        -11    1    1    2    0    0 -0.73799214468E+02  0.16115064503E+03  0.25665560006E+03  0.31191016574E+03  0.00000000000E+00 0.  1.
         11    1    1    2    0    0 -0.96813550102E+01  0.10633229606E+03  0.29524576042E+03  0.31395914522E+03  0.00000000000E+00 0. -1.
</event>
<event>
 6    1  0.6981059E-006  0.1955508E+03  0.7561462E-02  0.1153548E+00
         -2   -1    0    0    0  501 -0.00000000000E+00  0.00000000000E+00  0.45644255107E+02  0.45644255107E+02  0.00000000000E+00 0.  1.
          2   -1    0    0  501    0  0.00000000000E+00 -0.00000000000E+00 -0.96649809222E+03  0.96649809222E+03  0.00000000000E+00 0. -1.
          5    1    1    2  502    0 -0.92966271450E+02 -0.10903118623E+03 -0.49211849490E+03  0.51257059281E+03  0.41800000000E+01 0.  1.
         -5    1    1    2    0  502 -0.51670375734E+02  0.32831466673E+02 -0.16523554256E+03  0.17626114109E+03  0.41800000000E+01 0.  1.
        -11    1    1    2    0    0  0.65799787867E+02  0.84527482938E+02 -0.13516221547E+03  0.17246255230E+03  0.00000000000E+00 0. -1.
         11    1    1    2    0    0  0.78836859317E+02 -0.83277633767E+01 -0.12833758419E+03  0.15084806112E+03  0.00000000000E+00 0.  1.
</event>
<event>
 6    1  0.6981059E-006  0.1225820E+03  0.7561462E-02  0.1238897E+00
         -2   -1    0    0    0  501 -0.00000000000E+00  0.00000000000E+00  0.14143669027E+02  0.14143669027E+02  0.00000000000E+00 0.  1.
          2   -1    0    0  501    0  0.00000000000E+00 -0.00000000000E+00 -0.11205957879E+04  0.11205957879E+04  0.00000000000E+00 0. -1.
          5    1    1    2  502    0 -0.53008907106E+02 -0.23796827071E+02 -0.24920574359E+03  0.25592422364E+03  0.41800000000E+01 0. -1.
         -5    1    1    2    0  502  0.72520895492E+02 -0.36781374359E+02 -0.42691385293E+03  0.43460908872E+03  0.41800000000E+01 0. -1.
        -11    1    1    2    0    0  0.22916553863E+02 -0.84800820383E+01 -0.54404257144E+02  0.59639780581E+02  0.00000000000E+00 0.  1.
         11    1    1    2    0    0 -0.42428542249E+02  0.69058283469E+02 -0.37592826518E+03  0.38456636394E+03  0.00000000000E+00 0. -1.
</event>
<event>
 6    1  0.6981059E-006  0.1950668E+03  0.7561462E-02  0.1153969E+00
          2   -1    0    0  501    0  0.00000000000E+00  0.00000000000E+00  0.84995811946E+03  0.84995811946E+03  0.00000000000E+00 0. -1.
         -2   -1    0    0    0  501 -0.00000000000E+00 -0.00000000000E+00 -0.48463498831E+02  0.48463498831E+02  0.00000000000E+00 0.  1.
          5    1    1    2  502    0  0.14786364266E+01  0.29176144149E+02  0.26075790095E+02  0.39380870765E+02  0.41800000000E+01 0. -1.
         -5    1    1    2    0  502  0.16034331649E+03 -0.71457995381E+02  0.31140083163E+03  0.35749709731E+03  0.41800000000E+01 0. -1.
        -11    1    1    2    0    0 -0.14095097891E+03  0.35098667490E+01  0.29620820987E+03  0.32805304634E+03  0.00000000000E+00 0.  1.
         11    1    1    2    0    0 -0.20870974005E+02  0.38771984483E+02  0.16780978904E+03  0.17349060388E+03  0.00000000000E+00 0. -1.
</event>
<event>
 6    1  0.6981059E-006  0.1097148E+03  0.7561462E-02  0.1261099E+00
         -1   -1    0    0    0  501 -0.00000000000E+00  0.00000000000E+00  0.19806886042E+03  0.19806886042E+03  0.00000000000E+00 0.  1.
          1   -1    0    0  501    0  0.00000000000E+00 -0.00000000000E+00 -0.65252080089E+02  0.65252080089E+02  0.00000000000E+00 0. -1.
          5    1    1    2  502    0  0.53801672426E+02 -0.32359665107E+02  0.67823938498E+02  0.92516630478E+02  0.41800000000E+01 0.  1.
         -5    1    1    2    0  502 -0.60974719567E+02  0.10518307997E+02  0.36882609116E+02  0.72155044762E+02  0.41800000000E+01 0.  1.
        -11    1    1    2    0    0  0.38690129161E+02 -0.18836535297E+02  0.10930902788E+02  0.44398488626E+02  0.00000000000E+00 0. -1.
         11    1    1    2    0    0 -0.31517082020E+02  0.40677892407E+02  0.17179329933E+02  0.54250776646E+02  0.00000000000E+00 0.  1.
</event>
<event>
 6    1  0.6981059E-006  0.7828807E+02  0.7561462E-02  0.1333981E+00
         -1   -1    0    0    0  501 -0.00000000000E+00  0.00000000000E+00  0.11668301760E+04  0.11668301760E+04  0.00000000000E+00 0.  1.
          1   -1    0    0  501    0  0.00000000000E+00 -0.00000000000E+00 -0.13438329157E+03  0.13438329157E+03  0.00000000000E+00 0. -1.
          5    1    1    2  502    0 -0.96574678268E+01  0.58021262479E+02  0.15298829236E+03  0.16395921317E+03  0.41800000000E+01 0. -1.
         -5    1    1    2    0  502  0.24500331583E+02 -0.14655372871E+02  0.98857796959E+03  0.98899894872E+03  0.41800000000E+01 0.  1.
        -11    1    1    2    0    0  0.17913403252E+02 -0.26295946849E+02  0.12771404454E+01  0.31843334066E+02  0.00000000000E+00 0.  1.
         11    1    1    2    0    0 -0.32756267008E+02 -0.17069942759E+02 -0.11039651792E+03  0.11641197165E+03  0.00000000000E+00 0. -1.
</event>
<event>
 6    1  0.6981059E-006  0.1060830E+03  0.7561462E-02  0.1268000E+00
          1   -1    0    0  501    0  0.00000000000E+00  0.00000000000E+00  0.25069568370E+03  0.25069568370E+03  0.00000000000E+00 0. -1.
         -1   -1    0    0    0  501 -0.00000000000E+00 -0.00000000000E+00 -0.60924798864E+02  0.60924798864E+02  0.00000000000E+00 0.  1.
          5    1    1    2  502    0 -0.25742503963E+02 -0.32426051200E+02  0.67196546654E+02  0.79037798482E+02  0.41800000000E+01 0.  1.
         -5    1    1    2    0  502  0.71751672706E+02  0.66008096065E+01 -0.60005849891E+00  0.72178291015E+02  0.41800000000E+01 0.  1.
        -11    1    1    2    0    0 -0.69216374973E+02  0.28822901546E+02  0.71166516204E+02  0.10337475149E+03  0.00000000000E+00 0.  1.
         11    1    1    2    0    0  0.23207206230E+02 -0.29976599525E+01  0.52007880474E+02  0.57029641570E+02  0.00000000000E+00 0. -1.
</event>
<event>
 6    1  0.6981059E-006  0.3407350E+03  0.7561462E-02  0.1066483E+00
          2   -1    0    0  501    0  0.00000000000E+00  0.00000000000E+00  0.11719428279E+04  0.11719428279E+04  0.00000000000E+00 0.  1.
         -2   -1    0    0    0  501 -0.00000000000E+00 -0.00000000000E+00 -0.10581775185E+03  0.10581775185E+03  0.00000000000E+00 0. -1.
          5    1    1    2  502    0 -0.55612585308E+02  0.15342182954E+03  0.17216567082E+03  0.23725410014E+03  0.41800000000E+01 0.  1.
         -5    1    1    2    0  502 -0.14256764191E+03  0.11593494185E+03  0.34965319870E+03  0.39502060076E+03  0.41800000000E+01 0.  1.
        -11    1    1    2    0    0  0.17102340802E+03 -0.23060459628E+03  0.39129050933E+03  0.48532025366E+03  0.00000000000E+00 0. -1.
         11    1    1    2    0    0  0.27156819203E+02 -0.38752175112E+02  0.15301569723E+03  0.16016562523E+03  0.00000000000E+00 0.  1.
</event>
<event>
 6    1  0.6981059E-006  0.1217528E+03  0.7561462E-02  0.1240233E+00
         -2   -1    0    0    0  501 -0.00000000000E+00  0.00000000000E+00  0.32523234057E+02  0.32523234057E+02  0.00000000000E+00 0.  1.
          2   -1    0    0  501    0  0.00000000000E+00 -0.00000000000E+00 -0.64539450305E+03  0.64539450305E+03  0.00000000000E+00 0. -1.
          5    1    1    2  502    0 -0.12297096968E+02  0.51503337712E+02 -0.67722655751E+02  0.86067664609E+02  0.41800000000E+01 0. -1.
         -5    1    1    2    0  502  0.72725931722E+02 -0.38544086199E+02 -0.83810999298E+02  0.11754345464E+03  0.41800000000E+01 0.  1.
        -11    1    1    2    0    0 -0.82929117759E+02 -0.18131117007E+02 -0.39639089742E+03  0.40537848923E+03  0.00000000000E+00 0. -1.
         11    1    1    2    0    0  0.22500283006E+02  0.51718654939E+01 -0.64946716527E+02  0.68928128624E+02  0.00000000000E+00 0.  1.
</event>
<event>
 6    1  0.6981059E-006  0.6867799E+02  0.7561462E-02  0.1364647E+00
         -2   -1    0    0    0  501 -0.00000000000E+00  0.00000000000E+00  0.44567413139E+02  0.44567413139E+02  0.00000000000E+00 0.  1.
          2   -1    0    0  501    0  0.00000000000E+00 -0.00000000000E+00 -0.17995250575E+03  0.17995250575E+03  0.00000000000E+00 0. -1.
          5    1    1    2  502    0 -0.70635669994E+01  0.59699532193E+02 -0.36999624561E+01  0.60374582773E+02  0.41800000000E+01 0.  1.
         -5    1    1    2    0  502  0.11308445946E+02 -0.41895201925E+02 -0.80425246346E+02  0.91481044724E+02  0.41800000000E+01 0.  1.
        -11    1    1    2    0    0  0.91450584398E+01 -0.17909330617E+02 -0.44423464608E+00  0.20114014056E+02  0.00000000000E+00 0.  1.
         11    1    1    2    0    0 -0.13389937386E+02  0.10500034866E+00 -0.50815649158E+02  0.52550277332E+02  0.00000000000E+00 0. -1.
</event>
<event>
 6    1  0.6981059E-006  0.1680678E+03  0.7561462E-02  0.1179878E+00
         -1   -1    0    0    0  501 -0.00000000000E+00  0.00000000000E+00  0.16242192400E+03  0.16242192400E+03  0.00000000000E+00 0.  1.
          1   -1    0    0  501    0  0.00000000000E+00 -0.00000000000E+00 -0.23349287900E+03  0.23349287900E+03  0.00000000000E+00 0. -1.
          5    1    1    2  502    0  0.30046013164E+02  0.10120484489E+03  0.80446750953E+01  0.10595929753E+03  0.41800000000E+01 0. -1.
         -5    1    1    2    0  502 -0.72989335263E+02  0.33043277018E+02  0.33922457536E+02  0.87106295659E+02  0.41800000000E+01 0. -1.
        -11    1    1    2    0    0 -0.62265886334E+01 -0.65142811680E+02 -0.96252645524E+02  0.11639127154E+03  0.00000000000E+00 0. -1.
         11    1    1    2    0    0  0.49169910733E+02 -0.69105310229E+02 -0.16785442099E+02  0.86457938269E+02  0.00000000000E+00 0.  1.
</event>
<event>
 6    1  0.6981059E-006  0.1375096E+03  0.7561462E-02  0.1216720E+00
          2   -1    0    0  501    0  0.00000000000E+00  0.00000000000E+00  0.23632406501E+03  0.23632406501E+03  0.00000000000E+00 0.  1.
         -2   -1    0    0    0  501 -0.00000000000E+00 -0.00000000000E+00 -0.86446889622E+02  0.86446889622E+02  0.00000000000E+00 0. -1.
          5    1    1    2  502    0  0.10826255019E+02 -0.37445460567E+02  0.22747230841E+02  0.45324157198E+02  0.41800000000E+01 0.  1.
         -5    1    1    2    0  502  0.43875934487E+02  0.99298021830E+02  0.19259200880E+02  0.11033396569E+03  0.41800000000E+01 0.  1.
        -11    1    1    2    0    0 -0.73515617701E+02 -0.12776097131E+02  0.70190277138E+02  0.10244242143E+03  0.00000000000E+00 0.  1.
         11    1    1    2    0    0  0.18813428195E+02 -0.49076464132E+02  0.37680466530E+02  0.64670410313E+02  0.00000000000E+00 0. -1.
</event>
<event>
 6    1  0.6981059E-006  0.3805580E+03  0.7561462E-02  0.1050728E+00
         -2   -1    0    0    0  501 -0.00000000000E+00  0.00000000000E+00  0.50964284118E+03  0.50964284118E+03  0.00000000000E+00 0.  1.
          2   -1    0    0  501    0  0.00000000000E+00 -0.00000000000E+00 -0.30139161480E+03  0.30139161480E+03  0.00000000000E+00 0. -1.
          5    1    1    2  502    0 -0.24834856642E+02  0.24249120401E+03 -0.19595811487E+02  0.24458172940E+03  0.41800000000E+01 0. -1.
         -5    1    1    2    0  502  0.46666402835E+02  0.12805442524E+03  0.60699312516E+02  0.14925671817E+03  0.41800000000E+01 0. -1.
        -11    1    1    2    0    0 -0.55068055267E+02 -0.21916360266E+03  0.82249412325E+02  0.24047898301E+03  0.00000000000E+00 0.  1.
         11    1    1    2    0    0  0.33236509074E+02 -0.15138202660E+03  0.84898313022E+02  0.17671702540E+03  0.00000000000E+00 0. -1.
</event>
<event>
 6    1  0.8207321E-006  0.1142340E+03  0.7561462E-02  0.1252924E+00
         -1   -1    0    0    0  501 -0.00000000000E+00  0.00000000000E+00  0.33333383536E+02  0.33333383536E+02  0.00000000000E+00 0.  1.
          1   -1    0    0  501    0  0.00000000000E+00 -0.00000000000E+00 -0.51557256016E+03  0.51557256016E+03  0.00000000000E+00 0. -1.
          5    1    1    2  502    0  0.58193643713E+02 -0.46916239392E+02 -0.10449571911E+03  0.12854750640E+03  0.41800000000E+01 0.  1.
         -5    1    1    2    0  502 -0.63788175411E+02 -0.24841015158E+02 -0.12421935121E+03  0.14189406955E+03  0.41800000000E+01 0.  1.
        -11    1    1    2    0    0 -0.19272378816E+02  0.42199177400E+02 -0.39343523208E+02  0.60828512861E+02  0.00000000000E+00 0.  1.
         11    1    1    2    0    0  0.24866910513E+02  0.29558077150E+02 -0.21418058309E+03  0.21763585490E+03  0.00000000000E+00 0. -1.
</event>
<event>
 6    1  0.6981059E-006  0.9840716E+02  0.7561462E-02  0.1283682E+00
          2   -1    0    0  501    0  0.00000000000E+00  0.00000000000E+00  0.35761013637E+02  0.35761013637E+02  0.00000000000E+00 0. -1.
         -2   -1    0    0    0  501 -0.00000000000E+00 -0.00000000000E+00 -0.50116425227E+03  0.50116425227E+03  0.00000000000E+00 0.  1.
          5    1    1    2  502    0 -0.36043961075E+02  0.16652288863E+02 -0.55101630787E+02  0.68045043682E+02  0.41800000000E+01 0.  1.
         -5    1    1    2    0  502  0.78231446694E+02 -0.18173642527E+01 -0.33535548134E+03  0.34438965334E+03  0.41800000000E+01 0.  1.
        -11    1    1    2    0    0 -0.57274958875E+02  0.13071504916E+00 -0.12630726691E+02  0.58651285214E+02  0.00000000000E+00 0. -1.
         11    1    1    2    0    0  0.15087473256E+02 -0.14965639659E+02 -0.62315399813E+02  0.65839283664E+02  0.00000000000E+00 0.  1.
</event>
<event>
 6    1  0.6981059E-006  0.1625393E+03  0.7561462E-02  0.1185859E+00
         -1   -1    0    0    0  501 -0.00000000000E+00  0.00000000000E+00  0.99900312878E+02  0.99900312878E+02  0.00000000000E+00 0.  1.
          1   -1    0    0  501    0  0.00000000000E+00 -0.00000000000E+00 -0.31370574607E+03  0.31370574607E+03  0.00000000000E+00 0. -1.
          5    1    1    2  502    0 -0.10651738560E+03  0.75289432150E+02 -0.55838798094E+02  0.14195032864E+03  0.41800000000E+01 0. -1.
         -5    1    1    2    0  502  0.33248795607E+02  0.31354036795E+02  0.18862668320E+01  0.45930256207E+02  0.41800000000E+01 0. -1.
        -11    1    1    2    0    0  0.15064117435E+02  0.10165837749E+02  0.14587108272E+01  0.18231832835E+02  0.00000000000E+00 0.  1.
         11    1    1    2    0    0  0.58204472555E+02 -0.11680930669E+03 -0.16131161275E+03  0.20749364126E+03  0.00000000000E+00 0. -1.
</event>
<event>
 6    1  0.6981059E-006  0.1497081E+03  0.7561462E-02  0.1200832E+00
          1   -1    0    0  501    0  0.00000000000E+00  0.00000000000E+00  0.35467314135E+03  0.35467314135E+03  0.00000000000E+00 0. -1.
         -1   -1    0    0    0  501 -0.00000000000E+00 -0.00000000000E+00 -0.11321870357E+03  0.11321870357E+03  0.00000000000E+00 0.  1.
          5    1    1    2  502    0  0.17532907879E+02 -0.12806873612E+02  0.50469917304E+02  0.55100851382E+02  0.41800000000E+01 0. -1.
         -5    1    1    2    0  502  0.10711323245E+03  0.52925561502E+02 -0.43630568410E+02  0.12726137877E+03  0.41800000000E+01 0.  1.
        -11    1    1    2    0    0 -0.33781112704E+02  0.28255498470E+02  0.36948722303E+02  0.57486910242E+02  0.00000000000E+00 0.  1.
         11    1    1    2    0    0 -0.90865027628E+02 -0.68374186360E+02  0.19766636659E+03  0.22804270453E+03  0.00000000000E+00 0. -1.
</event>
<event>
 6    1  0.6981059E-006  0.1447768E+03  0.7561462E-02  0.1207042E+00
         -2   -1    0    0    0  501 -0.00000000000E+00  0.00000000000E+00  0.11550403282E+03  0.11550403282E+03  0.00000000000E+00 0.  1.
          2   -1    0    0  501    0  0.00000000000E+00 -0.00000000000E+00 -0.32845916704E+03  0.32845916704E+03  0.00000000000E+00 0. -1.
          5    1    1    2  502    0 -0.78030490659E+02  0.97253895243E+01  0.58332935416E+02  0.97997675626E+02  0.41800000000E+01 0.  1.
         -5    1    1    2    0  502 -0.45102358132E+02  0.18845450339E+02 -0.63064013586E+02  0.79899411244E+02  0.41800000000E+01 0.  1.
        -11    1    1    2    0    0  0.45146869249E+02 -0.62169605677E+02 -0.12775383200E+03  0.14907830582E+03  0.00000000000E+00 0.  1.
         11    1    1    2    0    0  0.77985979542E+02  0.33598765814E+02 -0.80470224046E+02  0.11698780717E+03  0.00000000000E+00 0. -1.
</event>
<event>
 6    1  0.6981059E-006  0.1295444E+03  0.7561462E-02  0.1228133E+00
         -1   -1    0    0    0  501 -0.00000000000E+00  0.00000000000E+00  0.49651753454E+02  0.49651753454E+02  0.00000000000E+00 0.  1.
          1   -1    0    0  501    0  0.00000000000E+00 -0.00000000000E+00 -0.49854923496E+03  0.49854923496E+03  0.00000000000E+00 0. -1.
          5    1    1    2  502    0  0.10711657363E+02 -0.29855518798E+02 -0.49273926023E+02  0.58749330140E+02  0.41800000000E+01 0.  1.
         -5    1    1    2    0  502 -0.91208807232E+00  0.10840001373E+03 -0.49763412673E+02  0.11935352748E+03  0.41800000000E+01 0.  1.
        -11    1    1    2    0    0 -0.52784933923E+01  0.19632685707E+02 -0.90149084805E+02  0.92412998717E+02  0.00000000000E+00 0. -1.
         11    1    1    2    0    0 -0.45210758985E+01 -0.98177180640E+02 -0.25971105800E+03  0.27768513207E+03  0.00000000000E+00 0.  1.
</event>
<event>
 6    1  0.6981059E-006  0.8408336E+02  0.7561462E-02  0.1317847E+00
         -1   -1    0    0    0  501 -0.00000000000E+00  0.00000000000E+00  0.40180698558E+02  0.40180698558E+02  0.00000000000E+00 0.  1.
          1   -1    0    0  501    0  0.00000000000E+00 -0.00000000000E+00 -0.44286541923E+03  0.44286541923E+03  0.00000000000E+00 0. -1.
          5    1    1    2  502    0  0.47736267920E+02 -0.13485209013E+02 -0.23055539038E+03  0.23586831617E+03  0.41800000000E+01 0. -1.
         -5    1    1    2    0  502  0.31122551506E+02 -0.86747426634E+01  0.67684344209E+01  0.33273840731E+02  0.41800000000E+01 0. -1.
        -11    1    1    2    0    0 -0.68652815596E+02  0.27892392687E+02 -0.18599606379E+03  0.20021421129E+03  0.00000000000E+00 0. -1.
         11    1    1    2    0    0 -0.10206003830E+02 -0.57324410110E+01  0.70982990799E+01  0.13689749594E+02  0.00000000000E+00 0.  1.
</event>
<event>
 6    1  0.6981059E-006  0.7810694E+02  0.7561462E-02  0.1334511E+00
         -1   -1    0    0    0  501 -0.00000000000E+00  0.00000000000E+00  0.15441969266E+03  0.15441969266E+03  0.00000000000E+00 0.  1.
          1   -1    0    0  501    0  0.00000000000E+00 -0.00000000000E+00 -0.95913715051E+02  0.95913715051E+02  0.00000000000E+00 0. -1.
          5    1    1    2  502    0  0.38406301020E+02  0.48520797766E+02  0.14862076547E+01  0.62040252958E+02  0.41800000000E+01 0. -1.
         -5    1    1    2    0  502 -0.41820343404E+02 -0.15130167897E+02  0.78106671359E+02  0.89977706205E+02  0.41800000000E+01 0. -1.
        -11    1    1    2    0    0 -0.16501340811E+02 -0.12873222892E+02  0.31872719883E+02  0.38129835942E+02  0.00000000000E+00 0.  1.
         11    1    1    2    0    0  0.19915383195E+02 -0.20517406977E+02 -0.52959621292E+02  0.60185612602E+02  0.00000000000E+00 0. -1.
</event>
<event>
 6    1  0.6981059E-006  0.1086480E+03  0.7561462E-02  0.1263094E+00
          2   -1    0    0  501    0  0.00000000000E+00  0.00000000000E+00  0.71428247885E+03  0.71428247885E+03  0.00000000000E+00 0. -1.
         -2   -1    0    0    0  501 -0.00000000000E+00 -0.00000000000E+00 -0.17905092202E+02  0.17905092202E+02  0.00000000000E+00 0.  1.
          5    1    1    2  502    0 -0.40917919851E+02  0.53027909218E+02  0.20857536957E+03  0.21910589338E+03  0.41800000000E+01 0. -1.
         -5    1    1    2    0  502  0.13141094174E+02 -0.59534185393E+02  0.17622370140E+03  0.18651882726E+03  0.41800000000E+01 0. -1.
        -11    1    1    2    0    0 -0.94981115382E+01 -0.33249092224E+02  0.60929305688E+02  0.70057808616E+02  0.00000000000E+00 0. -1.
         11    1    1    2    0    0  0.37274937215E+02  0.39755368400E+02  0.25064900999E+03  0.25650504180E+03  0.00000000000E+00 0.  1.
</event>
<event>
 6    1  0.6981059E-006  0.1211162E+03  0.7561462E-02  0.1241267E+00
          1   -1    0    0  501    0  0.00000000000E+00  0.00000000000E+00  0.33973168307E+03  0.33973168307E+03  0.00000000000E+00 0. -1.
         -1   -1    0    0    0  501 -0.00000000000E+00 -0.00000000000E+00 -0.81186882142E+02  0.81186882142E+02  0.00000000000E+00 0.  1.
          5    1    1    2  502    0 -0.44720413497E+02  0.58947662592E+02 -0.27097675032E+02  0.78908166248E+02  0.41800000000E+01 0.  1.
         -5    1    1    2    0  502  0.54357836162E+02  0.12190097113E+02  0.34185820250E+02  0.65494393088E+02  0.41800000000E+01 0.  1.
        -11    1    1    2    0    0 -0.40868662785E+02 -0.77535112060E+01  0.12388479186E+03  0.13068208059E+03  0.00000000000E+00 0. -1.
         11    1    1    2    0    0  0.31231240121E+02 -0.63384248499E+02  0.12757186385E+03  0.14583392529E+03  0.00000000000E+00 0.  1.
</event>
<event>
 6    1  0.9207838E-006  0.4363136E+02  0.7561462E-02  0.1483071E+00
          2   -1    0    0  501    0  0.00000000000E+00  0.00000000000E+00  0.21053374122E+03  0.21053374122E+03  0.00000000000E+00 0. -1.
         -2   -1    0    0    0  501 -0.00000000000E+00 -0.00000000000E+00 -0.27989711599E+02  0.27989711599E+02  0.00000000000E+00 0.  1.
          5    1    1    2  502    0 -0.18487705102E+02  0.13590197367E+01  0.14546204177E+03  0.14669805782E+03  0.41800000000E+01 0. -1.
         -5    1    1    2    0  502  0.10302342662E+02  0.31676246081E+02 -0.83972832319E+01  0.34605051593E+02  0.41800000000E+01 0.  1.
        -11    1    1    2    0    0  0.11847636567E+01 -0.18681333694E+02  0.25831283725E+02  0.31900644388E+02  0.00000000000E+00 0. -1.
         11    1    1    2    0    0  0.70005987833E+01 -0.14353932124E+02  0.19647987359E+02  0.25319699011E+02  0.00000000000E+00 0.  1.
</event>
<event>
 6    1  0.6981059E-006  0.1055375E+03  0.7561462E-02  0.1269064E+00
          2   -1    0    0  501    0  0.00000000000E+00  0.00000000000E+00  0.32439238584E+02  0.32439238584E+02  0.00000000000E+00 0. -1.
         -2   -1    0    0    0  501 -0.00000000000E+00 -0.00000000000E+00 -0.37530021440E+03  0.37530021440E+03  0.00000000000E+00 0.  1.
          5    1    1    2  502    0 -0.18156392791E+02  0.48107515751E+02 -0.58454320197E+02  0.77963886644E+02  0.41800000000E+01 0.  1.
         -5    1    1    2    0  502  0.22697355075E+02 -0.63940001626E+02 -0.16865015839E+03  0.18183465583E+03  0.41800000000E+01 0.  1.
        -11    1    1    2    0    0 -0.43275323368E+02  0.27232442925E+02 -0.56102768253E+02  0.75907049514E+02  0.00000000000E+00 0.  1.
         11    1    1    2    0    0  0.38734361085E+02 -0.11399957050E+02 -0.59653728974E+02  0.72033860995E+02  0.00000000000E+00 0. -1.
</event>
<event>
 6    1  0.6981059E-006  0.9084847E+02  0.7561462E-02  0.1300810E+00
          3   -1    0    0  501    0  0.00000000000E+00  0.00000000000E+00  0.64407226744E+02  0.64407226744E+02  0.00000000000E+00 0. -1.
         -3   -1    0    0    0  501 -0.00000000000E+00 -0.00000000000E+00 -0.34227110477E+03  0.34227110477E+03  0.00000000000E+00 0.  1.
          5    1    1    2  502    0  0.24200366505E+02  0.71485597966E+02 -0.10562628331E+03  0.12988545947E+03  0.41800000000E+01 0. -1.
         -5    1    1    2    0  502 -0.46549689832E+02 -0.23314898962E+02 -0.16296228195E+03  0.17112754271E+03  0.41800000000E+01 0. -1.
        -11    1    1    2    0    0  0.20581791294E+02 -0.35085550678E+02 -0.49069855387E+02  0.63737404300E+02  0.00000000000E+00 0.  1.
         11    1    1    2    0    0  0.17675320339E+01 -0.13085148326E+02  0.39794542614E+02  0.41927925039E+02  0.00000000000E+00 0. -1.
</event>
<event>
 6    1  0.6981059E-006  0.1448410E+03  0.7561462E-02  0.1206960E+00
          2   -1    0    0  501    0  0.00000000000E+00  0.00000000000E+00  0.18140796966E+02  0.18140796966E+02  0.00000000000E+00 0. -1.
         -2   -1    0    0    0  501 -0.00000000000E+00 -0.00000000000E+00 -0.14820328491E+04  0.14820328491E+04  0.00000000000E+00 0.  1.
          5    1    1    2  502    0  0.96127533421E+02 -0.78244947077E+02 -0.75405748577E+03  0.76418776401E+03  0.41800000000E+01 0.  1.
         -5    1    1    2    0  502 -0.37922419521E+02 -0.11585787864E+02 -0.30255107387E+03  0.30516711009E+03  0.41800000000E+01 0.  1.
        -11    1    1    2    0    0 -0.47859928507E+02  0.14863690565E+02 -0.76245652961E+02  0.91240898995E+02  0.00000000000E+00 0. -1.
         11    1    1    2    0    0 -0.10345185393E+02  0.74967044376E+02 -0.33103783956E+03  0.33957787299E+03  0.00000000000E+00 0.  1.
</event>
<event>
 6    1  0.6981059E-006  0.2749114E+03  0.7561462E-02  0.1098501E+00
         -2   -1    0    0    0  501 -0.00000000000E+00  0.00000000000E+00  0.58061425537E+02  0.58061425537E+02  0.00000000000E+00 0.  1.
          2   -1    0    0  501    0  0.00000000000E+00 -0.00000000000E+00 -0.13224116973E+04  0.13224116973E+04  0.00000000000E+00 0. -1.
          5    1    1    2  502    0  0.22662196770E+03 -0.53219296377E+02 -0.50971646000E+03  0.56037322540E+03  0.41800000000E+01 0. -1.
         -5    1    1    2    0  502 -0.20646168537E+03  0.21088190874E+01 -0.43185715755E+03  0.47869505070E+03  0.41800000000E+01 0.  1.
        -11    1    1    2    0    0  0.31292073774E+01 -0.27918982253E+02 -0.65887248461E+02  0.71626747927E+02  0.00000000000E+00 0.  1.
         11    1    1    2    0    0 -0.23289489716E+02  0.79029459542E+02 -0.25688940580E+03  0.26977809885E+03  0.00000000000E+00 0. -1.
</event>
<event>
 6    1  0.6981059E-006  0.7832882E+02  0.7561462E-02  0.1333862E+00
          1   -1    0    0  501    0  0.00000000000E+00  0.00000000000E+00  0.10809698608E+03  0.10809698608E+03  0.00000000000E+00 0. -1.
         -1   -1    0    0    0  501 -0.00000000000E+00 -0.00000000000E+00 -0.12036188377E+03  0.12036188377E+03  0.00000000000E+00 0.  1.
          5    1    1    2  502    0  0.56032653041E+02  0.37587154590E+02 -0.50236755322E+02  0.84223846874E+02  0.41800000000E+01 0.  1.
         -5    1    1    2    0  502 -0.43127240656E+02 -0.16514707914E+02  0.13809414978E+02  0.48382505166E+02  0.41800000000E+01 0.  1.
        -11    1    1    2    0    0  0.25945184636E+01 -0.26224681595E+02 -0.29619069147E+02  0.39645361746E+02  0.00000000000E+00 0.  1.
         11    1    1    2    0    0 -0.15499930848E+02  0.51522349184E+01  0.53781511798E+02  0.56207156059E+02  0.00000000000E+00 0. -1.
</event>
<event>
 6    1  0.6981059E-006  0.1056265E+03  0.7561462E-02  0.1268890E+00
          2   -1    0    0  501    0  0.00000000000E+00  0.00000000000E+00  0.57796489098E+03  0.57796489098E+03  0.00000000000E+00 0.  1.
         -2   -1    0    0    0  501 -0.00000000000E+00 -0.00000000000E+00 -0.31063688530E+02  0.31063688530E+02  0.00000000000E+00 0. -1.
          5    1    1    2  502    0 -0.99012092476E+01  0.78520323011E+02  0.21986108823E+03  0.23370889069E+03  0.41800000000E+01 0. -1.
         -5    1    1    2    0  502 -0.10591414410E+02 -0.14367062631E+02 -0.90965504125E+01  0.20464852241E+02  0.41800000000E+01 0. -1.
        -11    1    1    2    0    0 -0.34079298363E+02 -0.43636507639E+02  0.16947682824E+03  0.17829172355E+03  0.00000000000E+00 0. -1.
         11    1    1    2    0    0  0.54571922020E+02 -0.20516752741E+02  0.16665983639E+03  0.17656311303E+03  0.00000000000E+00 0.  1.
</event>
<event>
 6    1  0.6981059E-006  0.7631927E+02  0.7561462E-02  0.1339834E+00
         -1   -1    0    0    0  501 -0.00000000000E+00  0.00000000000E+00  0.19716316902E+02  0.19716316902E+02  0.00000000000E+00 0.  1.
          1   -1    0    0  501    0  0.00000000000E+00 -0.00000000000E+00 -0.60294433990E+03  0.60294433990E+03  0.00000000000E+00 0. -1.
          5    1    1    2  502    0  0.29639028555E+02  0.13324070611E+02 -0.15312347786E+02  0.36165498283E+02  0.41800000000E+01 0.  1.
         -5    1    1    2    0  502 -0.39605424676E+02 -0.37161484423E+01 -0.31124225664E+03  0.31380187083E+03  0.41800000000E+01 0.  1.
        -11    1    1    2    0    0  0.11826723891E+01 -0.44185034679E+02 -0.20620320381E+03  0.21088735681E+03  0.00000000000E+00 0. -1.
         11    1    1    2    0    0  0.87837237315E+01  0.34577112510E+02 -0.50470214774E+02  0.61805930876E+02  0.00000000000E+00 0.  1.
</event>
<event>
 6    1  0.6981059E-006  0.9397060E+02  0.7561462E-02  0.1293512E+00
          1   -1    0    0  501    0  0.00000000000E+00  0.00000000000E+00  0.10949207613E+03  0.10949207613E+03  0.00000000000E+00 0. -1.
         -1   -1    0    0    0  501 -0.00000000000E+00 -0.00000000000E+00 -0.19554198289E+03  0.19554198289E+03  0.00000000000E+00 0.  1.
          5    1    1    2  502    0 -0.52596156315E+02  0.36186474873E+02 -0.12902864690E+03  0.14401972346E+03  0.41800000000E+01 0. -1.
         -5    1    1    2    0  502 -0.19065238854E+02  0.10647314883E+02  0.29720938749E+02  0.37116778509E+02  0.41800000000E+01 0. -1.
        -11    1    1    2    0    0  0.14923485794E+02 -0.42247806696E+02 -0.28675564994E+02  0.53196575328E+02  0.00000000000E+00 0.  1.
         11    1    1    2    0    0  0.56737909375E+02 -0.45859830602E+01  0.41933366392E+02  0.70700981732E+02  0.00000000000E+00 0. -1.
</event>
<event>
 6    1  0.6981059E-006  0.1221699E+03  0.7561462E-02  0.1239560E+00
         -3   -1    0    0    0  501 -0.00000000000E+00  0.00000000000E+00  0.21957119407E+03  0.21957119407E+03  0.00000000000E+00 0.  1.
          3   -1    0    0  501    0  0.00000000000E+00 -0.00000000000E+00 -0.14817247245E+03  0.14817247245E+03  0.00000000000E+00 0. -1.
          5    1    1    2  502    0  0.83693297724E+02 -0.35059899877E+02  0.82201831454E+02  0.12250868605E+03  0.41800000000E+01 0. -1.
         -5    1    1    2    0  502 -0.69616482158E+02  0.74082624785E+02  0.80444042483E+02  0.12970507413E+03  0.41800000000E+01 0.  1.
        -11    1    1    2    0    0 -0.22235601445E+02 -0.16172748212E+02 -0.77318105198E+01  0.28561523948E+02  0.00000000000E+00 0. -1.
         11    1    1    2    0    0  0.81587858793E+01 -0.22849976696E+02 -0.83515341796E+02  0.86968382401E+02  0.00000000000E+00 0.  1.
</event>
<event>
 6    1  0.6981059E-006  0.1693414E+03  0.7561462E-02  0.1178536E+00
          2   -1    0    0  501    0  0.00000000000E+00  0.00000000000E+00  0.85734136571E+03  0.85734136571E+03  0.00000000000E+00 0. -1.
         -2   -1    0    0    0  501 -0.00000000000E+00 -0.00000000000E+00 -0.41461032046E+02  0.41461032046E+02  0.00000000000E+00 0.  1.
          5    1    1    2  502    0  0.89988991752E+02 -0.88345815925E+02  0.18512532651E+03  0.22403540065E+03  0.41800000000E+01 0. -1.
         -5    1    1    2    0  502  0.47350563426E+02  0.19334191402E+02  0.23425955522E+03  0.23981429988E+03  0.41800000000E+01 0. -1.
        -11    1    1    2    0    0 -0.75089595400E+02  0.10614090200E+02  0.94717953732E+02  0.12133670923E+03  0.00000000000E+00 0.  1.
         11    1    1    2    0    0 -0.62249959777E+02  0.58397534323E+02  0.30177749820E+03  0.31361598799E+03  0.00000000000E+00 0. -1.
</event>
<event>
 6    1  0.6981059E-006  0.1604468E+03  0.7561462E-02  0.1188193E+00
          3   -1    0    0  501    0  0.00000000000E+00  0.00000000000E+00  0.96426630627E+02  0.96426630627E+02  0.00000000000E+00 0. -1.
         -3   -1    0    0    0  501 -0.00000000000E+00 -0.00000000000E+00 -0.39062884473E+03  0.39062884473E+03  0.00000000000E+00 0.  1.
          5    1    1    2  502    0 -0.42223642009E+02 -0.56603883863E+01 -0.58264619272E+02  0.72298784223E+02  0.41800000000E+01 0.  1.
         -5    1    1    2    0  502  0.65279578774E+02 -0.11247596838E+03 -0.22615001559E+03  0.26090911985E+03  0.41800000000E+01 0.  1.
        -11    1    1    2    0    0 -0.46162294512E+02  0.25993703336E+02 -0.23338025016E+02  0.57890357223E+02  0.00000000000E+00 0. -1.
         11    1    1    2    0    0  0.23106357747E+02  0.92142653433E+02  0.13550445775E+02  0.95957214063E+02  0.00000000000E+00 0.  1.
</event>
<event>
 6    1  0.6981059E-006  0.1166179E+03  0.7561462E-02  0.1248783E+00
          1   -1    0    0  501    0  0.00000000000E+00  0.00000000000E+00  0.68355935332E+02  0.68355935332E+02  0.00000000000E+00 0. -1.
         -1   -1    0    0    0  501 -0.00000000000E+00 -0.00000000000E+00 -0.20145319404E+03  0.20145319404E+03  0.00000000000E+00 0.  1.
          5    1    1    2  502    0 -0.71175654536E+02 -0.52602605068E+02 -0.61213404482E+02  0.10769197346E+03  0.41800000000E+01 0. -1.
         -5    1    1    2    0  502  0.37038229668E+02  0.22111599781E+02 -0.15524085726E+02  0.46035018621E+02  0.41800000000E+01 0. -1.
        -11    1    1    2    0    0 -0.31112895192E+02  0.13159443885E+02 -0.22160552855E+02  0.40401402370E+02  0.00000000000E+00 0.  1.
         11    1    1    2    0    0  0.65250320060E+02  0.17331561402E+02 -0.34199215650E+02  0.75680734930E+02  0.00000000000E+00 0. -1.
</event>
<event>
 6    1  0.6981059E-006  0.3518761E+03  0.7561462E-02  0.1061848E+00
          2   -1    0    0  501    0  0.00000000000E+00  0.00000000000E+00  0.17295796664E+04  0.17295796664E+04  0.00000000000E+00 0. -1.
         -2   -1    0    0    0  501 -0.00000000000E+00 -0.00000000000E+00 -0.81155136624E+02  0.81155136624E+02  0.00000000000E+00 0.  1.
          5    1    1    2  502    0 -0.13540646448E+03 -0.64359190493E+02  0.27934818464E+03  0.31706449925E+03  0.41800000000E+01 0.  1.
         -5    1    1    2    0  502 -0.19491841119E+03 -0.43415993145E+02  0.76534101074E+03  0.79097564476E+03  0.41800000000E+01 0.  1.
        -11    1    1    2    0    0  0.23484027613E+03  0.10814945013E+03  0.38196034091E+03  0.46123742355E+03  0.00000000000E+00 0.  1.
         11    1    1    2    0    0  0.95484599529E+02 -0.37426648905E+00  0.22177499352E+03  0.24145723549E+03  0.00000000000E+00 0. -1.
</event>
<event>
 6    1  0.6981059E-006  0.9155386E+02  0.7561462E-02  0.1299132E+00
          1   -1    0    0  501    0  0.00000000000E+00  0.00000000000E+00  0.41096119307E+02  0.41096119307E+02  0.00000000000E+00 0. -1.
         -1   -1    0    0    0  501 -0.00000000000E+00 -0.00000000000E+00 -0.28383510078E+03  0.28383510078E+03  0.00000000000E+00 0.  1.
          5    1    1    2  502    0 -0.53145932024E+02  0.27566204177E+02 -0.12786536835E+03  0.14124946204E+03  0.41800000000E+01 0.  1.
         -5    1    1    2    0  502  0.40624237211E+02 -0.24990534344E+02 -0.17556388758E+02  0.50995633558E+02  0.41800000000E+01 0.  1.
        -11    1    1    2    0    0 -0.12103061250E+02 -0.33537013429E+02 -0.83481589996E+02  0.90776600672E+02  0.00000000000E+00 0.  1.
         11    1    1    2    0    0  0.24624756064E+02  0.30961343596E+02 -0.13835634376E+02  0.41909523823E+02  0.00000000000E+00 0. -1.
</event>
<event>
 6    1  0.6981059E-006  0.1003556E+03  0.7561462E-02  0.1279550E+00
          1   -1    0    0  501    0  0.00000000000E+00  0.00000000000E+00  0.53291108677E+03  0.53291108677E+03  0.00000000000E+00 0. -1.
         -1   -1    0    0    0  501 -0.00000000000E+00 -0.00000000000E+00 -0.25315625741E+02  0.25315625741E+02  0.00000000000E+00 0.  1.
          5    1    1    2  502    0 -0.45845872035E+02 -0.71347070496E+01  0.32709223944E+02  0.56921997140E+02  0.41800000000E+01 0.  1.
         -5    1    1    2    0  502  0.54460540444E+02 -0.30068499004E+02  0.20656804174E+03  0.21577278180E+03  0.41800000000E+01 0.  1.
        -11    1    1    2    0    0  0.17787475573E+01 -0.26837751115E+02  0.40207636774E+02  0.48374403177E+02  0.00000000000E+00 0.  1.
         11    1    1    2    0    0 -0.10393415967E+02  0.64040957168E+02  0.22811055857E+03  0.23715753039E+03  0.00000000000E+00 0. -1.
</event>
<event>
 6    1  0.6981059E-006  0.1260643E+03  0.7561462E-02  0.1233415E+00
          4   -1    0    0  501    0  0.00000000000E+00  0.00000000000E+00  0.52860413100E+02  0.52860413100E+02  0.00000000000E+00 0. -1.
         -4   -1    0    0    0  501 -0.00000000000E+00 -0.00000000000E+00 -0.49069595315E+03  0.49069595315E+03  0.00000000000E+00 0.  1.
          5    1    1    2  502    0  0.24376562023E+00 -0.13265699591E+02 -0.14574607819E+03  0.14640843526E+03  0.41800000000E+01 0.  1.
         -5    1    1    2    0  502 -0.40982874272E+02  0.11674018706E+03 -0.16173039020E+03  0.20367144811E+03  0.41800000000E+01 0.  1.
        -11    1    1    2    0    0  0.11660742909E+02 -0.68649177962E+01 -0.79215978288E+02  0.80363369999E+02  0.00000000000E+00 0.  1.
         11    1    1    2    0    0  0.29078365742E+02 -0.96609569676E+02 -0.51143093375E+02  0.11311311289E+03  0.00000000000E+00 0. -1.
</event>
<event>
 6    1  0.6981059E-006  0.2868758E+03  0.7561462E-02  0.1091992E+00
          1   -1    0    0  501    0  0.00000000000E+00  0.00000000000E+00  0.97423714965E+02  0.97423714965E+02  0.00000000000E+00 0. -1.
         -1   -1    0    0    0  501 -0.00000000000E+00 -0.00000000000E+00 -0.11148537080E+04  0.11148537080E+04  0.00000000000E+00 0.  1.
          5    1    1    2  502    0  0.49317687565E+02 -0.52601042858E+00 -0.23930840060E+03  0.24437367696E+03  0.41800000000E+01 0. -1.
         -5    1    1    2    0  502  0.16083011797E+03  0.18256922240E+03 -0.53117841635E+03  0.58426520537E+03  0.41800000000E+01 0. -1.
        -11    1    1    2    0    0 -0.33569117001E+02 -0.11666537821E+02 -0.31656432732E-01  0.35538637046E+02  0.00000000000E+00 0. -1.
         11    1    1    2    0    0 -0.17657868853E+03 -0.17037667415E+03 -0.24691151965E+03  0.34809990358E+03  0.00000000000E+00 0.  1.
</event>
<event>
 6    1  0.6981059E-006  0.1067248E+03  0.7561462E-02  0.1266758E+00
          2   -1    0    0  501    0  0.00000000000E+00  0.00000000000E+00  0.35265108861E+03  0.35265108861E+03  0.00000000000E+00 0.  1.
         -2   -1    0    0    0  501 -0.00000000000E+00 -0.00000000000E+00 -0.40355331762E+02  0.40355331762E+02  0.00000000000E+00 0. -1.
          5    1    1    2  502    0  0.68063787231E+02 -0.14108728656E+02  0.71477332051E+02  0.99790865081E+02  0.41800000000E+01 0.  1.
         -5    1    1    2    0  502 -0.36056853294E+02  0.52485329782E+02  0.93419451686E+02  0.11313475534E+03  0.41800000000E+01 0.  1.
        -11    1    1    2    0    0 -0.49896130487E+01  0.17358140524E+02 -0.21734133924E+01  0.18191344277E+02  0.00000000000E+00 0. -1.
         11    1    1    2    0    0 -0.27017320888E+02 -0.55734741651E+02  0.14957238651E+03  0.16188945568E+03  0.00000000000E+00 0.  1.
</event>
<event>
 6    1  0.6981059E-006  0.1623941E+03  0.7561462E-02  0.1186020E+00
         -2   -1    0    0    0  501 -0.00000000000E+00  0.00000000000E+00  0.49145927451E+02  0.49145927451E+02  0.00000000000E+00 0.  1.
          2   -1    0    0  501    0  0.00000000000E+00 -0.00000000000E+00 -0.63937520737E+03  0.63937520737E+03  0.00000000000E+00 0. -1.
          5    1    1    2  502    0 -0.12466971396E+03 -0.35160122894E+02 -0.17463326961E+03  0.21746959115E+03  0.41800000000E+01 0. -1.
         -5    1    1    2    0  502 -0.10169471219E+02  0.54199881371E+02 -0.75943575100E+02  0.93946496925E+02  0.41800000000E+01 0. -1.
        -11    1    1    2    0    0  0.87435300494E+02 -0.27653178612E+02 -0.11370014782E+03  0.14607311072E+03  0.00000000000E+00 0.  1.
         11    1    1    2    0    0  0.47403884684E+02  0.86134201349E+01 -0.22595228739E+03  0.23103193603E+03  0.00000000000E+00 0. -1.
</event>
<event>
 6    1  0.6981059E-006  0.1710575E+03  0.7561462E-02  0.1176750E+00
          3   -1    0    0  501    0  0.00000000000E+00  0.00000000000E+00  0.12267720243E+03  0.12267720243E+03  0.00000000000E+00 0. -1.
         -3   -1    0    0    0  501 -0.00000000000E+00 -0.00000000000E+00 -0.31012646606E+03  0.31012646606E+03  0.00000000000E+00 0.  1.
          5    1    1    2  502    0 -0.12793008726E+02 -0.44080331644E+02  0.13587324045E+02  0.48050228770E+02  0.41800000000E+01 0. -1.
         -5    1    1    2    0  502  0.45810924413E+02 -0.10909895086E+03 -0.16554954684E+03  0.20353217616E+03  0.41800000000E+01 0. -1.
        -11    1    1    2    0    0  0.11586741403E+02  0.12351454542E+03 -0.22167669714E+02  0.12602182782E+03  0.00000000000E+00 0.  1.
         11    1    1    2    0    0 -0.44604657090E+02  0.29664737085E+02 -0.13319371122E+02  0.55199435754E+02  0.00000000000E+00 0. -1.
</event>
<event>
 6    1  0.6981059E-006  0.8831140E+02  0.7561462E-02  0.1306993E+00
          4   -1    0    0  501    0  0.00000000000E+00  0.00000000000E+00  0.11758827687E+03  0.11758827687E+03  0.00000000000E+00 0.  1.
         -4   -1    0    0    0  501 -0.00000000000E+00 -0.00000000000E+00 -0.21475222962E+03  0.21475222962E+03  0.00000000000E+00 0. -1.
          5    1    1    2  502    0  0.27339510220E+02  0.25032017559E+02 -0.13024262457E+03  0.13547938728E+03  0.41800000000E+01 0. -1.
         -5    1    1    2    0  502 -0.58746409165E+02  0.35132942620E+02 -0.19928777456E+02  0.71414934137E+02  0.41800000000E+01 0. -1.
        -11    1    1    2    0    0  0.89421794176E+01 -0.38526292074E+02 -0.21254448323E+02  0.44899769790E+02  0.00000000000E+00 0. -1.
         11    1    1    2    0    0  0.22464719527E+02 -0.21638668105E+02  0.74261897602E+02  0.80546415291E+02  0.00000000000E+00 0.  1.
</event>
<event>
 6    1  0.6981059E-006  0.1621591E+03  0.7561462E-02  0.1186281E+00
          2   -1    0    0  501    0  0.00000000000E+00  0.00000000000E+00  0.11416428561E+03  0.11416428561E+03  0.00000000000E+00 0. -1.
         -2   -1    0    0    0  501 -0.00000000000E+00 -0.00000000000E+00 -0.26747520868E+03  0.26747520868E+03  0.00000000000E+00 0.  1.
          5    1    1    2  502    0  0.69338654321E+02  0.37652522890E+02 -0.84922659145E+02  0.11599522361E+03  0.41800000000E+01 0. -1.
         -5    1    1    2    0  502  0.43042304021E+02 -0.82654142608E+02 -0.64404359674E+02  0.11335669883E+03  0.41800000000E+01 0. -1.
        -11    1    1    2    0    0 -0.97792261499E+02 -0.69710197935E+01  0.12929023722E+01  0.98048932286E+02  0.00000000000E+00 0.  1.
         11    1    1    2    0    0 -0.14588696844E+02  0.51972639512E+02 -0.52768066265E+01  0.54238639562E+02  0.00000000000E+00 0. -1.
</event>
<event>
 6    1  0.6981059E-006  0.8459827E+02  0.7561462E-02  0.1316486E+00
         -1   -1    0    0    0  501 -0.00000000000E+00  0.00000000000E+00  0.16220412001E+03  0.16220412001E+03  0.00000000000E+00 0.  1.
          1   -1    0    0  501    0  0.00000000000E+00 -0.00000000000E+00 -0.78590511904E+02  0.78590511904E+02  0.00000000000E+00 0. -1.
          5    1    1    2  502    0 -0.37980652996E+02 -0.43978634697E+02  0.73891614109E+02  0.94096191992E+02  0.41800000000E+01 0. -1.
         -5    1    1    2    0  502  0.41679264228E+02  0.20306153810E+02 -0.11168865659E+02  0.47871880152E+02  0.41800000000E+01 0. -1.
        -11    1    1    2    0    0  0.20670862379E+02 -0.98860203030E+01 -0.27040580779E+02  0.35443066428E+02  0.00000000000E+00 0. -1.
         11    1    1    2    0    0 -0.24369473611E+02  0.33558501190E+02  0.47931440440E+02  0.63383493347E+02  0.00000000000E+00 0.  1.
</event>
<event>
 6    1  0.6981059E-006  0.2169571E+03  0.7561462E-02  0.1136172E+00
          2   -1    0    0  501    0  0.00000000000E+00  0.00000000000E+00  0.64888957500E+03  0.64888957500E+03  0.00000000000E+00 0.  1.
         -2   -1    0    0    0  501 -0.00000000000E+00 -0.00000000000E+00 -0.87497587389E+02  0.87497587389E+02  0.00000000000E+00 0. -1.
          5    1    1    2  502    0  0.22472101296E+02  0.86815180855E+00 -0.64503285467E+01  0.23766113746E+02  0.41800000000E+01 0.  1.
         -5    1    1    2    0  502  0.14400718179E+03  0.12892871562E+03  0.32762989006E+03  0.38042016163E+03  0.41800000000E+01 0.  1.
        -11    1    1    2    0    0 -0.64532374523E+02 -0.19284129305E+02  0.12783036822E+03  0.14448843568E+03  0.00000000000E+00 0. -1.
         11    1    1    2    0    0 -0.10194690856E+03 -0.11051273812E+03  0.11238205788E+03  0.18771245133E+03  0.00000000000E+00 0.  1.
</event>
<event>
 6    1  0.6981059E-006  0.1244745E+03  0.7561462E-02  0.1235893E+00
          1   -1    0    0  501    0  0.00000000000E+00  0.00000000000E+00  0.30963178140E+03  0.30963178140E+03  0.00000000000E+00 0. -1.
         -1   -1    0    0    0  501 -0.00000000000E+00 -0.00000000000E+00 -0.89144356158E+02  0.89144356158E+02  0.00000000000E+00 0.  1.
          5    1    1    2  502    0 -0.45245738639E+02  0.14058093130E+02 -0.21121370965E+01  0.47610296897E+02  0.41800000000E+01 0. -1.
         -5    1    1    2    0  502  0.85367327321E+02  0.42609099979E+02 -0.58911704900E+01  0.95683301912E+02  0.41800000000E+01 0. -1.
        -11    1    1    2    0    0 -0.45837005024E+02 -0.74325852381E+02  0.21633887054E+03  0.23329781454E+03  0.00000000000E+00 0. -1.
         11    1    1    2    0    0  0.57154163417E+01  0.17658659272E+02  0.12151862288E+02  0.22184724210E+02  0.00000000000E+00 0.  1.
</event>
<event>
 6    1  0.6981059E-006  0.1290541E+03  0.7561462E-02  0.1228866E+00
          1   -1    0    0  501    0  0.00000000000E+00  0.00000000000E+00  0.83220189610E+02  0.83220189610E+02  0.00000000000E+00 0. -1.
         -1   -1    0    0    0  501 -0.00000000000E+00 -0.00000000000E+00 -0.27152027277E+03  0.27152027277E+03  0.00000000000E+00 0.  1.
          5    1    1    2  502    0  0.96465758271E+02 -0.47641419552E+02 -0.42651875090E+02  0.11581019914E+03  0.41800000000E+01 0. -1.
         -5    1    1    2    0  502  0.53250857449E+01  0.40594960638E+02 -0.73095711887E+02  0.83885415083E+02  0.41800000000E+01 0.  1.
        -11    1    1    2    0    0 -0.64375500897E+02 -0.14664248817E+02  0.50316275994E+01  0.66216029671E+02  0.00000000000E+00 0. -1.
         11    1    1    2    0    0 -0.37415343119E+02  0.21710707731E+02 -0.77584123780E+02  0.88828818486E+02  0.00000000000E+00 0.  1.
</event>
<event>
 6    1  0.6981059E-006  0.1047044E+03  0.7561462E-02  0.1270703E+00
         -1   -1    0    0    0  501 -0.00000000000E+00  0.00000000000E+00  0.17746336162E+02  0.17746336162E+02  0.00000000000E+00 0.  1.
          1   -1    0    0  501    0  0.00000000000E+00 -0.00000000000E+00 -0.93459802242E+03  0.93459802242E+03  0.00000000000E+00 0. -1.
          5    1    1    2  502    0 -0.30496769259E+02  0.16369912819E+02 -0.26709910581E+02  0.43919457011E+02  0.41800000000E+01 0. -1.
         -5    1    1    2    0  502 -0.56103112887E+01 -0.64433833840E+02 -0.38855877158E+03  0.39392713274E+03  0.41800000000E+01 0. -1.
        -11    1    1    2    0    0  0.66038298796E+02  0.20776819818E+02 -0.38252115862E+03  0.38873534691E+03  0.00000000000E+00 0.  1.
         11    1    1    2    0    0 -0.29931218249E+02  0.27287101203E+02 -0.11906184548E+03  0.12576242192E+03  0.00000000000E+00 0. -1.
</event>
<event>
 6    1  0.6981059E-006  0.1066889E+03  0.7561462E-02  0.1266827E+00
         -3   -1    0    0    0  501 -0.00000000000E+00  0.00000000000E+00  0.19684776073E+03  0.19684776073E+03  0.00000000000E+00 0.  1.
          3   -1    0    0  501    0  0.00000000000E+00 -0.00000000000E+00 -0.11407847760E+03  0.11407847760E+03  0.00000000000E+00 0. -1.
          5    1    1    2  502    0 -0.69125897269E+02 -0.10210372228E+02 -0.21020345633E+02  0.73088772769E+02  0.41800000000E+01 0.  1.
         -5    1    1    2    0  502 -0.29201904264E+02  0.22516615258E+02  0.96618218637E+02  0.10350024999E+03  0.41800000000E+01 0.  1.
        -11    1    1    2    0    0  0.59694572566E+02  0.11632234606E+02  0.44634369880E+02  0.75438570044E+02  0.00000000000E+00 0.  1.
         11    1    1    2    0    0  0.38633228968E+02 -0.23938477635E+02 -0.37462959750E+02  0.58898645529E+02  0.00000000000E+00 0. -1.
</event>
<event>
 6    1  0.6981059E-006  0.2021976E+03  0.7561462E-02  0.1147898E+00
         -2   -1    0    0    0  501 -0.00000000000E+00  0.00000000000E+00  0.12814555389E+03  0.12814555389E+03  0.00000000000E+00 0. -1.
          2   -1    0    0  501    0  0.00000000000E+00 -0.00000000000E+00 -0.50792811830E+03  0.50792811830E+03  0.00000000000E+00 0.  1.
          5    1    1    2  502    0 -0.29516101418E+02 -0.68790606901E+02 -0.35803236429E+02  0.83082440861E+02  0.41800000000E+01 0. -1.
         -5    1    1    2    0  502 -0.31086214755E+02 -0.11576714513E+03 -0.31406784365E+03  0.33619111745E+03  0.41800000000E+01 0. -1.
        -11    1    1    2    0    0  0.78680362321E+02  0.12945886264E+03  0.12648782251E+00  0.15149327553E+03  0.00000000000E+00 0. -1.
         11    1    1    2    0    0 -0.18078046148E+02  0.55098889388E+02 -0.30037972151E+02  0.65306838350E+02  0.00000000000E+00 0.  1.
</event>
<event>
 6    1  0.6981059E-006  0.1112150E+03  0.7561462E-02  0.1258336E+00
         -1   -1    0    0    0  501 -0.00000000000E+00  0.00000000000E+00  0.23531050819E+02  0.23531050819E+02  0.00000000000E+00 0.  1.
          1   -1    0    0  501    0  0.00000000000E+00 -0.00000000000E+00 -0.58084346151E+03  0.58084346151E+03  0.00000000000E+00 0. -1.
          5    1    1    2  502    0 -0.88591167024E+01 -0.53650172938E+02 -0.91913374222E+02  0.10687546849E+03  0.41800000000E+01 0. -1.
         -5    1    1    2    0  502 -0.35195880423E+02  0.61765257076E+02 -0.25012177269E+03  0.26006166683E+03  0.41800000000E+01 0. -1.
        -11    1    1    2    0    0  0.43512205704E+01  0.36614253232E+02 -0.11404377710E+03  0.11985624621E+03  0.00000000000E+00 0. -1.
         11    1    1    2    0    0  0.39703776555E+02 -0.44729337369E+02 -0.10123348668E+03  0.11758113080E+03  0.00000000000E+00 0.  1.
</event>
<event>
 6    1  0.6981059E-006  0.1023212E+03  0.7561462E-02  0.1275489E+00
          2   -1    0    0  501    0  0.00000000000E+00  0.00000000000E+00  0.26484980682E+03  0.26484980682E+03  0.00000000000E+00 0. -1.
         -2   -1    0    0    0  501 -0.00000000000E+00 -0.00000000000E+00 -0.56129912907E+02  0.56129912907E+02  0.00000000000E+00 0.  1.
          5    1    1    2  502    0  0.15616125573E+02  0.52246048762E+02  0.96382309120E+02  0.11081757487E+03  0.41800000000E+01 0.  1.
         -5    1    1    2    0  502  0.35868022242E+02 -0.60820773624E+02  0.39067148400E+02  0.80804678131E+02  0.41800000000E+01 0.  1.
        -11    1    1    2    0    0 -0.40606213162E+01  0.27765016717E+02 -0.11516546626E+02  0.30331759675E+02  0.00000000000E+00 0.  1.
         11    1    1    2    0    0 -0.47423526499E+02 -0.19190291855E+02  0.84786983022E+02  0.99025707052E+02  0.00000000000E+00 0. -1.
</event>
<event>
 6    1  0.6981059E-006  0.1193612E+03  0.7561462E-02  0.1244155E+00
         -2   -1    0    0    0  501 -0.00000000000E+00  0.00000000000E+00  0.74760709526E+02  0.74760709526E+02  0.00000000000E+00 0.  1.
          2   -1    0    0  501    0  0.00000000000E+00 -0.00000000000E+00 -0.23523807644E+03  0.23523807644E+03  0.00000000000E+00 0. -1.
          5    1    1    2  502    0  0.80980876870E+02  0.48253188304E+02 -0.22236662060E+02  0.96944386840E+02  0.41800000000E+01 0. -1.
         -5    1    1    2    0  502 -0.33442439846E+02  0.18436542963E+02 -0.66842951816E+02  0.77095755439E+02  0.41800000000E+01 0. -1.
        -11    1    1    2    0    0 -0.57390799151E+02 -0.24122437496E+02 -0.67910254054E+02  0.92127077581E+02  0.00000000000E+00 0. -1.
         11    1    1    2    0    0  0.98523621260E+01 -0.42567293770E+02 -0.34874989860E+01  0.43831566109E+02  0.00000000000E+00 0.  1.
</event>
<event>
 6    1  0.6981059E-006  0.1349154E+03  0.7561462E-02  0.1220339E+00
         -1   -1    0    0    0  501 -0.00000000000E+00  0.00000000000E+00  0.34754717804E+03  0.34754717804E+03  0.00000000000E+00 0.  1.
          1   -1    0    0  501    0  0.00000000000E+00 -0.00000000000E+00 -0.82359334271E+02  0.82359334271E+02  0.00000000000E+00 0. -1.
          5    1    1    2  502    0 -0.52218564696E+02 -0.48636670750E+02  0.17087491512E+03  0.18522422428E+03  0.41800000000E+01 0.  1.
         -5    1    1    2    0  502 -0.64752184270E+02 -0.11426307771E+01  0.47361661599E+01  0.65069613820E+02  0.41800000000E+01 0.  1.
        -11    1    1    2    0    0  0.81341970186E+02  0.53908303339E+02  0.17549922071E+02  0.99149488386E+02  0.00000000000E+00 0. -1.
         11    1    1    2    0    0  0.35628778780E+02 -0.41290018119E+01  0.72026840409E+02  0.80463185822E+02  0.00000000000E+00 0.  1.
</event>
<event>
 6    1  0.6981059E-006  0.1195876E+03  0.7561462E-02  0.1243779E+00
         -1   -1    0    0    0  501 -0.00000000000E+00  0.00000000000E+00  0.85427868302E+02  0.85427868302E+02  0.00000000000E+00 0.  1.
          1   -1    0    0  501    0  0.00000000000E+00 -0.00000000000E+00 -0.20361450943E+03  0.20361450943E+03  0.00000000000E+00 0. -1.
          5    1    1    2  502    0 -0.15166859636E+01 -0.35610668080E+02  0.47512619467E+01  0.36200371649E+02  0.41800000000E+01 0.  1.
         -5    1    1    2    0  502 -0.37589650449E+02  0.96549115877E+02 -0.51298454156E+02  0.11568801751E+03  0.41800000000E+01 0.  1.
        -11    1    1    2    0    0  0.14212815547E+01 -0.61882042203E+02 -0.77306165100E+02  0.99033581935E+02  0.00000000000E+00 0. -1.
         11    1    1    2    0    0  0.37685054858E+02  0.94359440629E+00  0.56667161786E+01  0.38120406638E+02  0.00000000000E+00 0.  1.
</event>
<event>
 6    1  0.6981059E-006  0.1115378E+03  0.7561462E-02  0.1257748E+00
         -1   -1    0    0    0  501 -0.00000000000E+00  0.00000000000E+00  0.74101972592E+02  0.74101972592E+02  0.00000000000E+00 0.  1.
          1   -1    0    0  501    0  0.00000000000E+00 -0.00000000000E+00 -0.31125706161E+03  0.31125706161E+03  0.00000000000E+00 0. -1.
          5    1    1    2  502    0 -0.24549900186E+02 -0.20019782024E+02 -0.31291197230E+02  0.44722485346E+02  0.41800000000E+01 0. -1.
         -5    1    1    2    0  502  0.62224351371E+02  0.47275260967E+02  0.25469364562E+02  0.82298123516E+02  0.41800000000E+01 0.  1.
        -11    1    1    2    0    0 -0.33700321144E+02  0.36099946901E+02 -0.12630501457E+03  0.13561664543E+03  0.00000000000E+00 0.  1.
         11    1    1    2    0    0 -0.39741300409E+01 -0.63355425845E+02 -0.10502824178E+03  0.12272177991E+03  0.00000000000E+00 0. -1.
</event>
<event>
 6    1  0.6981059E-006  0.2777746E+03  0.7561462E-02  0.1096911E+00
          2   -1    0    0  501    0  0.00000000000E+00  0.00000000000E+00  0.17076080237E+04  0.17076080237E+04  0.00000000000E+00 0. -1.
         -2   -1    0    0    0  501 -0.00000000000E+00 -0.00000000000E+00 -0.48433191363E+02  0.48433191363E+02  0.00000000000E+00 0.  1.
          5    1    1    2  502    0 -0.71672561595E+02  0.99177844180E+02  0.22078057070E+03  0.25245738979E+03  0.41800000000E+01 0. -1.
         -5    1    1    2    0  502 -0.15113908090E+03  0.38816573449E+02  0.52920680746E+03  0.55174909661E+03  0.41800000000E+01 0. -1.
        -11    1    1    2    0    0  0.19147856072E+02  0.13290220358E+02  0.39165457810E+02  0.45576347317E+02  0.00000000000E+00 0.  1.
         11    1    1    2    0    0  0.20366378642E+03 -0.15128463799E+03  0.87002199634E+03  0.90625838132E+03  0.00000000000E+00 0. -1.
</event>
<event>
 6    1  0.1110827E-005  0.1428098E+03  0.7561462E-02  0.1209597E+00
         -1   -1    0    0    0  501 -0.00000000000E+00  0.00000000000E+00  0.45284701110E+02  0.45284701110E+02  0.00000000000E+00 0.  1.
          1   -1    0    0  501    0  0.00000000000E+00 -0.00000000000E+00 -0.58697459436E+03  0.58697459436E+03  0.00000000000E+00 0. -1.
          5    1    1    2  502    0 -0.29701307354E+02  0.18434799428E+02 -0.21169770961E+02  0.41080909082E+02  0.41800000000E+01 0. -1.
         -5    1    1    2    0  502  0.11418269062E+03  0.56759215757E+02 -0.19624249987E+03  0.23406812377E+03  0.41800000000E+01 0. -1.
        -11    1    1    2    0    0 -0.68050422846E+01 -0.34456984475E+02 -0.19945268734E+02  0.40390668780E+02  0.00000000000E+00 0.  1.
         11    1    1    2    0    0 -0.77676340985E+02 -0.40737030709E+02 -0.30433235369E+03  0.31671959384E+03  0.00000000000E+00 0. -1.
</event>
<event>
 6    1  0.6981059E-006  0.1138814E+03  0.7561462E-02  0.1253546E+00
          3   -1    0    0  501    0  0.00000000000E+00  0.00000000000E+00  0.37795184285E+03  0.37795184285E+03  0.00000000000E+00 0. -1.
         -3   -1    0    0    0  501 -0.00000000000E+00 -0.00000000000E+00 -0.39080896529E+02  0.39080896529E+02  0.00000000000E+00 0.  1.
          5    1    1    2  502    0  0.91607399437E+01 -0.53755491115E+02  0.91341391502E+02  0.10646264219E+03  0.41800000000E+01 0. -1.
         -5    1    1    2    0  502 -0.33471165210E+02  0.66201091474E+02  0.51756513332E+02  0.90548950768E+02  0.41800000000E+01 0.  1.
        -11    1    1    2    0    0  0.61148040489E+02 -0.78650007555E+01  0.14059578342E+03  0.15351910438E+03  0.00000000000E+00 0. -1.
         11    1    1    2    0    0 -0.36837615223E+02 -0.45805996039E+01  0.55177258062E+02  0.66502042038E+02  0.00000000000E+00 0.  1.
</event>
<event>
 6    1  0.6981059E-006  0.1135813E+03  0.7561462E-02  0.1254078E+00
         -2   -1    0    0    0  501 -0.00000000000E+00  0.00000000000E+00  0.13639371993E+03  0.13639371993E+03  0.00000000000E+00 0.  1.
          2   -1    0    0  501    0  0.00000000000E+00 -0.00000000000E+00 -0.11865780749E+03  0.11865780749E+03  0.00000000000E+00 0. -1.
          5    1    1    2  502    0 -0.47588335697E+02 -0.80260382065E+02  0.34352124115E+02  0.99518437763E+02  0.41800000000E+01 0. -1.
         -5    1    1    2    0  502  0.31261360747E+02  0.28898669860E+02  0.13777335082E+02  0.44940996399E+02  0.41800000000E+01 0. -1.
        -11    1    1    2    0    0 -0.27803610034E+02  0.33090239793E+02 -0.43234189899E+02  0.61132641663E+02  0.00000000000E+00 0. -1.
         11    1    1    2    0    0  0.44130584985E+02  0.18271472412E+02  0.12840643145E+02  0.49459451590E+02  0.00000000000E+00 0.  1.
</event>
<event>
 6    1  0.6981059E-006  0.1116496E+03  0.7561462E-02  0.1257545E+00
          1   -1    0    0  501    0  0.00000000000E+00  0.00000000000E+00  0.40588146564E+03  0.40588146564E+03  0.00000000000E+00 0. -1.
         -1   -1    0    0    0  501 -0.00000000000E+00 -0.00000000000E+00 -0.47829462285E+02  0.47829462285E+02  0.00000000000E+00 0.  1.
          5    1    1    2  502    0 -0.22692989072E+01 -0.79006018379E+02  0.73340665392E+02  0.10790470915E+03  0.41800000000E+01 0.  1.
         -5    1    1    2    0  502  0.48407486230E+02  0.33894107932E+02  0.27937164767E+02  0.65498495027E+02  0.41800000000E+01 0.  1.
        -11    1    1    2    0    0 -0.56034074927E+02  0.48842301003E+02  0.25903820274E+03  0.26949244590E+03  0.00000000000E+00 0. -1.
         11    1    1    2    0    0  0.98958876044E+01 -0.37303905561E+01 -0.22640295353E+01  0.10815277847E+02  0.00000000000E+00 0.  1.
</event>
<event>
 6    1  0.6981059E-006  0.1292527E+03  0.7561462E-02  0.1228569E+00
          2   -1    0    0  501    0  0.00000000000E+00  0.00000000000E+00  0.31100185741E+03  0.31100185741E+03  0.00000000000E+00 0. -1.
         -2   -1    0    0    0  501 -0.00000000000E+00 -0.00000000000E+00 -0.69896343049E+02  0.69896343049E+02  0.00000000000E+00 0.  1.
          5    1    1    2  502    0  0.17319027956E+02 -0.26079869324E+02  0.38543587620E+02  0.49831605031E+02  0.41800000000E+01 0. -1.
         -5    1    1    2    0  502 -0.10926383641E+03  0.56525856871E+02  0.64442916759E+02  0.13893926862E+03  0.41800000000E+01 0. -1.
        -11    1    1    2    0    0  0.40334348163E+02 -0.33063024774E+02  0.88337168341E+01  0.52896670992E+02  0.00000000000E+00 0.  1.
         11    1    1    2    0    0  0.51610460296E+02  0.26170372271E+01  0.12928529315E+03  0.13923065582E+03  0.00000000000E+00 0. -1.
</event>
<event>
 6    1  0.6981059E-006  0.7748860E+02  0.7561462E-02  0.1336333E+00
          2   -1    0    0  501    0  0.00000000000E+00  0.00000000000E+00  0.49092484689E+03  0.49092484689E+03  0.00000000000E+00 0. -1.
         -2   -1    0    0    0  501 -0.00000000000E+00 -0.00000000000E+00 -0.31914974719E+02  0.31914974719E+02  0.00000000000E+00 0.  1.
          5    1    1    2  502    0  0.38800532025E+01 -0.20478909767E+02  0.17508345480E+03  0.17636929751E+03  0.41800000000E+01 0. -1.
         -5    1    1    2    0  502 -0.34485004444E+02 -0.12449244068E+02 -0.73669407502E+01  0.37629023710E+02  0.41800000000E+01 0. -1.
        -11    1    1    2    0    0  0.18371995521E+02 -0.28651134080E+02  0.15629986559E+03  0.15996270092E+03  0.00000000000E+00 0. -1.
         11    1    1    2    0    0  0.12232955721E+02  0.61579287915E+02  0.13499349254E+03  0.14887879947E+03  0.00000000000E+00 0.  1.
</event>
<event>
 6    1  0.6981059E-006  0.1113679E+03  0.7561462E-02  0.1258058E+00
          1   -1    0    0  501    0  0.00000000000E+00  0.00000000000E+00  0.54714918468E+02  0.54714918468E+02  0.00000000000E+00 0. -1.
         -1   -1    0    0    0  501 -0.00000000000E+00 -0.00000000000E+00 -0.41696657012E+03  0.41696657012E+03  0.00000000000E+00 0.  1.
          5    1    1    2  502    0 -0.32514653381E+01  0.81679257855E+01  0.14093205910E+02  0.17128277535E+02  0.41800000000E+01 0.  1.
         -5    1    1    2    0  502  0.86466858995E+02  0.50555151498E+02 -0.24337000896E+03  0.26320861442E+03  0.41800000000E+01 0.  1.
        -11    1    1    2    0    0 -0.43376208210E+02 -0.58607575326E+02 -0.26364168874E+02  0.77533300746E+02  0.00000000000E+00 0. -1.
         11    1    1    2    0    0 -0.39839185447E+02 -0.11550195765E+00 -0.10661067973E+03  0.11381129588E+03  0.00000000000E+00 0.  1.
</event>
<event>
 6    1  0.6981059E-006  0.2001475E+03  0.7561462E-02  0.1149615E+00
          2   -1    0    0  501    0  0.00000000000E+00  0.00000000000E+00  0.18236199589E+03  0.18236199589E+03  0.00000000000E+00 0. -1.
         -2   -1    0    0    0  501 -0.00000000000E+00 -0.00000000000E+00 -0.23328092220E+03  0.23328092220E+03  0.00000000000E+00 0.  1.
          5    1    1    2  502    0  0.14990633004E+03 -0.46914266642E+02  0.41095320531E+01  0.15718529465E+03  0.41800000000E+01 0. -1.
         -5    1    1    2    0  502 -0.31303313507E+01 -0.46661924581E+02 -0.36777972938E+02  0.59642483797E+02  0.41800000000E+01 0. -1.
        -11    1    1    2    0    0 -0.10176708210E+03  0.11254153368E+02 -0.22749994434E+02  0.10488449463E+03  0.00000000000E+00 0.  1.
         11    1    1    2    0    0 -0.45008916597E+02  0.82322037855E+02  0.44995090103E+01  0.93930645006E+02  0.00000000000E+00 0. -1.
</event>
<event>
 6    1  0.6981059E-006  0.1372606E+03  0.7561462E-02  0.1217063E+00
         -3   -1    0    0    0  501 -0.00000000000E+00  0.00000000000E+00  0.39139048833E+03  0.39139048833E+03  0.00000000000E+00 0.  1.
          3   -1    0    0  501    0  0.00000000000E+00 -0.00000000000E+00 -0.59479405943E+02  0.59479405943E+02  0.00000000000E+00 0. -1.
          5    1    1    2  502    0  0.45858670994E+02  0.97067618344E+02  0.13744194963E+03  0.17445028563E+03  0.41800000000E+01 0. -1.
         -5    1    1    2    0  502  0.28376359951E+02 -0.35652070049E+02  0.10922716335E+03  0.11842437890E+03  0.41800000000E+01 0. -1.
        -11    1    1    2    0    0 -0.32670619515E+02 -0.71453020578E+02  0.84285029855E+02  0.11522530012E+03  0.00000000000E+00 0. -1.
         11    1    1    2    0    0 -0.41564411430E+02  0.10037472282E+02  0.95693954237E+00  0.42769929631E+02  0.00000000000E+00 0.  1.
</event>
<event>
 6    1  0.6981059E-006  0.8844932E+02  0.7561462E-02  0.1306651E+00
         -1   -1    0    0    0  501 -0.00000000000E+00  0.00000000000E+00  0.84407775642E+02  0.84407775642E+02  0.00000000000E+00 0.  1.
          1   -1    0    0  501    0  0.00000000000E+00 -0.00000000000E+00 -0.18424444876E+03  0.18424444876E+03  0.00000000000E+00 0. -1.
          5    1    1    2  502    0  0.64368620027E+02  0.25203231199E+02 -0.25862642483E+02  0.73924764344E+02  0.41800000000E+01 0.  1.
         -5    1    1    2    0  502 -0.44739730238E+02 -0.66635315066E+01  0.29977973529E+02  0.54426072896E+02  0.41800000000E+01 0.  1.
        -11    1    1    2    0    0  0.19125092030E+02  0.30319773304E+00  0.77023406754E+01  0.20620066098E+02  0.00000000000E+00 0.  1.
         11    1    1    2    0    0 -0.38753981819E+02 -0.18842897425E+02 -0.11165434484E+03  0.11968132107E+03  0.00000000000E+00 0. -1.
</event>
<event>
 6    1  0.6981059E-006  0.1128744E+03  0.7561462E-02  0.1255338E+00
         -1   -1    0    0    0  501 -0.00000000000E+00  0.00000000000E+00  0.57737926801E+02  0.57737926801E+02  0.00000000000E+00 0.  1.
          1   -1    0    0  501    0  0.00000000000E+00 -0.00000000000E+00 -0.24206616966E+03  0.24206616966E+03  0.00000000000E+00 0. -1.
          5    1    1    2  502    0  0.30630748535E+01  0.46313867097E+02 -0.38740625393E+02  0.60602517843E+02  0.41800000000E+01 0. -1.
         -5    1    1    2    0  502 -0.63328310217E+02 -0.49744604929E+02 -0.52656325992E+02  0.96307640722E+02  0.41800000000E+01 0.  1.
        -11    1    1    2    0    0 -0.19028234468E+02  0.26407451630E+01 -0.48115177140E+02  0.51808469512E+02  0.00000000000E+00 0. -1.
         11    1    1    2    0    0  0.79293469832E+02  0.78999266899E+00 -0.44816114331E+02  0.91085468381E+02  0.00000000000E+00 0.  1.
</event>
<event>
 6    1  0.6981059E-006  0.1278205E+03  0.7561462E-02  0.1230726E+00
          1   -1    0    0  501    0  0.00000000000E+00  0.00000000000E+00  0.10978787946E+03  0.10978787946E+03  0.00000000000E+00 0. -1.
         -1   -1    0    0    0  501 -0.00000000000E+00 -0.00000000000E+00 -0.19993119736E+03  0.19993119736E+03  0.00000000000E+00 0.  1.
          5    1    1    2  502    0 -0.66389223409E+02 -0.20139807615E+01 -0.92737394643E+02  0.11414587977E+03  0.41800000000E+01 0. -1.
         -5    1    1    2    0  502 -0.22629350097E+01  0.65153416628E+02  0.38332912962E+01  0.65438941735E+02  0.41800000000E+01 0. -1.
        -11    1    1    2    0    0  0.86489613164E+02 -0.42135963179E+02 -0.18006404556E+02  0.97878103697E+02  0.00000000000E+00 0.  1.
         11    1    1    2    0    0 -0.17837454745E+02 -0.21003472687E+02  0.16767190002E+02  0.32256151619E+02  0.00000000000E+00 0. -1.
</event>
<event>
 6    1  0.6981059E-006  0.2132692E+03  0.7561462E-02  0.1139003E+00
         -2   -1    0    0    0  501 -0.00000000000E+00  0.00000000000E+00  0.39228672970E+03  0.39228672970E+03  0.00000000000E+00 0.  1.
          2   -1    0    0  501    0  0.00000000000E+00 -0.00000000000E+00 -0.13466757506E+03  0.13466757506E+03  0.00000000000E+00 0. -1.
          5    1    1    2  502    0 -0.96839249104E+02  0.85878026316E+02  0.11610699111E+02  0.13001983043E+03  0.41800000000E+01 0.  1.
         -5    1    1    2    0  502 -0.33751354804E+02  0.69740990212E+02  0.11873818658E+03  0.14184212710E+03  0.41800000000E+01 0.  1.
        -11    1    1    2    0    0  0.11013447329E+03 -0.67920784166E+02  0.59667473804E+02  0.14248874538E+03  0.00000000000E+00 0.  1.
         11    1    1    2    0    0  0.20456130616E+02 -0.87698232361E+02  0.67602795141E+02  0.11260360185E+03  0.00000000000E+00 0. -1.
</event>
<event>
 6    1  0.6981059E-006  0.1039341E+03  0.7561462E-02  0.1272234E+00
          2   -1    0    0  501    0  0.00000000000E+00  0.00000000000E+00  0.75307672467E+03  0.75307672467E+03  0.00000000000E+00 0. -1.
         -2   -1    0    0    0  501 -0.00000000000E+00 -0.00000000000E+00 -0.21517706643E+02  0.21517706643E+02  0.00000000000E+00 0.  1.
          5    1    1    2  502    0  0.18331330448E+02  0.27844547909E+02  0.14443384192E+03  0.14829013324E+03  0.41800000000E+01 0. -1.
         -5    1    1    2    0  502  0.16585072718E+02 -0.67090792221E+02  0.69900321247E+02  0.98385803592E+02  0.41800000000E+01 0.  1.
        -11    1    1    2    0    0 -0.64826002428E+02  0.15019799156E+02  0.29787087945E+03  0.30521314811E+03  0.00000000000E+00 0. -1.
         11    1    1    2    0    0  0.29909599262E+02  0.24226445157E+02  0.21935397541E+03  0.22270534637E+03  0.00000000000E+00 0.  1.
</event>
<event>
 6    1  0.6981059E-006  0.9244404E+02  0.7561462E-02  0.1297039E+00
          2   -1    0    0  501    0  0.00000000000E+00  0.00000000000E+00  0.55043415772E+03  0.55043415772E+03  0.00000000000E+00 0. -1.
         -2   -1    0    0    0  501 -0.00000000000E+00 -0.00000000000E+00 -0.28689419656E+02  0.28689419656E+02  0.00000000000E+00 0.  1.
          5    1    1    2  502    0 -0.74896451609E+02 -0.46158169056E+02  0.10485989609E+03  0.13694205067E+03  0.41800000000E+01 0. -1.
         -5    1    1    2    0  502  0.19737666866E+02  0.17265360452E+02  0.16328638739E+03  0.16543151113E+03  0.41800000000E+01 0. -1.
        -11    1    1    2    0    0  0.30842581971E+02  0.33469699720E+02  0.24697768518E+03  0.25113634273E+03  0.00000000000E+00 0. -1.
         11    1    1    2    0    0  0.24316202772E+02 -0.45768911158E+01  0.66207694013E+01  0.25613672852E+02  0.00000000000E+00 0.  1.
</event>
<event>
 6    1  0.6981059E-006  0.1172183E+03  0.7561462E-02  0.1247758E+00
          2   -1    0    0  501    0  0.00000000000E+00  0.00000000000E+00  0.10123338828E+04  0.10123338828E+04  0.00000000000E+00 0. -1.
         -2   -1    0    0    0  501 -0.00000000000E+00 -0.00000000000E+00 -0.15001142997E+02  0.15001142997E+02  0.00000000000E+00 0.  1.
          5    1    1    2  502    0 -0.26099193831E+02 -0.91391424882E+02  0.30755421023E+03  0.32193264061E+03  0.41800000000E+01 0. -1.
         -5    1    1    2    0  502  0.24006139315E+01  0.39909124201E+02  0.19138129931E+03  0.19555760089E+03  0.41800000000E+01 0. -1.
        -11    1    1    2    0    0  0.29501447156E+01 -0.22280540155E+02  0.48316674379E+02  0.53288149212E+02  0.00000000000E+00 0.  1.
         11    1    1    2    0    0  0.20748435184E+02  0.73762840836E+02  0.45008055588E+03  0.45655663507E+03  0.00000000000E+00 0. -1.
</event>
<event>
 6    1  0.6981059E-006  0.6906274E+02  0.7561462E-02  0.1363310E+00
         -2   -1    0    0    0  501 -0.00000000000E+00  0.00000000000E+00  0.11769789442E+03  0.11769789442E+03  0.00000000000E+00 0. -1.
          2   -1    0    0  501    0  0.00000000000E+00 -0.00000000000E+00 -0.10494375077E+03  0.10494375077E+03  0.00000000000E+00 0.  1.
          5    1    1    2  502    0  0.62782710390E+02  0.88949663863E+01 -0.22506001144E+02  0.67414995650E+02  0.41800000000E+01 0.  1.
         -5    1    1    2    0  502 -0.42304652928E+02 -0.14130609744E+02  0.41118494858E+02  0.60807571983E+02  0.41800000000E+01 0.  1.
        -11    1    1    2    0    0 -0.12830180235E+02 -0.75465677127E+01 -0.47719295983E+02  0.49986952480E+02  0.00000000000E+00 0.  1.
         11    1    1    2    0    0 -0.76478772269E+01  0.12782211070E+02  0.41860945915E+02  0.44432125076E+02  0.00000000000E+00 0. -1.
</event>
<event>
 6    1  0.6981059E-006  0.1420207E+03  0.7561462E-02  0.1210636E+00
         -3   -1    0    0    0  501 -0.00000000000E+00  0.00000000000E+00  0.17764535451E+03  0.17764535451E+03  0.00000000000E+00 0.  1.
          3   -1    0    0  501    0  0.00000000000E+00 -0.00000000000E+00 -0.17043278931E+03  0.17043278931E+03  0.00000000000E+00 0. -1.
          5    1    1    2  502    0 -0.71341544929E+02 -0.11787506794E+03  0.77008252912E+02  0.15789835684E+03  0.41800000000E+01 0.  1.
         -5    1    1    2    0  502  0.25893927454E+02  0.10038377185E+02 -0.38859058291E+01  0.28352022143E+02  0.41800000000E+01 0.  1.
        -11    1    1    2    0    0  0.43245863627E+02  0.86977435645E+02 -0.88211637469E+02  0.13121193550E+03  0.00000000000E+00 0. -1.
         11    1    1    2    0    0  0.22017538478E+01  0.20859255112E+02  0.22301855582E+02  0.30615829341E+02  0.00000000000E+00 0.  1.
</event>
<event>
 6    1  0.6981059E-006  0.8469246E+02  0.7561462E-02  0.1316239E+00
         -1   -1    0    0    0  501 -0.00000000000E+00  0.00000000000E+00  0.57783954302E+03  0.57783954302E+03  0.00000000000E+00 0.  1.
          1   -1    0    0  501    0  0.00000000000E+00 -0.00000000000E+00 -0.77867000474E+02  0.77867000474E+02  0.00000000000E+00 0. -1.
          5    1    1    2  502    0 -0.18538639233E+01  0.73668094435E+01  0.39043340780E+03  0.39052967239E+03  0.41800000000E+01 0. -1.
         -5    1    1    2    0  502 -0.71205705497E+02  0.22175751168E+02  0.12413312917E+03  0.14487416124E+03  0.41800000000E+01 0. -1.
        -11    1    1    2    0    0  0.37940394301E+02  0.31062240468E+01 -0.48441297980E+02  0.61609102391E+02  0.00000000000E+00 0. -1.
         11    1    1    2    0    0  0.35119175120E+02 -0.32648784658E+02  0.33847303555E+02  0.58693607478E+02  0.00000000000E+00 0.  1.
</event>
<event>
 6    1  0.6981059E-006  0.9631224E+02  0.7561462E-02  0.1288248E+00
          2   -1    0    0  501    0  0.00000000000E+00  0.00000000000E+00  0.67723783128E+02  0.67723783128E+02  0.00000000000E+00 0. -1.
         -2   -1    0    0    0  501 -0.00000000000E+00 -0.00000000000E+00 -0.20408588622E+03  0.20408588622E+03  0.00000000000E+00 0.  1.
          5    1    1    2  502    0 -0.18253866695E+02 -0.50909183349E+02 -0.61569600404E-01  0.54244122165E+02  0.41800000000E+01 0. -1.
         -5    1    1    2    0  502 -0.27759768211E+02  0.47806655523E+02 -0.93255940837E+02  0.10849066294E+03  0.41800000000E+01 0. -1.
        -11    1    1    2    0    0  0.63918615421E+02  0.78979925425E+01 -0.24531053372E+01  0.64451418987E+02  0.00000000000E+00 0. -1.
         11    1    1    2    0    0 -0.17904980515E+02 -0.47954647159E+01 -0.40591487321E+02  0.44623465262E+02  0.00000000000E+00 0.  1.
</event>
<event>
 6    1  0.6981059E-006  0.2061047E+03  0.7561462E-02  0.1144688E+00
         -1   -1    0    0    0  501 -0.00000000000E+00  0.00000000000E+00  0.83152755216E+03  0.83152755216E+03  0.00000000000E+00 0.  1.
          1   -1    0    0  501    0  0.00000000000E+00 -0.00000000000E+00 -0.56962294639E+02  0.56962294639E+02  0.00000000000E+00 0. -1.
          5    1    1    2  502    0 -0.67522270051E+02 -0.92082105031E+00  0.18878612052E+03  0.20054370238E+03  0.41800000000E+01 0. -1.
         -5    1    1    2    0  502 -0.36933314179E+02  0.14358858543E+03  0.34750201824E+03  0.37783181000E+03  0.41800000000E+01 0. -1.
        -11    1    1    2    0    0  0.10214025472E+03 -0.70692474648E+02  0.17258678095E+03  0.21264114034E+03  0.00000000000E+00 0.  1.
         11    1    1    2    0    0  0.23153295066E+01 -0.71975289732E+02  0.65690337810E+02  0.97473194081E+02  0.00000000000E+00 0. -1.
</event>
<event>
 6    1  0.6981059E-006  0.1362870E+03  0.7561462E-02  0.1218414E+00
         -1   -1    0    0    0  501 -0.00000000000E+00  0.00000000000E+00  0.54075004127E+02  0.54075004127E+02  0.00000000000E+00 0.  1.
          1   -1    0    0  501    0  0.00000000000E+00 -0.00000000000E+00 -0.57557197534E+03  0.57557197534E+03  0.00000000000E+00 0. -1.
          5    1    1    2  502    0 -0.28161431053E+02 -0.16185636026E+02  0.69943633737E+01  0.33487826617E+02  0.41800000000E+01 0. -1.
         -5    1    1    2    0  502  0.12253296603E+01  0.11069118265E+03 -0.10944710206E+03  0.15572469264E+03  0.41800000000E+01 0. -1.
        -11    1    1    2    0    0  0.57241014565E+02 -0.66995580930E+02 -0.34227524621E+03  0.35343639567E+03  0.00000000000E+00 0.  1.
         11    1    1    2    0    0 -0.30304913172E+02 -0.27509965691E+02 -0.76768986308E+02  0.86998064538E+02  0.00000000000E+00 0. -1.
</event>
<event>
 6    1  0.6981059E-006  0.1058243E+03  0.7561462E-02  0.1268504E+00
          1   -1    0    0  501    0  0.00000000000E+00  0.00000000000E+00  0.14700023454E+02  0.14700023454E+02  0.00000000000E+00 0. -1.
         -1   -1    0    0    0  501 -0.00000000000E+00 -0.00000000000E+00 -0.18208159951E+04  0.18208159951E+04  0.00000000000E+00 0.  1.
          5    1    1    2  502    0 -0.44579367779E+02  0.86857874970E+01 -0.76123894234E+03  0.76260406678E+03  0.41800000000E+01 0. -1.
         -5    1    1    2    0  502  0.71997810067E+02  0.15953418446E+02 -0.85947023035E+03  0.86263824716E+03  0.41800000000E+01 0.  1.
        -11    1    1    2    0    0  0.28917290987E+02  0.36327386551E+01 -0.99777405448E+02  0.10394679960E+03  0.00000000000E+00 0.  1.
         11    1    1    2    0    0 -0.56335733275E+02 -0.28271944598E+02 -0.85629393461E+02  0.10632690497E+03  0.00000000000E+00 0. -1.
</event>
<event>
 6    1  0.6981059E-006  0.1442127E+03  0.7561462E-02  0.1207770E+00
         -2   -1    0    0    0  501 -0.00000000000E+00  0.00000000000E+00  0.58598690297E+02  0.58598690297E+02  0.00000000000E+00 0.  1.
          2   -1    0    0  501    0  0.00000000000E+00 -0.00000000000E+00 -0.45619817605E+03  0.45619817605E+03  0.00000000000E+00 0. -1.
          5    1    1    2  502    0 -0.61124733757E+02 -0.24856954959E+02 -0.13259463999E+02  0.67434316725E+02  0.41800000000E+01 0.  1.
         -5    1    1    2    0  502  0.30149199058E+02 -0.78894155090E+02 -0.11067498323E+03  0.13928275638E+03  0.41800000000E+01 0.  1.
        -11    1    1    2    0    0  0.44939889125E+02  0.11258409150E+03 -0.21170600646E+03  0.24395533293E+03  0.00000000000E+00 0.  1.
         11    1    1    2    0    0 -0.13964354427E+02 -0.88329814549E+01 -0.61959032069E+02  0.64124460316E+02  0.00000000000E+00 0. -1.
</event>
<event>
 6    1  0.6981059E-006  0.1691009E+03  0.7561462E-02  0.1178789E+00
         -2   -1    0    0    0  501 -0.00000000000E+00  0.00000000000E+00  0.79468509164E+03  0.79468509164E+03  0.00000000000E+00 0. -1.
          2   -1    0    0  501    0  0.00000000000E+00 -0.00000000000E+00 -0.36942243346E+02  0.36942243346E+02  0.00000000000E+00 0.  1.
          5    1    1    2  502    0 -0.14020388104E+03 -0.22736148336E+02  0.38577763963E+03  0.41111545865E+03  0.41800000000E+01 0. -1.
         -5    1    1    2    0  502  0.20512606241E+02 -0.31470567676E+02  0.72421223514E+02  0.81691307126E+02  0.41800000000E+01 0. -1.
        -11    1    1    2    0    0 -0.12403215000E+02  0.17054733218E+02  0.37488331205E+02  0.43012540543E+02  0.00000000000E+00 0.  1.
         11    1    1    2    0    0  0.13209448980E+03  0.37151982794E+02  0.26205565394E+03  0.29580802867E+03  0.00000000000E+00 0. -1.
</event>
<event>
 6    1  0.6981059E-006  0.1338644E+03  0.7561462E-02  0.1221832E+00
          1   -1    0    0  501    0  0.00000000000E+00  0.00000000000E+00  0.19579335717E+03  0.19579335717E+03  0.00000000000E+00 0. -1.
         -1   -1    0    0    0  501 -0.00000000000E+00 -0.00000000000E+00 -0.11245261562E+03  0.11245261562E+03  0.00000000000E+00 0.  1.
          5    1    1    2  502    0  0.91264662839E+02 -0.30150280964E+02 -0.70727977982E+01  0.96466444912E+02  0.41800000000E+01 0. -1.
         -5    1    1    2    0  502 -0.40858162207E+02 -0.30740997259E+02 -0.12549121460E+02  0.52814308486E+02  0.41800000000E+01 0. -1.
        -11    1    1    2    0    0 -0.48274887235E+00  0.69549519743E+02  0.68969607794E+02  0.97949862390E+02  0.00000000000E+00 0.  1.
         11    1    1    2    0    0 -0.49923751760E+02 -0.86582415213E+01  0.33993053021E+02  0.61015356999E+02  0.00000000000E+00 0. -1.
</event>
<event>
 6    1  0.6981059E-006  0.9387582E+02  0.7561462E-02  0.1293728E+00
         -2   -1    0    0    0  501 -0.00000000000E+00  0.00000000000E+00  0.39389435214E+02  0.39389435214E+02  0.00000000000E+00 0.  1.
          2   -1    0    0  501    0  0.00000000000E+00 -0.00000000000E+00 -0.43442511582E+03  0.43442511582E+03  0.00000000000E+00 0. -1.
          5    1    1    2  502    0 -0.83573832033E+01  0.16649900092E+02  0.42832721016E+01  0.19567417995E+02  0.41800000000E+01 0.  1.
         -5    1    1    2    0  502 -0.22015913257E+02 -0.74885267855E+02 -0.27376956508E+03  0.28470994177E+03  0.41800000000E+01 0.  1.
        -11    1    1    2    0    0 -0.29986913806E+01 -0.12193663374E+02  0.80155403431E+01  0.14897196497E+02  0.00000000000E+00 0.  1.
         11    1    1    2    0    0  0.33371987841E+02  0.70429031136E+02 -0.13356492797E+03  0.15463999477E+03  0.00000000000E+00 0. -1.
</event>
<event>
 6    1  0.6981059E-006  0.1031921E+03  0.7561462E-02  0.1273723E+00
         -2   -1    0    0    0  501 -0.00000000000E+00  0.00000000000E+00  0.51612659489E+02  0.51612659489E+02  0.00000000000E+00 0.  1.
          2   -1    0    0  501    0  0.00000000000E+00 -0.00000000000E+00 -0.33104504776E+03  0.33104504776E+03  0.00000000000E+00 0. -1.
          5    1    1    2  502    0  0.27076078247E+02  0.10232722570E+02  0.10904745108E+02  0.31212313120E+02  0.41800000000E+01 0.  1.
         -5    1    1    2    0  502 -0.55479357943E+02  0.53426854940E+02 -0.14830905273E+03  0.16716888319E+03  0.41800000000E+01 0.  1.
        -11    1    1    2    0    0 -0.45345220012E+00 -0.70374372353E+02 -0.13728406692E+03  0.15427142617E+03  0.00000000000E+00 0. -1.
         11    1    1    2    0    0  0.28856731896E+02  0.67147948428E+01 -0.47440137294E+01  0.30005084765E+02  0.00000000000E+00 0.  1.
</event>
<event>
 6    1  0.6981059E-006  0.1503251E+03  0.7561462E-02  0.1200074E+00
         -2   -1    0    0    0  501 -0.00000000000E+00  0.00000000000E+00  0.26546174402E+02  0.26546174402E+02  0.00000000000E+00 0.  1.
          2   -1    0    0  501    0  0.00000000000E+00 -0.00000000000E+00 -0.91641022312E+03  0.91641022312E+03  0.00000000000E+00 0. -1.
          5    1    1    2  502    0  0.45919454390E+02  0.82391472521E+02 -0.31535357000E+03  0.32918429116E+03  0.41800000000E+01 0.  1.
         -5    1    1    2    0  502 -0.61711496565E+02  0.31215041470E+02 -0.12806733303E+03  0.14560701155E+03  0.41800000000E+01 0.  1.
        -11    1    1    2    0    0 -0.25743434335E+02 -0.78345522308E+02 -0.21201295052E+03  0.22748678306E+03  0.00000000000E+00 0.  1.
         11    1    1    2    0    0  0.41535476510E+02 -0.35260991683E+02 -0.23443019518E+03  0.24067831177E+03  0.00000000000E+00 0. -1.
</event>
<event>
 6    1  0.6981059E-006  0.1497448E+03  0.7561462E-02  0.1200787E+00
         -2   -1    0    0    0  501 -0.00000000000E+00  0.00000000000E+00  0.29846825631E+02  0.29846825631E+02  0.00000000000E+00 0.  1.
          2   -1    0    0  501    0  0.00000000000E+00 -0.00000000000E+00 -0.10183129138E+04  0.10183129138E+04  0.00000000000E+00 0. -1.
          5    1    1    2  502    0 -0.28128316983E+02 -0.40594887737E+02 -0.91606530421E+02  0.10415553726E+03  0.41800000000E+01 0. -1.
         -5    1    1    2    0  502  0.91423700522E+02 -0.73879405383E+02 -0.55356554236E+03  0.56592291139E+03  0.41800000000E+01 0. -1.
        -11    1    1    2    0    0 -0.17106792777E+02  0.51101110983E+02 -0.25215379016E+03  0.25784782294E+03  0.00000000000E+00 0. -1.
         11    1    1    2    0    0 -0.46188590761E+02  0.63373182137E+02 -0.91140225212E+02  0.12023346781E+03  0.00000000000E+00 0.  1.
</event>
<event>
 6    1  0.6981059E-006  0.1462231E+03  0.7561462E-02  0.1205192E+00
         -1   -1    0    0    0  501 -0.00000000000E+00  0.00000000000E+00  0.11165487398E+03  0.11165487398E+03  0.00000000000E+00 0.  1.
          1   -1    0    0  501    0  0.00000000000E+00 -0.00000000000E+00 -0.30459196894E+03  0.30459196894E+03  0.00000000000E+00 0. -1.
          5    1    1    2  502    0  0.89015825986E+02  0.37502899542E+02  0.33771701249E+02  0.10241232814E+03  0.41800000000E+01 0. -1.
         -5    1    1    2    0  502 -0.98526281205E+02 -0.65598219037E+02 -0.86302999086E+02  0.14654772083E+03  0.41800000000E+01 0.  1.
        -11    1    1    2    0    0  0.19069669687E+02  0.49951188058E+02 -0.13127184726E+03  0.14174297646E+03  0.00000000000E+00 0. -1.
         11    1    1    2    0    0 -0.95592144674E+01 -0.21855868562E+02 -0.91339498616E+01  0.25543817489E+02  0.00000000000E+00 0.  1.
</event>
<event>
 6    1  0.6981059E-006  0.1374812E+03  0.7561462E-02  0.1216759E+00
         -1   -1    0    0    0  501 -0.00000000000E+00  0.00000000000E+00  0.35252272357E+02  0.35252272357E+02  0.00000000000E+00 0.  1.
          1   -1    0    0  501    0  0.00000000000E+00 -0.00000000000E+00 -0.85346087656E+03  0.85346087656E+03  0.00000000000E+00 0. -1.
          5    1    1    2  502    0 -0.21228756932E+02 -0.18177586144E+02  0.30051609598E+01  0.28418095490E+02  0.41800000000E+01 0.  1.
         -5    1    1    2    0  502 -0.86528434499E+02 -0.55092247952E+02 -0.32438244769E+03  0.34024075378E+03  0.41800000000E+01 0.  1.
        -11    1    1    2    0    0  0.79205684695E+02  0.17100499257E+02 -0.18573570734E+03  0.20264185289E+03  0.00000000000E+00 0.  1.
         11    1    1    2    0    0  0.28551506736E+02  0.56169334838E+02 -0.31109561013E+03  0.31741244676E+03  0.00000000000E+00 0. -1.
</event>
<event>
 6    1  0.6981059E-006  0.1233121E+03  0.7561462E-02  0.1237731E+00
          2   -1    0    0  501    0  0.00000000000E+00  0.00000000000E+00  0.43340278440E+03  0.43340278440E+03  0.00000000000E+00 0. -1.
         -2   -1    0    0    0  501 -0.00000000000E+00 -0.00000000000E+00 -0.47003812401E+02  0.47003812401E+02  0.00000000000E+00 0.  1.
          5    1    1    2  502    0 -0.40279246209E+02 -0.15040266463E+02  0.75709310620E+01  0.43856797507E+02  0.41800000000E+01 0.  1.
         -5    1    1    2    0  502  0.78036254773E+02 -0.55350244049E+02  0.10731306842E+03  0.14382932117E+03  0.41800000000E+01 0.  1.
        -11    1    1    2    0    0 -0.56984952951E+02  0.33609552540E+02  0.14066859569E+03  0.15544947957E+03  0.00000000000E+00 0.  1.
         11    1    1    2    0    0  0.19227944386E+02  0.36780957972E+02  0.13084637682E+03  0.13727099855E+03  0.00000000000E+00 0. -1.
</event>
<event>
 6    1  0.6981059E-006  0.9372319E+02  0.7561462E-02  0.1294078E+00
          2   -1    0    0  501    0  0.00000000000E+00  0.00000000000E+00  0.32132341292E+03  0.32132341292E+03  0.00000000000E+00 0.  1.
         -2   -1    0    0    0  501 -0.00000000000E+00 -0.00000000000E+00 -0.44209951288E+02  0.44209951288E+02  0.00000000000E+00 0. -1.
          5    1    1    2  502    0  0.67183951872E+02 -0.18142454707E+02  0.23442103856E+02  0.73551591996E+02  0.41800000000E+01 0. -1.
         -5    1    1    2    0  502 -0.31838887210E+02  0.14435002261E+02  0.98949909732E+02  0.10502685878E+03  0.41800000000E+01 0. -1.
        -11    1    1    2    0    0  0.20073507549E+02  0.16104170294E+02  0.11452315981E+03  0.11737906176E+03  0.00000000000E+00 0.  1.
         11    1    1    2    0    0 -0.55418572211E+02 -0.12396717849E+02  0.40198288235E+02  0.69575851675E+02  0.00000000000E+00 0. -1.
</event>
<event>
 6    1  0.6981059E-006  0.1794141E+03  0.7561462E-02  0.1168371E+00
          1   -1    0    0  501    0  0.00000000000E+00  0.00000000000E+00  0.56137666896E+02  0.56137666896E+02  0.00000000000E+00 0. -1.
         -1   -1    0    0    0  501 -0.00000000000E+00 -0.00000000000E+00 -0.75772918873E+03  0.75772918873E+03  0.00000000000E+00 0.  1.
          5    1    1    2  502    0 -0.57892940252E+02 -0.61301978857E+02 -0.56829271731E+02  0.10176720330E+03  0.41800000000E+01 0.  1.
         -5    1    1    2    0  502 -0.57274013237E+02 -0.70367238169E+02 -0.31438381969E+03  0.32724076654E+03  0.41800000000E+01 0.  1.
        -11    1    1    2    0    0  0.56306752322E+02  0.24698455258E+02 -0.18533362129E+03  0.19526652358E+03  0.00000000000E+00 0.  1.
         11    1    1    2    0    0  0.58860201167E+02  0.10697076177E+03 -0.14504480912E+03  0.18959236221E+03  0.00000000000E+00 0. -1.
</event>
<event>
 6    1  0.6981059E-006  0.2645718E+03  0.7561462E-02  0.1104427E+00
          2   -1    0    0  501    0  0.00000000000E+00  0.00000000000E+00  0.69516665737E+03  0.69516665737E+03  0.00000000000E+00 0. -1.
         -2   -1    0    0    0  501 -0.00000000000E+00 -0.00000000000E+00 -0.11572128899E+03  0.11572128899E+03  0.00000000000E+00 0.  1.
          5    1    1    2  502    0 -0.10696389852E+03 -0.26702874947E+02  0.90754644011E+02  0.14285726067E+03  0.41800000000E+01 0.  1.
         -5    1    1    2    0  502 -0.65102192413E+02 -0.15279670882E+03  0.88963087056E+02  0.18845963213E+03  0.41800000000E+01 0.  1.
        -11    1    1    2    0    0  0.26677825532E+02  0.55551867381E+02  0.16974139871E+03  0.18058200016E+03  0.00000000000E+00 0. -1.
         11    1    1    2    0    0  0.14538826540E+03  0.12394771638E+03  0.22998623860E+03  0.29898905341E+03  0.00000000000E+00 0.  1.
</event>
<event>
 6    1  0.6981059E-006  0.1198736E+03  0.7561462E-02  0.1243306E+00
         -2   -1    0    0    0  501 -0.00000000000E+00  0.00000000000E+00  0.12638156771E+03  0.12638156771E+03  0.00000000000E+00 0.  1.
          2   -1    0    0  501    0  0.00000000000E+00 -0.00000000000E+00 -0.20805706507E+03  0.20805706507E+03  0.00000000000E+00 0. -1.
          5    1    1    2  502    0 -0.65779085283E+02  0.77933873205E+01 -0.15444489514E+00  0.66371087078E+02  0.41800000000E+01 0. -1.
         -5    1    1    2    0  502  0.60230043480E+02  0.50105116130E+02  0.53623860877E+02  0.95032476845E+02  0.41800000000E+01 0.  1.
        -11    1    1    2    0    0  0.25132258488E+02  0.78385033527E+01 -0.82414369213E+02  0.86517054991E+02  0.00000000000E+00 0.  1.
         11    1    1    2    0    0 -0.19583216685E+02 -0.65737006803E+02 -0.52730544128E+02  0.86518013865E+02  0.00000000000E+00 0. -1.
</event>
<event>
 6    1  0.6981059E-006  0.1010343E+03  0.7561462E-02  0.1278136E+00
          3   -1    0    0  501    0  0.00000000000E+00  0.00000000000E+00  0.59037414018E+02  0.59037414018E+02  0.00000000000E+00 0. -1.
         -3   -1    0    0    0  501 -0.00000000000E+00 -0.00000000000E+00 -0.32272353008E+03  0.32272353008E+03  0.00000000000E+00 0.  1.
          5    1    1    2  502    0 -0.79163991903E+02  0.47133697103E+02 -0.14012033272E+03  0.16774892863E+03  0.41800000000E+01 0.  1.
         -5    1    1    2    0  502  0.12291019421E+02  0.95678715722E+00  0.20260288798E+02  0.24081866669E+02  0.41800000000E+01 0.  1.
        -11    1    1    2    0    0  0.10412758883E+02 -0.38085372556E+02 -0.12257803656E+03  0.12878003027E+03  0.00000000000E+00 0.  1.
         11    1    1    2    0    0  0.56460213599E+02 -0.10005111704E+02 -0.21248035591E+02  0.61150118530E+02  0.00000000000E+00 0. -1.
</event>
<event>
 6    1  0.6981059E-006  0.1781785E+03  0.7561462E-02  0.1169578E+00
         -1   -1    0    0    0  501 -0.00000000000E+00  0.00000000000E+00  0.47414717252E+03  0.47414717252E+03  0.00000000000E+00 0.  1.
          1   -1    0    0  501    0  0.00000000000E+00 -0.00000000000E+00 -0.71131342009E+02  0.71131342009E+02  0.00000000000E+00 0. -1.
          5    1    1    2  502    0  0.13341147541E+02  0.48049606863E+02  0.91634899060E+02  0.10440870684E+03  0.41800000000E+01 0. -1.
         -5    1    1    2    0  502  0.12889275514E+03 -0.48915198446E+02  0.18072686748E+03  0.22734491856E+03  0.41800000000E+01 0. -1.
        -11    1    1    2    0    0 -0.61567481812E+02  0.45166670158E+02  0.67429745090E+02  0.10186929583E+03  0.00000000000E+00 0. -1.
         11    1    1    2    0    0 -0.80666420867E+02 -0.44301078575E+02  0.63224318886E+02  0.11165559331E+03  0.00000000000E+00 0.  1.
</event>
<event>
 6    1  0.6981059E-006  0.1466202E+03  0.7561462E-02  0.1204689E+00
          1   -1    0    0  501    0  0.00000000000E+00  0.00000000000E+00  0.47285127680E+03  0.47285127680E+03  0.00000000000E+00 0. -1.
         -1   -1    0    0    0  501 -0.00000000000E+00 -0.00000000000E+00 -0.50372858955E+02  0.50372858955E+02  0.00000000000E+00 0.  1.
          5    1    1    2  502    0  0.57134572929E+02  0.23550902613E+02  0.67296972225E+02  0.91462338196E+02  0.41800000000E+01 0.  1.
         -5    1    1    2    0  502  0.18505404399E+02 -0.10161681489E+03  0.13579269206E+03  0.17066210674E+03  0.41800000000E+01 0.  1.
        -11    1    1    2    0    0 -0.43742968092E+02  0.84718622826E+02  0.10352406113E+03  0.14074062506E+03  0.00000000000E+00 0.  1.
         11    1    1    2    0    0 -0.31897009235E+02 -0.66527105456E+01  0.11586469243E+03  0.12035906575E+03  0.00000000000E+00 0. -1.
</event>
<event>
 6    1  0.6981059E-006  0.1839047E+03  0.7561462E-02  0.1164077E+00
          2   -1    0    0  501    0  0.00000000000E+00  0.00000000000E+00  0.14206879131E+04  0.14206879131E+04  0.00000000000E+00 0. -1.
         -2   -1    0    0    0  501 -0.00000000000E+00 -0.00000000000E+00 -0.26176664405E+02  0.26176664405E+02  0.00000000000E+00 0.  1.
          5    1    1    2  502    0 -0.38999093344E+01 -0.28451561747E+02  0.85268336936E+02  0.90071429113E+02  0.41800000000E+01 0.  1.
         -5    1    1    2    0  502 -0.12731823702E+03  0.11565854600E+03  0.55443176161E+03  0.58051604924E+03  0.41800000000E+01 0.  1.
        -11    1    1    2    0    0  0.46313416113E+02 -0.18707723888E+01  0.96553310905E+02  0.10710263371E+03  0.00000000000E+00 0.  1.
         11    1    1    2    0    0  0.84904730246E+02 -0.85336211862E+02  0.65825783922E+03  0.66917446541E+03  0.00000000000E+00 0. -1.
</event>
<event>
 6    1  0.1307056E-005  0.1433144E+03  0.7561462E-02  0.1208937E+00
          1   -1    0    0  501    0  0.00000000000E+00  0.00000000000E+00  0.20213065060E+03  0.20213065060E+03  0.00000000000E+00 0. -1.
         -1   -1    0    0    0  501 -0.00000000000E+00 -0.00000000000E+00 -0.13740099926E+03  0.13740099926E+03  0.00000000000E+00 0.  1.
          5    1    1    2  502    0 -0.35823414428E+02 -0.19791739828E+02  0.44239656411E+02  0.60412329752E+02  0.41800000000E+01 0.  1.
         -5    1    1    2    0  502 -0.60205287960E+02  0.10144151125E+03 -0.16979126637E+02  0.11925107985E+03  0.41800000000E+01 0.  1.
        -11    1    1    2    0    0  0.56490460880E+02 -0.59864433867E+02 -0.22006342961E+02  0.85200949192E+02  0.00000000000E+00 0.  1.
         11    1    1    2    0    0  0.39538241507E+02 -0.21785337558E+02  0.59475464529E+02  0.74667291065E+02  0.00000000000E+00 0. -1.
</event>
<event>
 6    1  0.6981059E-006  0.8001808E+02  0.7561462E-02  0.1329000E+00
          1   -1    0    0  501    0  0.00000000000E+00  0.00000000000E+00  0.31118267517E+03  0.31118267517E+03  0.00000000000E+00 0. -1.
         -1   -1    0    0    0  501 -0.00000000000E+00 -0.00000000000E+00 -0.39789465304E+02  0.39789465304E+02  0.00000000000E+00 0.  1.
          5    1    1    2  502    0  0.53105140762E+01  0.50384787482E+02  0.34638986528E+02  0.61515527772E+02  0.41800000000E+01 0. -1.
         -5    1    1    2    0  502 -0.57156940706E+01 -0.72075162096E+02  0.10119078477E+03  0.12443691362E+03  0.41800000000E+01 0. -1.
        -11    1    1    2    0    0 -0.10643678935E+02 -0.18224369612E+01 -0.11443913438E+02  0.15734431433E+02  0.00000000000E+00 0.  1.
         11    1    1    2    0    0  0.11048858930E+02  0.23512811576E+02  0.14700735201E+03  0.14928526764E+03  0.00000000000E+00 0. -1.
</event>
<event>
 6    1  0.6981059E-006  0.8986780E+02  0.7561462E-02  0.1303172E+00
         -3   -1    0    0    0  501 -0.00000000000E+00  0.00000000000E+00  0.62176840768E+02  0.62176840768E+02  0.00000000000E+00 0.  1.
          3   -1    0    0  501    0  0.00000000000E+00 -0.00000000000E+00 -0.28203138191E+03  0.28203138191E+03  0.00000000000E+00 0. -1.
          5    1    1    2  502    0  0.74477455635E+01  0.31371577748E+02  0.34879181808E+02  0.47683063324E+02  0.41800000000E+01 0. -1.
         -5    1    1    2    0  502 -0.26147442667E+02  0.26030121913E+02 -0.98175266330E+02  0.10496242815E+03  0.41800000000E+01 0. -1.
        -11    1    1    2    0    0 -0.25880500875E+02  0.11261999695E+02 -0.46490002127E+02  0.54387068872E+02  0.00000000000E+00 0. -1.
         11    1    1    2    0    0  0.44580197978E+02 -0.68663699356E+02 -0.11006845449E+03  0.13717566233E+03  0.00000000000E+00 0.  1.
</event>
<event>
 6    1  0.6981059E-006  0.1729294E+03  0.7561462E-02  0.1174827E+00
          2   -1    0    0  501    0  0.00000000000E+00  0.00000000000E+00  0.92838799263E+03  0.92838799263E+03  0.00000000000E+00 0. -1.
         -2   -1    0    0    0  501 -0.00000000000E+00 -0.00000000000E+00 -0.37873512470E+02  0.37873512470E+02  0.00000000000E+00 0.  1.
          5    1    1    2  502    0  0.36908369754E+02 -0.34030666702E+02  0.58531320676E+02  0.77225008476E+02  0.41800000000E+01 0. -1.
         -5    1    1    2    0  502 -0.99413454487E+02 -0.88935595634E+02  0.24045989848E+03  0.27501092756E+03  0.41800000000E+01 0. -1.
        -11    1    1    2    0    0  0.63084107069E+02  0.31412085397E+02  0.20384697360E+03  0.21568475218E+03  0.00000000000E+00 0.  1.
         11    1    1    2    0    0 -0.57902233524E+00  0.91554176939E+02  0.38767628741E+03  0.39834081689E+03  0.00000000000E+00 0. -1.
</event>
<event>
 6    1  0.6981059E-006  0.1889434E+03  0.7561462E-02  0.1159418E+00
          3   -1    0    0  501    0  0.00000000000E+00  0.00000000000E+00  0.24416623358E+02  0.24416623358E+02  0.00000000000E+00 0. -1.
         -3   -1    0    0    0  501 -0.00000000000E+00 -0.00000000000E+00 -0.18562784200E+04  0.18562784200E+04  0.00000000000E+00 0.  1.
          5    1    1    2  502    0 -0.10058211379E+03  0.10788053550E+03 -0.90725460152E+03  0.91917536734E+03  0.41800000000E+01 0. -1.
         -5    1    1    2    0  502  0.35479757401E+02  0.32301384907E+02 -0.44937531753E+03  0.45194893634E+03  0.41800000000E+01 0. -1.
        -11    1    1    2    0    0 -0.25104348365E+02 -0.21205796266E+02 -0.61618110682E+02  0.69833413679E+02  0.00000000000E+00 0. -1.
         11    1    1    2    0    0  0.90206704752E+02 -0.11897612414E+03 -0.41361376692E+03  0.43973732601E+03  0.00000000000E+00 0.  1.
</event>
<event>
 6    1  0.6981059E-006  0.1103799E+03  0.7561462E-02  0.1259868E+00
          2   -1    0    0  501    0  0.00000000000E+00  0.00000000000E+00  0.66299590278E+03  0.66299590278E+03  0.00000000000E+00 0. -1.
         -2   -1    0    0    0  501 -0.00000000000E+00 -0.00000000000E+00 -0.22977762089E+02  0.22977762089E+02  0.00000000000E+00 0.  1.
          5    1    1    2  502    0  0.26417512950E+01 -0.39827967371E+02  0.26308494597E+03  0.26612855358E+03  0.41800000000E+01 0.  1.
         -5    1    1    2    0  502 -0.43752678485E+02  0.67786964637E+02  0.18826540982E+03  0.20486753375E+03  0.41800000000E+01 0.  1.
        -11    1    1    2    0    0  0.30099213997E+02 -0.59363465375E+02  0.98633506667E+02  0.11898971528E+03  0.00000000000E+00 0.  1.
         11    1    1    2    0    0  0.11011713192E+02  0.31404468109E+02  0.90034278227E+02  0.95987862256E+02  0.00000000000E+00 0. -1.
</event>
<event>
 6    1  0.6981059E-006  0.1230825E+03  0.7561462E-02  0.1238097E+00
          2   -1    0    0  501    0  0.00000000000E+00  0.00000000000E+00  0.11942051499E+04  0.11942051499E+04  0.00000000000E+00 0. -1.
         -2   -1    0    0    0  501 -0.00000000000E+00 -0.00000000000E+00 -0.15344952776E+02  0.15344952776E+02  0.00000000000E+00 0.  1.
          5    1    1    2  502    0 -0.64191286320E+02 -0.59403087169E+02  0.32205385061E+03  0.33374451770E+03  0.41800000000E+01 0.  1.
         -5    1    1    2    0  502  0.47123209421E+02 -0.18211461455E+02  0.41301078814E+03  0.41611012691E+03  0.41800000000E+01 0.  1.
        -11    1    1    2    0    0 -0.28299031371E+02  0.20355401571E+02  0.63427013905E+02  0.72375159016E+02  0.00000000000E+00 0.  1.
         11    1    1    2    0    0  0.45367108270E+02  0.57259147053E+02  0.38036854448E+03  0.38732029906E+03  0.00000000000E+00 0. -1.
</event>
<event>
 6    1  0.6981059E-006  0.1257648E+03  0.7561462E-02  0.1233879E+00
          1   -1    0    0  501    0  0.00000000000E+00  0.00000000000E+00  0.24216902743E+03  0.24216902743E+03  0.00000000000E+00 0. -1.
         -1   -1    0    0    0  501 -0.00000000000E+00 -0.00000000000E+00 -0.10232753669E+03  0.10232753669E+03  0.00000000000E+00 0.  1.
          5    1    1    2  502    0 -0.54936764096E+02  0.45086822704E+02 -0.32223330830E+02  0.78145281884E+02  0.41800000000E+01 0. -1.
         -5    1    1    2    0  502 -0.28017597982E+02  0.30627444229E+02  0.90725220659E+02  0.99857719783E+02  0.41800000000E+01 0. -1.
        -11    1    1    2    0    0  0.23236966625E+02 -0.75400374450E+02  0.70481798476E+02  0.10579629956E+03  0.00000000000E+00 0. -1.
         11    1    1    2    0    0  0.59717395453E+02 -0.31389248403E+00  0.10857802434E+02  0.60697262886E+02  0.00000000000E+00 0.  1.
</event>
<event>
 6    1  0.6981059E-006  0.7574883E+02  0.7561462E-02  0.1341568E+00
         -1   -1    0    0    0  501 -0.00000000000E+00  0.00000000000E+00  0.15312629270E+02  0.15312629270E+02  0.00000000000E+00 0.  1.
          1   -1    0    0  501    0  0.00000000000E+00 -0.00000000000E+00 -0.78455253546E+03  0.78455253546E+03  0.00000000000E+00 0. -1.
          5    1    1    2  502    0  0.18560779224E+02 -0.19848235800E+02 -0.38818634682E+03  0.38915879438E+03  0.41800000000E+01 0.  1.
         -5    1    1    2    0  502 -0.24582495309E+02  0.18270374053E+02 -0.17720894146E+02  0.35631560912E+02  0.41800000000E+01 0.  1.
        -11    1    1    2    0    0 -0.33167836672E+02  0.29966136912E+02 -0.17875137167E+03  0.18425560406E+03  0.00000000000E+00 0.  1.
         11    1    1    2    0    0  0.39189552757E+02 -0.28388275165E+02 -0.18458129356E+03  0.19081920538E+03  0.00000000000E+00 0. -1.
</event>
<event>
 6    1  0.6981059E-006  0.1088367E+03  0.7561462E-02  0.1262739E+00
         -1   -1    0    0    0  501 -0.00000000000E+00  0.00000000000E+00  0.63987105422E+02  0.63987105422E+02  0.00000000000E+00 0.  1.
          1   -1    0    0  501    0  0.00000000000E+00 -0.00000000000E+00 -0.22961667809E+03  0.22961667809E+03  0.00000000000E+00 0. -1.
          5    1    1    2  502    0 -0.23107910996E+02  0.66727599931E+02 -0.46392501964E+01  0.70891065626E+02  0.41800000000E+01 0. -1.
         -5    1    1    2    0  502  0.38704006507E+02 -0.35890888110E+02 -0.39954866316E+02  0.66332644387E+02  0.41800000000E+01 0. -1.
        -11    1    1    2    0    0 -0.18977134067E+01 -0.60909591747E+02 -0.53076976996E+02  0.80813025992E+02  0.00000000000E+00 0.  1.
         11    1    1    2    0    0 -0.13698382105E+02  0.30072879926E+02 -0.67958479155E+02  0.75567047503E+02  0.00000000000E+00 0. -1.
</event>
<event>
 6    1  0.6981059E-006  0.1052630E+03  0.7561462E-02  0.1269602E+00
          2   -1    0    0  501    0  0.00000000000E+00  0.00000000000E+00  0.48029756416E+03  0.48029756416E+03  0.00000000000E+00 0. -1.
         -2   -1    0    0    0  501 -0.00000000000E+00 -0.00000000000E+00 -0.32533491492E+02  0.32533491492E+02  0.00000000000E+00 0.  1.
          5    1    1    2  502    0 -0.32468025303E+02  0.58349997293E+02  0.85514439004E+02  0.10857755997E+03  0.41800000000E+01 0.  1.
         -5    1    1    2    0  502  0.60235149713E+01 -0.58975347971E+02  0.49203684859E+02  0.77154710839E+02  0.41800000000E+01 0.  1.
        -11    1    1    2    0    0  0.94528147845E+01  0.40108212100E+02  0.22922279646E+03  0.23289721939E+03  0.00000000000E+00 0. -1.
         11    1    1    2    0    0  0.16991695547E+02 -0.39482861422E+02  0.83823152346E+02  0.94201565448E+02  0.00000000000E+00 0.  1.
</event>
<event>
 6    1  0.6981059E-006  0.1042459E+03  0.7561462E-02  0.1271612E+00
          3   -1    0    0  501    0  0.00000000000E+00  0.00000000000E+00  0.27043527876E+03  0.27043527876E+03  0.00000000000E+00 0. -1.
         -3   -1    0    0    0  501 -0.00000000000E+00 -0.00000000000E+00 -0.54598768211E+02  0.54598768211E+02  0.00000000000E+00 0.  1.
          5    1    1    2  502    0 -0.23263705225E+02  0.44430699475E+02  0.18685459898E+02  0.53683385216E+02  0.41800000000E+01 0. -1.
         -5    1    1    2    0  502  0.55196845990E+01 -0.63448147518E+02  0.14659744787E+02  0.65486753307E+02  0.41800000000E+01 0.  1.
        -11    1    1    2    0    0  0.81614692704E+01 -0.36806281804E+02  0.87360240690E+02  0.95147903888E+02  0.00000000000E+00 0.  1.
         11    1    1    2    0    0  0.95825513554E+01  0.55823729846E+02  0.95131065170E+02  0.11071600456E+03  0.00000000000E+00 0. -1.
</event>
<event>
 6    1  0.6981059E-006  0.1264738E+03  0.7561462E-02  0.1232784E+00
          2   -1    0    0  501    0  0.00000000000E+00  0.00000000000E+00  0.66335819830E+03  0.66335819830E+03  0.00000000000E+00 0. -1.
         -2   -1    0    0    0  501 -0.00000000000E+00 -0.00000000000E+00 -0.29858121513E+02  0.29858121513E+02  0.00000000000E+00 0.  1.
          5    1    1    2  502    0 -0.49227926724E+02  0.22230978635E+02  0.40357792151E+02  0.67556117176E+02  0.41800000000E+01 0. -1.
         -5    1    1    2    0  502 -0.19374166366E+02 -0.72331404560E+02  0.23381590958E+03  0.24554947033E+03  0.41800000000E+01 0. -1.
        -11    1    1    2    0    0  0.35874471577E+02  0.74675929883E+02  0.23023284185E+03  0.24468476389E+03  0.00000000000E+00 0.  1.
         11    1    1    2    0    0  0.32727621514E+02 -0.24575503958E+02  0.12909353321E+03  0.13542596841E+03  0.00000000000E+00 0. -1.
</event>
<event>
 6    1  0.6981059E-006  0.3144402E+03  0.7561462E-02  0.1078237E+00
          2   -1    0    0  501    0  0.00000000000E+00  0.00000000000E+00  0.88160251169E+03  0.88160251169E+03  0.00000000000E+00 0. -1.
         -2   -1    0    0    0  501 -0.00000000000E+00 -0.00000000000E+00 -0.14193766063E+03  0.14193766063E+03  0.00000000000E+00 0.  1.
          5    1    1    2  502    0  0.29474885178E+03 -0.85109663909E+02  0.17514112994E+03  0.35328802458E+03  0.41800000000E+01 0. -1.
         -5    1    1    2    0  502 -0.57866211834E+01 -0.80768717400E+01 -0.96169731706E+01  0.14445740368E+02  0.41800000000E+01 0. -1.
        -11    1    1    2    0    0 -0.18891342380E+03  0.94485950571E+02  0.44368212536E+03  0.49139567043E+03  0.00000000000E+00 0. -1.
         11    1    1    2    0    0 -0.10004880679E+03 -0.12994149216E+01  0.13045856893E+03  0.16441073695E+03  0.00000000000E+00 0.  1.
</event>
<event>
 6    1  0.6981059E-006  0.1075572E+03  0.7561462E-02  0.1265162E+00
          2   -1    0    0  501    0  0.00000000000E+00  0.00000000000E+00  0.93762939006E+03  0.93762939006E+03  0.00000000000E+00 0. -1.
         -2   -1    0    0    0  501 -0.00000000000E+00 -0.00000000000E+00 -0.25914824744E+02  0.25914824744E+02  0.00000000000E+00 0.  1.
          5    1    1    2  502    0  0.64243480526E+02 -0.13767014591E+02  0.44687950576E+03  0.45170291182E+03  0.41800000000E+01 0. -1.
         -5    1    1    2    0  502 -0.56176939943E+02  0.58890277217E+01  0.24257657581E+02  0.61615221985E+02  0.41800000000E+01 0.  1.
        -11    1    1    2    0    0 -0.48558127715E+02 -0.78745860725E+01  0.22524035311E+03  0.23054959888E+03  0.00000000000E+00 0.  1.
         11    1    1    2    0    0  0.40491587133E+02  0.15752572942E+02  0.21533704886E+03  0.21967648212E+03  0.00000000000E+00 0. -1.
</event>
<event>
 6    1  0.6981059E-006  0.1778423E+03  0.7561462E-02  0.1169908E+00
         -4   -1    0    0    0  501 -0.00000000000E+00  0.00000000000E+00  0.80501242799E+02  0.80501242799E+02  0.00000000000E+00 0.  1.
          4   -1    0    0  501    0  0.00000000000E+00 -0.00000000000E+00 -0.60582462326E+03  0.60582462326E+03  0.00000000000E+00 0. -1.
          5    1    1    2  502    0  0.13852379271E+03  0.68115092102E+02 -0.15377597061E+03  0.21792895277E+03  0.41800000000E+01 0.  1.
         -5    1    1    2    0  502  0.90914401345E+01  0.13586962713E+02  0.23719732890E+02  0.29109413732E+02  0.41800000000E+01 0.  1.
        -11    1    1    2    0    0 -0.59416167911E+02  0.63575403592E+01 -0.76853952458E+02  0.97351062331E+02  0.00000000000E+00 0.  1.
         11    1    1    2    0    0 -0.88199064931E+02 -0.88059595174E+02 -0.31841319029E+03  0.34193643723E+03  0.00000000000E+00 0. -1.
</event>
<event>
 6    1  0.6981059E-006  0.8207136E+02  0.7561462E-02  0.1323274E+00
          4   -1    0    0  501    0  0.00000000000E+00  0.00000000000E+00  0.10649632689E+03  0.10649632689E+03  0.00000000000E+00 0. -1.
         -4   -1    0    0    0  501 -0.00000000000E+00 -0.00000000000E+00 -0.11848810111E+03  0.11848810111E+03  0.00000000000E+00 0.  1.
          5    1    1    2  502    0 -0.19388291322E+02 -0.21405609293E+02 -0.55740267961E+02  0.62917055096E+02  0.41800000000E+01 0. -1.
         -5    1    1    2    0  502  0.49201573344E+02  0.13407482384E+02  0.42617969551E+02  0.66590683523E+02  0.41800000000E+01 0. -1.
        -11    1    1    2    0    0  0.29797147793E+01  0.38734330216E+02  0.23363399476E+02  0.45332940259E+02  0.00000000000E+00 0. -1.
         11    1    1    2    0    0 -0.32792996801E+02 -0.30736203308E+02 -0.22232875282E+02  0.50143749125E+02  0.00000000000E+00 0.  1.
</event>
<event>
 6    1  0.6981059E-006  0.3211314E+03  0.7561462E-02  0.1075130E+00
         -1   -1    0    0    0  501 -0.00000000000E+00  0.00000000000E+00  0.10276675928E+03  0.10276675928E+03  0.00000000000E+00 0.  1.
          1   -1    0    0  501    0  0.00000000000E+00 -0.00000000000E+00 -0.10531416203E+04  0.10531416203E+04  0.00000000000E+00 0. -1.
          5    1    1    2  502    0 -0.12255919384E+02  0.61466922985E+02 -0.66075589265E+02  0.91169326409E+02  0.41800000000E+01 0. -1.
         -5    1    1    2    0  502  0.19214516908E+03  0.18369376586E+03 -0.30786875629E+03  0.40677242915E+03  0.41800000000E+01 0. -1.
        -11    1    1    2    0    0 -0.32100455738E+02 -0.63132249956E+01 -0.96424564920E+02  0.10182334108E+03  0.00000000000E+00 0. -1.
         11    1    1    2    0    0 -0.14778879396E+03 -0.23884746385E+03 -0.48000595058E+03  0.55614328298E+03  0.00000000000E+00 0.  1.
</event>
<event>
 6    1  0.6981059E-006  0.2351936E+03  0.7561462E-02  0.1123037E+00
          2   -1    0    0  501    0  0.00000000000E+00  0.00000000000E+00  0.14889813672E+04  0.14889813672E+04  0.00000000000E+00 0. -1.
         -2   -1    0    0    0  501 -0.00000000000E+00 -0.00000000000E+00 -0.44515898399E+02  0.44515898399E+02  0.00000000000E+00 0.  1.
          5    1    1    2  502    0  0.14979257427E+03 -0.40632103236E+02  0.30921213577E+03  0.34600346880E+03  0.41800000000E+01 0. -1.
         -5    1    1    2    0  502  0.17700162524E+02 -0.84707870241E+02  0.12805936559E+03  0.15461368811E+03  0.41800000000E+01 0. -1.
        -11    1    1    2    0    0 -0.33837404049E+02  0.80810727880E+02  0.35596303790E+03  0.36658563530E+03  0.00000000000E+00 0. -1.
         11    1    1    2    0    0 -0.13365533274E+03  0.44529245597E+02  0.65123092952E+03  0.66629447338E+03  0.00000000000E+00 0.  1.
</event>
<event>
 6    1  0.6981059E-006  0.1191110E+03  0.7561462E-02  0.1244571E+00
         -2   -1    0    0    0  501 -0.00000000000E+00  0.00000000000E+00  0.58723921505E+02  0.58723921505E+02  0.00000000000E+00 0. -1.
          2   -1    0    0  501    0  0.00000000000E+00 -0.00000000000E+00 -0.30671546580E+03  0.30671546580E+03  0.00000000000E+00 0.  1.
          5    1    1    2  502    0 -0.73681030190E+02  0.29703404645E+02 -0.44317751808E+02  0.91064383722E+02  0.41800000000E+01 0.  1.
         -5    1    1    2    0  502  0.19145572233E+02 -0.55435009391E+02 -0.22714256772E+02  0.63031762334E+02  0.41800000000E+01 0.  1.
        -11    1    1    2    0    0 -0.19741207751E+02  0.15066965070E+02 -0.90325556859E+02  0.93677291494E+02  0.00000000000E+00 0.  1.
         11    1    1    2    0    0  0.74276665708E+02  0.10664639675E+02 -0.90633978858E+02  0.11766594975E+03  0.00000000000E+00 0. -1.
</event>
<event>
 6    1  0.6981059E-006  0.1353955E+03  0.7561462E-02  0.1219662E+00
         -2   -1    0    0    0  501 -0.00000000000E+00  0.00000000000E+00  0.25830869938E+02  0.25830869938E+02  0.00000000000E+00 0.  1.
          2   -1    0    0  501    0  0.00000000000E+00 -0.00000000000E+00 -0.11949608005E+04  0.11949608005E+04  0.00000000000E+00 0. -1.
          5    1    1    2  502    0 -0.55368240070E+02  0.43186700251E+02 -0.61067807967E+03  0.61471613162E+03  0.41800000000E+01 0. -1.
         -5    1    1    2    0  502 -0.67533655521E+02 -0.30145069637E+02 -0.11497017810E+03  0.13676671416E+03  0.41800000000E+01 0.  1.
        -11    1    1    2    0    0  0.44893629807E+02  0.79452470972E+01 -0.50186092044E+02  0.67802719586E+02  0.00000000000E+00 0.  1.
         11    1    1    2    0    0  0.78008265784E+02 -0.20986877712E+02 -0.39329558075E+03  0.40150610507E+03  0.00000000000E+00 0. -1.
</event>
<event>
 6    1  0.6981059E-006  0.1095861E+03  0.7561462E-02  0.1261338E+00
         -2   -1    0    0    0  501 -0.00000000000E+00  0.00000000000E+00  0.37589789194E+02  0.37589789194E+02  0.00000000000E+00 0.  1.
          2   -1    0    0  501    0  0.00000000000E+00 -0.00000000000E+00 -0.42782427998E+03  0.42782427998E+03  0.00000000000E+00 0. -1.
          5    1    1    2  502    0  0.42293564727E+02  0.29637843569E+02 -0.10516752075E+03  0.11723833507E+03  0.41800000000E+01 0. -1.
         -5    1    1    2    0  502 -0.49742663012E+02 -0.52655578395E+02 -0.34653115828E+02  0.80406798819E+02  0.41800000000E+01 0.  1.
        -11    1    1    2    0    0  0.48663807179E+02  0.24111144916E+01 -0.13202727388E+03  0.14073088023E+03  0.00000000000E+00 0.  1.
         11    1    1    2    0    0 -0.41214708894E+02  0.20606620334E+02 -0.11838658033E+03  0.12703805506E+03  0.00000000000E+00 0. -1.
</event>
<event>
 6    1  0.6981059E-006  0.1267446E+03  0.7561462E-02  0.1232368E+00
         -1   -1    0    0    0  501 -0.00000000000E+00  0.00000000000E+00  0.26590319416E+03  0.26590319416E+03  0.00000000000E+00 0.  1.
          1   -1    0    0  501    0  0.00000000000E+00 -0.00000000000E+00 -0.65472938373E+02  0.65472938373E+02  0.00000000000E+00 0. -1.
          5    1    1    2  502    0 -0.27389991447E+02  0.22906401333E+02  0.34691450372E+02  0.49958822869E+02  0.41800000000E+01 0.  1.
         -5    1    1    2    0  502  0.90363085279E+02 -0.61236573451E+02  0.10942613532E+03  0.15461874596E+03  0.41800000000E+01 0.  1.
        -11    1    1    2    0    0 -0.34046281530E+01  0.47855428424E+02  0.44274923099E+02  0.65284012882E+02  0.00000000000E+00 0.  1.
         11    1    1    2    0    0 -0.59568465678E+02 -0.95252563062E+01  0.12037746994E+02  0.61514550829E+02  0.00000000000E+00 0. -1.
</event>
<event>
 6    1  0.7066820E-006  0.1448953E+03  0.7561462E-02  0.1206890E+00
          1   -1    0    0  501    0  0.00000000000E+00  0.00000000000E+00  0.26362555145E+03  0.26362555145E+03  0.00000000000E+00 0. -1.
         -1   -1    0    0    0  501 -0.00000000000E+00 -0.00000000000E+00 -0.12872889160E+03  0.12872889160E+03  0.00000000000E+00 0.  1.
          5    1    1    2  502    0 -0.77974808148E+02  0.11085458172E+03  0.48858582091E+02  0.14412994983E+03  0.41800000000E+01 0. -1.
         -5    1    1    2    0  502  0.11515419471E+02  0.90704238484E+01 -0.38852984437E+02  0.41736126725E+02  0.41800000000E+01 0. -1.
        -11    1    1    2    0    0  0.47500095222E+02 -0.62657182245E+02  0.12318528559E+03  0.14613964595E+03  0.00000000000E+00 0.  1.
         11    1    1    2    0    0  0.18959293455E+02 -0.57267823326E+02  0.17057766001E+01  0.60348720539E+02  0.00000000000E+00 0. -1.
</event>
<event>
 6    1  0.6981059E-006  0.1730634E+03  0.7561462E-02  0.1174690E+00
         -2   -1    0    0    0  501 -0.00000000000E+00  0.00000000000E+00  0.87491703270E+02  0.87491703270E+02  0.00000000000E+00 0.  1.
          2   -1    0    0  501    0  0.00000000000E+00 -0.00000000000E+00 -0.49635387884E+03  0.49635387884E+03  0.00000000000E+00 0. -1.
          5    1    1    2  502    0  0.55604381056E+02 -0.10793065974E+02 -0.15173834523E+03  0.16201955215E+03  0.41800000000E+01 0. -1.
         -5    1    1    2    0  502 -0.43657615853E+02 -0.12873437593E+03 -0.29215809311E+02  0.13910270623E+03  0.41800000000E+01 0.  1.
        -11    1    1    2    0    0  0.23603950932E+02  0.29967369108E+02 -0.15661912452E+02  0.41236939902E+02  0.00000000000E+00 0.  1.
         11    1    1    2    0    0 -0.35550716135E+02  0.10956007279E+03 -0.21224610858E+03  0.24148638383E+03  0.00000000000E+00 0. -1.
</event>
<event>
 6    1  0.6981059E-006  0.1109697E+03  0.7561462E-02  0.1258785E+00
          2   -1    0    0  501    0  0.00000000000E+00  0.00000000000E+00  0.18730104861E+03  0.18730104861E+03  0.00000000000E+00 0. -1.
         -2   -1    0    0    0  501 -0.00000000000E+00 -0.00000000000E+00 -0.85224518269E+02  0.85224518269E+02  0.00000000000E+00 0.  1.
          5    1    1    2  502    0 -0.41088922866E+02 -0.79089228636E+02  0.36902162531E+01  0.89300032277E+02  0.41800000000E+01 0. -1.
         -5    1    1    2    0  502  0.34362905873E+02  0.29120004097E+02  0.94819081912E+01  0.46218642576E+02  0.41800000000E+01 0. -1.
        -11    1    1    2    0    0  0.14315620846E+02 -0.15773253199E+02  0.62019069980E+02  0.65575129111E+02  0.00000000000E+00 0. -1.
         11    1    1    2    0    0 -0.75896038528E+01  0.65742477738E+02  0.26885335916E+02  0.71431762915E+02  0.00000000000E+00 0.  1.
</event>
<event>
 6    1  0.6981059E-006  0.9956019E+02  0.7561462E-02  0.1281224E+00
          2   -1    0    0  501    0  0.00000000000E+00  0.00000000000E+00  0.15319655158E+03  0.15319655158E+03  0.00000000000E+00 0. -1.
         -2   -1    0    0    0  501 -0.00000000000E+00 -0.00000000000E+00 -0.82138239364E+02  0.82138239364E+02  0.00000000000E+00 0.  1.
          5    1    1    2  502    0 -0.51743851368E+02 -0.57549433835E+02  0.12089250580E+02  0.78440970600E+02  0.41800000000E+01 0. -1.
         -5    1    1    2    0  502  0.36823020868E+02  0.33750876796E+02  0.17852196019E+02  0.53209302317E+02  0.41800000000E+01 0. -1.
        -11    1    1    2    0    0 -0.20178209006E+02 -0.10214075951E+02  0.49196388926E+02  0.54145841480E+02  0.00000000000E+00 0. -1.
         11    1    1    2    0    0  0.35099039506E+02  0.34012632990E+02 -0.80795233085E+01  0.49538676547E+02  0.00000000000E+00 0.  1.
</event>
<event>
 6    1  0.6981059E-006  0.8824201E+02  0.7561462E-02  0.1307166E+00
         -1   -1    0    0    0  501 -0.00000000000E+00  0.00000000000E+00  0.18021937685E+02  0.18021937685E+02  0.00000000000E+00 0.  1.
          1   -1    0    0  501    0  0.00000000000E+00 -0.00000000000E+00 -0.74546811448E+03  0.74546811448E+03  0.00000000000E+00 0. -1.
          5    1    1    2  502    0 -0.87210834838E+01 -0.14888927980E+02 -0.35774328512E+03  0.35818356735E+03  0.41800000000E+01 0. -1.
         -5    1    1    2    0  502  0.42905954726E+02  0.38296568507E+02 -0.81035205264E+02  0.99457151591E+02  0.41800000000E+01 0.  1.
        -11    1    1    2    0    0 -0.25131888372E+01 -0.55745921974E+02 -0.16016159701E+03  0.16960442533E+03  0.00000000000E+00 0.  1.
         11    1    1    2    0    0 -0.31671682405E+02  0.32338281448E+02 -0.12850608941E+03  0.13624490790E+03  0.00000000000E+00 0. -1.
</event>
<event>
 6    1  0.6981059E-006  0.1415931E+03  0.7561462E-02  0.1211201E+00
          2   -1    0    0  501    0  0.00000000000E+00  0.00000000000E+00  0.18464857420E+03  0.18464857420E+03  0.00000000000E+00 0. -1.
         -2   -1    0    0    0  501 -0.00000000000E+00 -0.00000000000E+00 -0.11703990393E+03  0.11703990393E+03  0.00000000000E+00 0.  1.
          5    1    1    2  502    0 -0.40453886717E+02 -0.23999407939E+02  0.40798569658E+01  0.47398377238E+02  0.41800000000E+01 0. -1.
         -5    1    1    2    0  502 -0.45941780716E+01  0.10896522934E+03  0.42425695359E+02  0.11709799189E+03  0.41800000000E+01 0. -1.
        -11    1    1    2    0    0 -0.23026997659E+02 -0.36871544540E+02  0.30804412827E+02  0.53279126002E+02  0.00000000000E+00 0.  1.
         11    1    1    2    0    0  0.68075062447E+02 -0.48094276862E+02 -0.97012948888E+01  0.83912983004E+02  0.00000000000E+00 0. -1.
</event>
<event>
 6    1  0.6981059E-006  0.3547800E+03  0.7561462E-02  0.1060670E+00
         -2   -1    0    0    0  501 -0.00000000000E+00  0.00000000000E+00  0.47381294952E+03  0.47381294952E+03  0.00000000000E+00 0.  1.
          2   -1    0    0  501    0  0.00000000000E+00 -0.00000000000E+00 -0.27864645079E+03  0.27864645079E+03  0.00000000000E+00 0. -1.
          5    1    1    2  502    0 -0.13068882131E+02  0.73572752353E+00 -0.77445518964E+01  0.15772997788E+02  0.41800000000E+01 0. -1.
         -5    1    1    2    0  502  0.44762304101E+02 -0.34487435446E+03  0.13782935680E+03  0.37410745546E+03  0.41800000000E+01 0. -1.
        -11    1    1    2    0    0  0.87945167425E+01  0.11523803444E+03 -0.15383292959E+02  0.11659242604E+03  0.00000000000E+00 0.  1.
         11    1    1    2    0    0 -0.40487938713E+02  0.22890059250E+03  0.80464986778E+02  0.24598652102E+03  0.00000000000E+00 0. -1.
</event>
<event>
 6    1  0.6981059E-006  0.1144226E+03  0.7561462E-02  0.1252592E+00
          1   -1    0    0  501    0  0.00000000000E+00  0.00000000000E+00  0.41753310530E+03  0.41753310530E+03  0.00000000000E+00 0. -1.
         -1   -1    0    0    0  501 -0.00000000000E+00 -0.00000000000E+00 -0.33233681912E+02  0.33233681912E+02  0.00000000000E+00 0.  1.
          5    1    1    2  502    0  0.41914799474E+02 -0.56287830430E+02  0.97309278053E+02  0.12004889947E+03  0.41800000000E+01 0.  1.
         -5    1    1    2    0  502 -0.55595201510E+02  0.21772373635E+02  0.69089510297E+02  0.91409493586E+02  0.41800000000E+01 0.  1.
        -11    1    1    2    0    0 -0.20463090656E+02 -0.23630547263E+02  0.77044217383E+02  0.83144165612E+02  0.00000000000E+00 0.  1.
         11    1    1    2    0    0  0.34143492691E+02  0.58146004058E+02  0.14085641765E+03  0.15616422854E+03  0.00000000000E+00 0. -1.
</event>
<event>
 6    1  0.6981059E-006  0.1075153E+03  0.7561462E-02  0.1265242E+00
         -2   -1    0    0    0  501 -0.00000000000E+00  0.00000000000E+00  0.14165767742E+03  0.14165767742E+03  0.00000000000E+00 0.  1.
          2   -1    0    0  501    0  0.00000000000E+00 -0.00000000000E+00 -0.20113328741E+03  0.20113328741E+03  0.00000000000E+00 0. -1.
          5    1    1    2  502    0  0.50427088849E+02  0.70152707011E+02 -0.89571008410E+01  0.86959735776E+02  0.41800000000E+01 0.  1.
         -5    1    1    2    0  502 -0.23199258629E+02  0.11958772030E+02  0.73769621727E+02  0.78362282503E+02  0.41800000000E+01 0.  1.
        -11    1    1    2    0    0 -0.42227990020E+02 -0.43257854475E+02 -0.17634234927E+02  0.62971512261E+02  0.00000000000E+00 0.  1.
         11    1    1    2    0    0  0.15000159800E+02 -0.38853624565E+02 -0.10665389596E+03  0.11449743429E+03  0.00000000000E+00 0. -1.
</event>
<event>
 6    1  0.6981059E-006  0.1095446E+03  0.7561462E-02  0.1261416E+00
         -1   -1    0    0    0  501 -0.00000000000E+00  0.00000000000E+00  0.17537541297E+03  0.17537541297E+03  0.00000000000E+00 0.  1.
          1   -1    0    0  501    0  0.00000000000E+00 -0.00000000000E+00 -0.98164003021E+02  0.98164003021E+02  0.00000000000E+00 0. -1.
          5    1    1    2  502    0 -0.93847646836E+01  0.22971561270E+02  0.64257465895E+02  0.69009135327E+02  0.41800000000E+01 0.  1.
         -5    1    1    2    0  502  0.76429333914E+02  0.70325246454E+01 -0.25768402798E+02  0.81070231702E+02  0.41800000000E+01 0.  1.
        -11    1    1    2    0    0  0.18653006884E+02 -0.25031609497E+02  0.13305602616E+02  0.33934572354E+02  0.00000000000E+00 0.  1.
         11    1    1    2    0    0 -0.85697576115E+02 -0.49724764185E+01  0.25416744231E+02  0.89525476603E+02  0.00000000000E+00 0. -1.
</event>
<event>
 6    1  0.6981059E-006  0.8833346E+02  0.7561462E-02  0.1306938E+00
         -2   -1    0    0    0  501 -0.00000000000E+00  0.00000000000E+00  0.65297455233E+03  0.65297455233E+03  0.00000000000E+00 0. -1.
          2   -1    0    0  501    0  0.00000000000E+00 -0.00000000000E+00 -0.20277865584E+02  0.20277865584E+02  0.00000000000E+00 0.  1.
          5    1    1    2  502    0  0.25691460023E+02 -0.51544856196E+02  0.14618371352E+03  0.15717529646E+03  0.41800000000E+01 0. -1.
         -5    1    1    2    0  502 -0.32118698130E+02  0.48034214234E+02  0.33974961547E+03  0.34465369593E+03  0.41800000000E+01 0. -1.
        -11    1    1    2    0    0  0.17696347511E+01  0.32036290628E+02  0.13076088486E+02  0.34647360858E+02  0.00000000000E+00 0.  1.
         11    1    1    2    0    0  0.46576033559E+01 -0.28525648665E+02  0.13368726927E+03  0.13677606467E+03  0.00000000000E+00 0. -1.
</event>
<event>
 6    1  0.6981059E-006  0.1143195E+03  0.7561462E-02  0.1252774E+00
         -3   -1    0    0    0  501 -0.00000000000E+00  0.00000000000E+00  0.50788172309E+02  0.50788172309E+02  0.00000000000E+00 0.  1.
          3   -1    0    0  501    0  0.00000000000E+00 -0.00000000000E+00 -0.32070395407E+03  0.32070395407E+03  0.00000000000E+00 0. -1.
          5    1    1    2  502    0 -0.38142606285E+02  0.79277956868E+01 -0.49801635997E+00  0.39184547706E+02  0.41800000000E+01 0.  1.
         -5    1    1    2    0  502  0.70029087140E+02 -0.50126130930E+02 -0.86336835002E+02  0.12201730830E+03  0.41800000000E+01 0.  1.
        -11    1    1    2    0    0 -0.22378353973E+02  0.70191278739E+02 -0.12426951366E+03  0.14446632259E+03  0.00000000000E+00 0. -1.
         11    1    1    2    0    0 -0.95081268812E+01 -0.27992943496E+02 -0.58811416736E+02  0.65823947776E+02  0.00000000000E+00 0.  1.
</event>
<event>
 6    1  0.6981059E-006  0.1047479E+03  0.7561462E-02  0.1270617E+00
          4   -1    0    0  501    0  0.00000000000E+00  0.00000000000E+00  0.26129894804E+03  0.26129894804E+03  0.00000000000E+00 0. -1.
         -4   -1    0    0    0  501 -0.00000000000E+00 -0.00000000000E+00 -0.66902700248E+02  0.66902700248E+02  0.00000000000E+00 0.  1.
          5    1    1    2  502    0 -0.28752495327E+02 -0.22262056937E+02  0.59946816667E+01  0.37090615726E+02  0.41800000000E+01 0. -1.
         -5    1    1    2    0  502  0.91646721977E+02  0.48598631009E+02  0.60136376427E+02  0.11997835119E+03  0.41800000000E+01 0. -1.
        -11    1    1    2    0    0 -0.45814872154E+02 -0.24336740477E+02  0.14066883819E+03  0.14992998861E+03  0.00000000000E+00 0. -1.
         11    1    1    2    0    0 -0.17079354496E+02 -0.19998335947E+01 -0.12403648490E+02  0.21202692760E+02  0.00000000000E+00 0.  1.
</event>
<event>
 6    1  0.6981059E-006  0.1016718E+03  0.7561462E-02  0.1276819E+00
         -2   -1    0    0    0  501 -0.00000000000E+00  0.00000000000E+00  0.35815525567E+02  0.35815525567E+02  0.00000000000E+00 0.  1.
          2   -1    0    0  501    0  0.00000000000E+00 -0.00000000000E+00 -0.37848647925E+03  0.37848647925E+03  0.00000000000E+00 0. -1.
          5    1    1    2  502    0  0.78793031922E+01 -0.38134134109E+02 -0.10409562503E+02  0.40523166147E+02  0.41800000000E+01 0.  1.
         -5    1    1    2    0  502  0.32215971378E+02  0.56670788272E+02 -0.18047808539E+03  0.19193555888E+03  0.41800000000E+01 0.  1.
        -11    1    1    2    0    0  0.23487233769E+02  0.14094508996E+02 -0.29880874139E+02  0.40536057693E+02  0.00000000000E+00 0. -1.
         11    1    1    2    0    0 -0.63582508339E+02 -0.32631163159E+02 -0.12190243165E+03  0.14130722210E+03  0.00000000000E+00 0.  1.
</event>
<event>
 6    1  0.6981059E-006  0.1766457E+03  0.7561462E-02  0.1171089E+00
          1   -1    0    0  501    0  0.00000000000E+00  0.00000000000E+00  0.49722647042E+03  0.49722647042E+03  0.00000000000E+00 0. -1.
         -1   -1    0    0    0  501 -0.00000000000E+00 -0.00000000000E+00 -0.75136595733E+02  0.75136595733E+02  0.00000000000E+00 0.  1.
          5    1    1    2  502    0  0.91210705572E+02 -0.48002751405E+02  0.98647648943E+02  0.14273222480E+03  0.41800000000E+01 0.  1.
         -5    1    1    2    0  502  0.56199823510E+02  0.64576564375E+02  0.33444329746E+02  0.92002980502E+02  0.41800000000E+01 0.  1.
        -11    1    1    2    0    0 -0.29016416008E+01  0.16025701883E+02  0.73601784944E+02  0.75382129127E+02  0.00000000000E+00 0. -1.
         11    1    1    2    0    0 -0.14450888748E+03 -0.32599514852E+02  0.21639611105E+03  0.26224573173E+03  0.00000000000E+00 0.  1.
</event>
<event>
 6    1  0.6981059E-006  0.9834858E+02  0.7561462E-02  0.1283807E+00
          1   -1    0    0  501    0  0.00000000000E+00  0.00000000000E+00  0.35956747843E+02  0.35956747843E+02  0.00000000000E+00 0. -1.
         -1   -1    0    0    0  501 -0.00000000000E+00 -0.00000000000E+00 -0.51077959338E+03  0.51077959338E+03  0.00000000000E+00 0.  1.
          5    1    1    2  502    0 -0.16324642969E+02  0.56757764513E+01 -0.22789318252E+03  0.22858583387E+03  0.41800000000E+01 0.  1.
         -5    1    1    2    0  502 -0.87220575986E+01  0.71315747253E+02 -0.52983526977E+02  0.89368543828E+02  0.41800000000E+01 0.  1.
        -11    1    1    2    0    0 -0.20452301070E+02 -0.50055430588E+02 -0.15186983237E+03  0.16120883579E+03  0.00000000000E+00 0.  1.
         11    1    1    2    0    0  0.45499001638E+02 -0.26936093116E+02 -0.42076303669E+02  0.67573127742E+02  0.00000000000E+00 0. -1.
</event>
<event>
 6    1  0.6981059E-006  0.1093769E+03  0.7561462E-02  0.1261728E+00
         -1   -1    0    0    0  501 -0.00000000000E+00  0.00000000000E+00  0.10206847256E+04  0.10206847256E+04  0.00000000000E+00 0.  1.
          1   -1    0    0  501    0  0.00000000000E+00 -0.00000000000E+00 -0.15449233321E+02  0.15449233321E+02  0.00000000000E+00 0. -1.
          5    1    1    2  502    0 -0.15600244876E+02  0.19509839562E+02  0.29678026576E+02  0.39016139498E+02  0.41800000000E+01 0. -1.
         -5    1    1    2    0  502  0.67166063006E+02 -0.52020844163E+02  0.58952379964E+03  0.59562843367E+03  0.41800000000E+01 0. -1.
        -11    1    1    2    0    0  0.22760400685E+02  0.24771208975E+02  0.15734691310E+03  0.16090276472E+03  0.00000000000E+00 0. -1.
         11    1    1    2    0    0 -0.74326218815E+02  0.77397956254E+01  0.22868675293E+03  0.24058662100E+03  0.00000000000E+00 0.  1.
</event>
<event>
 6    1  0.6981059E-006  0.1058537E+03  0.7561462E-02  0.1268447E+00
         -1   -1    0    0    0  501 -0.00000000000E+00  0.00000000000E+00  0.99856513786E+03  0.99856513786E+03  0.00000000000E+00 0.  1.
          1   -1    0    0  501    0  0.00000000000E+00 -0.00000000000E+00 -0.31700430373E+02  0.31700430373E+02  0.00000000000E+00 0. -1.
          5    1    1    2  502    0 -0.34218848235E+02  0.10411995836E+02  0.45626204099E+02  0.58125400061E+02  0.41800000000E+01 0. -1.
         -5    1    1    2    0  502 -0.57161627323E+02  0.20168826554E+02  0.76653334145E+03  0.76893762371E+03  0.41800000000E+01 0.  1.
        -11    1    1    2    0    0  0.19422369192E+02  0.19299730896E+02  0.90710255208E+02  0.94752617049E+02  0.00000000000E+00 0.  1.
         11    1    1    2    0    0  0.71958106366E+02 -0.49880553286E+02  0.63994906725E+02  0.10844992741E+03  0.00000000000E+00 0. -1.
</event>
<event>
 6    1  0.6981059E-006  0.7898111E+02  0.7561462E-02  0.1331968E+00
         -1   -1    0    0    0  501 -0.00000000000E+00  0.00000000000E+00  0.20304905557E+03  0.20304905557E+03  0.00000000000E+00 0.  1.
          1   -1    0    0  501    0  0.00000000000E+00 -0.00000000000E+00 -0.76815114660E+02  0.76815114660E+02  0.00000000000E+00 0. -1.
          5    1    1    2  502    0 -0.96508726379E+01 -0.32291934984E+02  0.13454426122E+03  0.13876432912E+03  0.41800000000E+01 0.  1.
         -5    1    1    2    0  502  0.11839278544E+02 -0.19470333087E+02 -0.25957178484E+02  0.34792382813E+02  0.41800000000E+01 0.  1.
        -11    1    1    2    0    0  0.30864339924E+02 -0.85771955821E+01  0.19465084541E+02  0.37484200394E+02  0.00000000000E+00 0. -1.
         11    1    1    2    0    0 -0.33052745830E+02  0.60339463653E+02 -0.18182263746E+01  0.68823257900E+02  0.00000000000E+00 0.  1.
</event>
<event>
 6    1  0.6981059E-006  0.1058189E+03  0.7561462E-02  0.1268514E+00
          1   -1    0    0  501    0  0.00000000000E+00  0.00000000000E+00  0.96049259906E+02  0.96049259906E+02  0.00000000000E+00 0. -1.
         -1   -1    0    0    0  501 -0.00000000000E+00 -0.00000000000E+00 -0.12496503282E+03  0.12496503282E+03  0.00000000000E+00 0.  1.
          5    1    1    2  502    0 -0.20564200284E+02 -0.53713116885E+02  0.36675220977E+01  0.57783288043E+02  0.41800000000E+01 0.  1.
         -5    1    1    2    0  502  0.21385007783E+02  0.63105410298E+02 -0.25899556896E+02  0.71609153145E+02  0.41800000000E+01 0.  1.
        -11    1    1    2    0    0  0.61764482284E+01 -0.47786034769E+02 -0.17270562026E+02  0.51185212165E+02  0.00000000000E+00 0.  1.
         11    1    1    2    0    0 -0.69972557277E+01  0.38393741355E+02  0.10586823912E+02  0.40436639370E+02  0.00000000000E+00 0. -1.
</event>
<event>
 6    1  0.6981059E-006  0.1106264E+03  0.7561462E-02  0.1259414E+00
          1   -1    0    0  501    0  0.00000000000E+00  0.00000000000E+00  0.15914071100E+02  0.15914071100E+02  0.00000000000E+00 0. -1.
         -1   -1    0    0    0  501 -0.00000000000E+00 -0.00000000000E+00 -0.77734683259E+03  0.77734683259E+03  0.00000000000E+00 0.  1.
          5    1    1    2  502    0  0.63231250659E+02  0.37392208113E+02 -0.25423167324E+03  0.26466504182E+03  0.41800000000E+01 0. -1.
         -5    1    1    2    0  502 -0.50927193105E+02 -0.16061033488E+02 -0.19204539229E+03  0.19937512607E+03  0.41800000000E+01 0. -1.
        -11    1    1    2    0    0 -0.27637922562E+02 -0.52524621291E+02 -0.22181360866E+03  0.22961700196E+03  0.00000000000E+00 0.  1.
         11    1    1    2    0    0  0.15333865008E+02  0.31193446665E+02 -0.93342087304E+02  0.99603733832E+02  0.00000000000E+00 0. -1.
</event>
<event>
 6    1  0.6981059E-006  0.1294088E+03  0.7561462E-02  0.1228336E+00
          1   -1    0    0  501    0  0.00000000000E+00  0.00000000000E+00  0.10717940809E+03  0.10717940809E+03  0.00000000000E+00 0. -1.
         -1   -1    0    0    0  501 -0.00000000000E+00 -0.00000000000E+00 -0.22290251936E+03  0.22290251936E+03  0.00000000000E+00 0.  1.
          5    1    1    2  502    0 -0.77069775054E+02  0.14545807221E+02  0.12407065434E+02  0.79515648820E+02  0.41800000000E+01 0. -1.
         -5    1    1    2    0  502 -0.29347774360E+02 -0.35338457483E+02 -0.94740165014E+02  0.10537205371E+03  0.41800000000E+01 0. -1.
        -11    1    1    2    0    0  0.41644347502E+02  0.48303533411E+02  0.68246629746E+01  0.64140931109E+02  0.00000000000E+00 0. -1.
         11    1    1    2    0    0  0.64773201913E+02 -0.27510883150E+02 -0.40214674663E+02  0.81053293801E+02  0.00000000000E+00 0.  1.
</event>
<event>
 6    1  0.6981059E-006  0.1125746E+03  0.7561462E-02  0.1255875E+00
         -1   -1    0    0    0  501 -0.00000000000E+00  0.00000000000E+00  0.23517943924E+03  0.23517943924E+03  0.00000000000E+00 0.  1.
          1   -1    0    0  501    0  0.00000000000E+00 -0.00000000000E+00 -0.94110493268E+02  0.94110493268E+02  0.00000000000E+00 0. -1.
          5    1    1    2  502    0 -0.33283100862E+02  0.52591402311E+02  0.10111192454E+03  0.11880536218E+03  0.41800000000E+01 0. -1.
         -5    1    1    2    0  502  0.44665936152E+01 -0.65581892542E+02  0.81558138311E+02  0.10483385623E+03  0.41800000000E+01 0. -1.
        -11    1    1    2    0    0  0.62034746266E+02  0.25637116567E+01 -0.23284064099E+02  0.66310104832E+02  0.00000000000E+00 0.  1.
         11    1    1    2    0    0 -0.33218239020E+02  0.10426778574E+02 -0.18317052772E+02  0.39340609264E+02  0.00000000000E+00 0. -1.
</event>
<event>
 6    1  0.6981059E-006  0.1077543E+03  0.7561462E-02  0.1264786E+00
         -1   -1    0    0    0  501 -0.00000000000E+00  0.00000000000E+00  0.13386670904E+03  0.13386670904E+03  0.00000000000E+00 0.  1.
          1   -1    0    0  501    0  0.00000000000E+00 -0.00000000000E+00 -0.13672514427E+03  0.13672514427E+03  0.00000000000E+00 0. -1.
          5    1    1    2  502    0 -0.38630007124E+02  0.65113158313E+00  0.38173748092E+02  0.54473928316E+02  0.41800000000E+01 0.  1.
         -5    1    1    2    0  502  0.32003487998E+02  0.79503501091E+02 -0.38994971423E+02  0.94250252658E+02  0.41800000000E+01 0.  1.
        -11    1    1    2    0    0 -0.15720211115E+02 -0.54967480113E+02 -0.41013700523E+02  0.70361015755E+02  0.00000000000E+00 0. -1.
         11    1    1    2    0    0  0.22346730241E+02 -0.25187152562E+02  0.38976488621E+02  0.51506656578E+02  0.00000000000E+00 0.  1.
</event>
<event>
 6    1  0.6981059E-006  0.8529004E+02  0.7561462E-02  0.1314676E+00
         -1   -1    0    0    0  501 -0.00000000000E+00  0.00000000000E+00  0.17819470894E+03  0.17819470894E+03  0.00000000000E+00 0.  1.
          1   -1    0    0  501    0  0.00000000000E+00 -0.00000000000E+00 -0.83932773093E+02  0.83932773093E+02  0.00000000000E+00 0. -1.
          5    1    1    2  502    0  0.82766403695E+01 -0.54723717237E+02  0.10337226623E+03  0.11733066875E+03  0.41800000000E+01 0.  1.
         -5    1    1    2    0  502  0.28392433735E+01  0.51420295137E+02  0.11574840018E+02  0.52948629598E+02  0.41800000000E+01 0.  1.
        -11    1    1    2    0    0 -0.27655416253E+02 -0.20498609320E+02  0.21558205387E+02  0.40617376229E+02  0.00000000000E+00 0.  1.
         11    1    1    2    0    0  0.16539532510E+02  0.23802031420E+02 -0.42243375784E+02  0.51230807460E+02  0.00000000000E+00 0. -1.
</event>
<event>
 6    1  0.6981059E-006  0.8543677E+02  0.7561462E-02  0.1314294E+00
          1   -1    0    0  501    0  0.00000000000E+00  0.00000000000E+00  0.15801833339E+03  0.15801833339E+03  0.00000000000E+00 0. -1.
         -1   -1    0    0    0  501 -0.00000000000E+00 -0.00000000000E+00 -0.83486012563E+02  0.83486012563E+02  0.00000000000E+00 0.  1.
          5    1    1    2  502    0 -0.40470544979E+02  0.27351760021E+02  0.64558624987E+02  0.81063384134E+02  0.41800000000E+01 0. -1.
         -5    1    1    2    0  502  0.32598878600E+02  0.55424009902E+01 -0.38698079381E+02  0.51072681959E+02  0.41800000000E+01 0. -1.
        -11    1    1    2    0    0 -0.36019627602E+02 -0.46343720640E+01 -0.23247083701E+01  0.36390867619E+02  0.00000000000E+00 0.  1.
         11    1    1    2    0    0  0.43891293981E+02 -0.28259788947E+02  0.50996483595E+02  0.72977412243E+02  0.00000000000E+00 0. -1.
</event>
<event>
 6    1  0.6981059E-006  0.1022341E+03  0.7561462E-02  0.1275667E+00
          2   -1    0    0  501    0  0.00000000000E+00  0.00000000000E+00  0.21468450533E+03  0.21468450533E+03  0.00000000000E+00 0. -1.
         -2   -1    0    0    0  501 -0.00000000000E+00 -0.00000000000E+00 -0.66698370577E+02  0.66698370577E+02  0.00000000000E+00 0.  1.
          5    1    1    2  502    0  0.25413498127E+02 -0.49882291567E+02 -0.16324800387E+02  0.58464180544E+02  0.41800000000E+01 0.  1.
         -5    1    1    2    0  502 -0.48018627253E+02  0.20487652705E+02  0.58752549912E+02  0.78707477394E+02  0.41800000000E+01 0.  1.
        -11    1    1    2    0    0 -0.14339648199E+02  0.51122325226E+02  0.73575901076E+02  0.90733295246E+02  0.00000000000E+00 0. -1.
         11    1    1    2    0    0  0.36944777325E+02 -0.21727686365E+02  0.31982484156E+02  0.53477922727E+02  0.00000000000E+00 0.  1.
</event>
<event>
 6    1  0.6981059E-006  0.1300749E+03  0.7561462E-02  0.1227345E+00
          2   -1    0    0  501    0  0.00000000000E+00  0.00000000000E+00  0.58335644376E+02  0.58335644376E+02  0.00000000000E+00 0. -1.
         -2   -1    0    0    0  501 -0.00000000000E+00 -0.00000000000E+00 -0.40682928796E+03  0.40682928796E+03  0.00000000000E+00 0.  1.
          5    1    1    2  502    0 -0.15076579933E+02  0.69845844271E+02 -0.52329255639E+02  0.88665487198E+02  0.41800000000E+01 0.  1.
         -5    1    1    2    0  502 -0.71537601214E+02 -0.15925517342E+02 -0.17850793646E+03  0.19301245107E+03  0.41800000000E+01 0.  1.
        -11    1    1    2    0    0  0.78495915064E+02 -0.20996960597E+02 -0.12471564218E+03  0.14885050366E+03  0.00000000000E+00 0.  1.
         11    1    1    2    0    0  0.81182660828E+01 -0.32923366332E+02  0.70591906873E+01  0.34636490411E+02  0.00000000000E+00 0. -1.
</event>
<event>
 6    1  0.6981059E-006  0.1339800E+03  0.7561462E-02  0.1221667E+00
          1   -1    0    0  501    0  0.00000000000E+00  0.00000000000E+00  0.43868793137E+03  0.43868793137E+03  0.00000000000E+00 0. -1.
         -1   -1    0    0    0  501 -0.00000000000E+00 -0.00000000000E+00 -0.58527399332E+02  0.58527399332E+02  0.00000000000E+00 0.  1.
          5    1    1    2  502    0  0.47584558861E+01 -0.23448529184E+02  0.89837762174E+02  0.93063270605E+02  0.41800000000E+01 0. -1.
         -5    1    1    2    0  502 -0.11366546353E+03  0.44257812430E+01  0.48428609625E+02  0.12370217366E+03  0.41800000000E+01 0. -1.
        -11    1    1    2    0    0  0.40993319487E+02 -0.25831972973E+02  0.40218168175E+02  0.62970184386E+02  0.00000000000E+00 0.  1.
         11    1    1    2    0    0  0.67913688156E+02  0.44854720914E+02  0.20167599207E+03  0.21747970205E+03  0.00000000000E+00 0. -1.
</event>
<event>
 6    1  0.6981059E-006  0.1100518E+03  0.7561462E-02  0.1260474E+00
          1   -1    0    0  501    0  0.00000000000E+00  0.00000000000E+00  0.12764810608E+03  0.12764810608E+03  0.00000000000E+00 0. -1.
         -1   -1    0    0    0  501 -0.00000000000E+00 -0.00000000000E+00 -0.11899714933E+03  0.11899714933E+03  0.00000000000E+00 0.  1.
          5    1    1    2  502    0 -0.53715153725E+02 -0.24104340627E+02  0.35638167932E+02  0.68948447338E+02  0.41800000000E+01 0. -1.
         -5    1    1    2    0  502  0.48801287500E+02 -0.33098540297E+02 -0.34925968391E+02  0.68661304237E+02  0.41800000000E+01 0. -1.
        -11    1    1    2    0    0 -0.15592194161E+02 -0.18117562970E+02  0.18548649923E+02  0.30255826227E+02  0.00000000000E+00 0. -1.
         11    1    1    2    0    0  0.20506060386E+02  0.75320443895E+02 -0.10609892719E+02  0.78779677611E+02  0.00000000000E+00 0.  1.
</event>
<event>
 6    1  0.6981059E-006  0.1031807E+03  0.7561462E-02  0.1273746E+00
         -1   -1    0    0    0  501 -0.00000000000E+00  0.00000000000E+00  0.13933303874E+03  0.13933303874E+03  0.00000000000E+00 0.  1.
          1   -1    0    0  501    0  0.00000000000E+00 -0.00000000000E+00 -0.97613324867E+02  0.97613324867E+02  0.00000000000E+00 0. -1.
          5    1    1    2  502    0  0.79394652803E+02 -0.15294602827E+02  0.59932210598E+02  0.10073121679E+03  0.41800000000E+01 0.  1.
         -5    1    1    2    0  502 -0.36768362311E+02 -0.25400080128E+02 -0.10528262455E+02  0.46101987461E+02  0.41800000000E+01 0.  1.
        -11    1    1    2    0    0 -0.12146652832E+02 -0.13609780319E+02 -0.19528644609E+02  0.26723309219E+02  0.00000000000E+00 0. -1.
         11    1    1    2    0    0 -0.30479637660E+02  0.54304463275E+02  0.11844410337E+02  0.63389850131E+02  0.00000000000E+00 0.  1.
</event>
<event>
 6    1  0.6981059E-006  0.1181811E+03  0.7561462E-02  0.1246128E+00
          2   -1    0    0  501    0  0.00000000000E+00  0.00000000000E+00  0.45642972461E+03  0.45642972461E+03  0.00000000000E+00 0.  1.
         -2   -1    0    0    0  501 -0.00000000000E+00 -0.00000000000E+00 -0.51897542569E+02  0.51897542569E+02  0.00000000000E+00 0. -1.
          5    1    1    2  502    0  0.45276048085E+02 -0.15500771048E+02  0.33866418861E+02  0.58775855245E+02  0.41800000000E+01 0. -1.
         -5    1    1    2    0  502 -0.47687650548E+02  0.74392417653E+02  0.28720948683E+02  0.93009188322E+02  0.41800000000E+01 0. -1.
        -11    1    1    2    0    0  0.40441906830E+02 -0.41813369294E+02  0.17250228987E+03  0.18204654814E+03  0.00000000000E+00 0.  1.
         11    1    1    2    0    0 -0.38030304367E+02 -0.17078277311E+02  0.16944252463E+03  0.17449567547E+03  0.00000000000E+00 0. -1.
</event>
<event>
 6    1  0.6981059E-006  0.9398181E+02  0.7561462E-02  0.1293486E+00
         -2   -1    0    0    0  501 -0.00000000000E+00  0.00000000000E+00  0.18022246996E+02  0.18022246996E+02  0.00000000000E+00 0.  1.
          2   -1    0    0  501    0  0.00000000000E+00 -0.00000000000E+00 -0.63041060339E+03  0.63041060339E+03  0.00000000000E+00 0. -1.
          5    1    1    2  502    0 -0.58518607929E+02  0.31502067621E+02 -0.99017160458E+02  0.11932593265E+03  0.41800000000E+01 0. -1.
         -5    1    1    2    0  502  0.44847818272E+02 -0.13702121928E+02 -0.20207685963E+03  0.20748880584E+03  0.41800000000E+01 0. -1.
        -11    1    1    2    0    0 -0.27258271785E+02  0.45869488470E+01 -0.60414511486E+02  0.66437690195E+02  0.00000000000E+00 0.  1.
         11    1    1    2    0    0  0.40929061442E+02 -0.22386894540E+02 -0.25087982482E+03  0.25518042170E+03  0.00000000000E+00 0. -1.
</event>
<event>
 6    1  0.6981059E-006  0.9896703E+02  0.7561462E-02  0.1282483E+00
          2   -1    0    0  501    0  0.00000000000E+00  0.00000000000E+00  0.50807725406E+03  0.50807725406E+03  0.00000000000E+00 0. -1.
         -2   -1    0    0    0  501 -0.00000000000E+00 -0.00000000000E+00 -0.32244359999E+02  0.32244359999E+02  0.00000000000E+00 0.  1.
          5    1    1    2  502    0 -0.70417530947E+02 -0.74765491953E+01  0.44472938253E+02  0.83724799728E+02  0.41800000000E+01 0. -1.
         -5    1    1    2    0  502  0.33467779537E+02  0.23174978743E+02  0.72229855565E+02  0.83016843724E+02  0.41800000000E+01 0.  1.
        -11    1    1    2    0    0  0.48344520385E+02  0.17157840963E+02  0.30470500604E+03  0.30899308222E+03  0.00000000000E+00 0.  1.
         11    1    1    2    0    0 -0.11394768976E+02 -0.32856270511E+02  0.54425094202E+02  0.64586888381E+02  0.00000000000E+00 0. -1.
</event>
<event>
 6    1  0.6981059E-006  0.1970000E+03  0.7561462E-02  0.1152295E+00
          1   -1    0    0  501    0  0.00000000000E+00  0.00000000000E+00  0.13010829880E+04  0.13010829880E+04  0.00000000000E+00 0. -1.
         -1   -1    0    0    0  501 -0.00000000000E+00 -0.00000000000E+00 -0.35834175286E+02  0.35834175286E+02  0.00000000000E+00 0.  1.
          5    1    1    2  502    0 -0.12975815895E+03  0.34467206599E+02  0.22582347626E+03  0.26275251279E+03  0.41800000000E+01 0.  1.
         -5    1    1    2    0  502 -0.29771795215E+02  0.54711550206E+02  0.32477588033E+03  0.33072126989E+03  0.41800000000E+01 0.  1.
        -11    1    1    2    0    0  0.33667127224E+02 -0.58825655514E+02  0.15779695827E+03  0.17173762908E+03  0.00000000000E+00 0. -1.
         11    1    1    2    0    0  0.12586282694E+03 -0.30353101290E+02  0.55685249790E+03  0.57170575157E+03  0.00000000000E+00 0.  1.
</event>
<event>
 6    1  0.6981059E-006  0.1376009E+03  0.7561462E-02  0.1216594E+00
          1   -1    0    0  501    0  0.00000000000E+00  0.00000000000E+00  0.18734749003E+03  0.18734749003E+03  0.00000000000E+00 0. -1.
         -1   -1    0    0    0  501 -0.00000000000E+00 -0.00000000000E+00 -0.15127066912E+03  0.15127066912E+03  0.00000000000E+00 0.  1.
          5    1    1    2  502    0 -0.77086792163E+02 -0.80380235944E+02 -0.42500346292E+02  0.11927743999E+03  0.41800000000E+01 0. -1.
         -5    1    1    2    0  502  0.14030115070E+02 -0.31310552828E+02  0.49053576830E+02  0.60007671569E+02  0.41800000000E+01 0. -1.
        -11    1    1    2    0    0  0.22265281048E+02  0.55103853677E+02  0.58871280550E+02  0.83654080019E+02  0.00000000000E+00 0. -1.
         11    1    1    2    0    0  0.40791396045E+02  0.56586935094E+02 -0.29347690177E+02  0.75678967576E+02  0.00000000000E+00 0.  1.
</event>
<event>
 6    1  0.6981059E-006  0.7888880E+02  0.7561462E-02  0.1332235E+00
          2   -1    0    0  501    0  0.00000000000E+00  0.00000000000E+00  0.77986799498E+03  0.77986799498E+03  0.00000000000E+00 0. -1.
         -2   -1    0    0    0  501 -0.00000000000E+00 -0.00000000000E+00 -0.16952645688E+02  0.16952645688E+02  0.00000000000E+00 0.  1.
          5    1    1    2  502    0 -0.48258148367E+00 -0.20829693516E+02  0.54507864780E+01  0.21938379386E+02  0.41800000000E+01 0. -1.
         -5    1    1    2    0  502  0.31884021466E+02  0.42274659108E+02  0.41459277784E+03  0.41798131712E+03  0.41800000000E+01 0. -1.
        -11    1    1    2    0    0  0.17452154156E+02  0.14556684976E+02  0.27180027373E+02  0.35429206175E+02  0.00000000000E+00 0.  1.
         11    1    1    2    0    0 -0.48853594139E+02 -0.36001650568E+02  0.31569175760E+03  0.32147173798E+03  0.00000000000E+00 0. -1.
</event>
<event>
 6    1  0.6981059E-006  0.6880364E+02  0.7561462E-02  0.1364209E+00
          2   -1    0    0  501    0  0.00000000000E+00  0.00000000000E+00  0.17608474483E+03  0.17608474483E+03  0.00000000000E+00 0.  1.
         -2   -1    0    0    0  501 -0.00000000000E+00 -0.00000000000E+00 -0.84216443308E+02  0.84216443308E+02  0.00000000000E+00 0. -1.
          5    1    1    2  502    0 -0.56161488898E+01 -0.18564373049E+02  0.82643115719E+02  0.84991376332E+02  0.41800000000E+01 0.  1.
         -5    1    1    2    0  502  0.59100078586E+02  0.19684914527E+02 -0.18933326991E+02  0.65240006283E+02  0.41800000000E+01 0.  1.
        -11    1    1    2    0    0 -0.43926042750E+02  0.46470195797E+01 -0.28338739106E+02  0.52480245395E+02  0.00000000000E+00 0. -1.
         11    1    1    2    0    0 -0.95578869471E+01 -0.57675610576E+01  0.56497251901E+02  0.57589560128E+02  0.00000000000E+00 0.  1.
</event>
<event>
 6    1  0.6981059E-006  0.9024036E+02  0.7561462E-02  0.1302271E+00
         -3   -1    0    0    0  501 -0.00000000000E+00  0.00000000000E+00  0.41906986317E+03  0.41906986317E+03  0.00000000000E+00 0.  1.
          3   -1    0    0  501    0  0.00000000000E+00 -0.00000000000E+00 -0.32024641789E+02  0.32024641789E+02  0.00000000000E+00 0. -1.
          5    1    1    2  502    0  0.30426464935E+02  0.56598250562E+02  0.20531533707E+03  0.21517665248E+03  0.41800000000E+01 0. -1.
         -5    1    1    2    0  502 -0.40627646350E+01 -0.55365780083E+02  0.79938234448E+02  0.97413907566E+02  0.41800000000E+01 0. -1.
        -11    1    1    2    0    0  0.78408275814E+01  0.19083704243E+02  0.96131065906E+02  0.98320131088E+02  0.00000000000E+00 0.  1.
         11    1    1    2    0    0 -0.34204527881E+02 -0.20316174722E+02  0.56605839544E+01  0.40183813826E+02  0.00000000000E+00 0. -1.
</event>
<event>
 6    1  0.6981059E-006  0.4066514E+03  0.7561462E-02  0.1041501E+00
         -1   -1    0    0    0  501 -0.00000000000E+00  0.00000000000E+00  0.35224825988E+03  0.35224825988E+03  0.00000000000E+00 0.  1.
          1   -1    0    0  501    0  0.00000000000E+00 -0.00000000000E+00 -0.59518342977E+03  0.59518342977E+03  0.00000000000E+00 0. -1.
          5    1    1    2  502    0 -0.87776437611E+01 -0.27120177679E+02 -0.26269407476E+02  0.38988526986E+02  0.41800000000E+01 0.  1.
         -5    1    1    2    0  502  0.12023645841E+02 -0.37352636046E+03  0.10324451477E+03  0.38774142447E+03  0.41800000000E+01 0.  1.
        -11    1    1    2    0    0  0.13313831553E+02  0.42049367377E+01 -0.12898853137E+02  0.19008419604E+02  0.00000000000E+00 0. -1.
         11    1    1    2    0    0 -0.16559833632E+02  0.39644160140E+03 -0.30701142405E+03  0.50169331858E+03  0.00000000000E+00 0.  1.
</event>
<event>
 6    1  0.6981059E-006  0.2748718E+03  0.7561462E-02  0.1098523E+00
         -2   -1    0    0    0  501 -0.00000000000E+00  0.00000000000E+00  0.42771529613E+03  0.42771529613E+03  0.00000000000E+00 0.  1.
          2   -1    0    0  501    0  0.00000000000E+00 -0.00000000000E+00 -0.21146704258E+03  0.21146704258E+03  0.00000000000E+00 0. -1.
          5    1    1    2  502    0 -0.19642240987E+03  0.72137132932E+01  0.57918410477E+01  0.19668456620E+03  0.41800000000E+01 0. -1.
         -5    1    1    2    0  502 -0.72432328063E+02 -0.21520204435E+02  0.12434651803E+03  0.14556472888E+03  0.41800000000E+01 0.  1.
        -11    1    1    2    0    0  0.20314722340E+03 -0.18569064634E+02  0.90844434916E+02  0.22330767092E+03  0.00000000000E+00 0. -1.
         11    1    1    2    0    0  0.65707514533E+02  0.32875555776E+02 -0.47345404428E+01  0.73625372712E+02  0.00000000000E+00 0.  1.
</event>
<event>
 6    1  0.6981059E-006  0.1101895E+03  0.7561462E-02  0.1260219E+00
         -1   -1    0    0    0  501 -0.00000000000E+00  0.00000000000E+00  0.43000969176E+03  0.43000969176E+03  0.00000000000E+00 0.  1.
          1   -1    0    0  501    0  0.00000000000E+00 -0.00000000000E+00 -0.37988892520E+02  0.37988892520E+02  0.00000000000E+00 0. -1.
          5    1    1    2  502    0  0.63802467825E+02  0.30382636862E+02  0.13598511887E+03  0.15330780958E+03  0.41800000000E+01 0. -1.
         -5    1    1    2    0  502 -0.53077250678E+02  0.28702426943E+00  0.19108792904E+03  0.19836669566E+03  0.41800000000E+01 0. -1.
        -11    1    1    2    0    0 -0.40695318953E+02  0.13580564854E+02  0.32244375183E+02  0.53667871743E+02  0.00000000000E+00 0.  1.
         11    1    1    2    0    0  0.29970101806E+02 -0.44250225985E+02  0.32703376149E+02  0.62656207303E+02  0.00000000000E+00 0. -1.
</event>
<event>
 6    1  0.6981059E-006  0.9385561E+02  0.7561462E-02  0.1293775E+00
         -1   -1    0    0    0  501 -0.00000000000E+00  0.00000000000E+00  0.66973784259E+02  0.66973784259E+02  0.00000000000E+00 0.  1.
          1   -1    0    0  501    0  0.00000000000E+00 -0.00000000000E+00 -0.21405855196E+03  0.21405855196E+03  0.00000000000E+00 0. -1.
          5    1    1    2  502    0 -0.19759309334E+02  0.11643098368E+02 -0.92670352459E+02  0.95557619632E+02  0.41800000000E+01 0.  1.
         -5    1    1    2    0  502  0.55365337979E+02  0.23634587784E+02  0.11968136800E+02  0.61519290371E+02  0.41800000000E+01 0.  1.
        -11    1    1    2    0    0 -0.26745098002E+02 -0.66459223745E+02 -0.39273587807E+02  0.81697878719E+02  0.00000000000E+00 0.  1.
         11    1    1    2    0    0 -0.88609306426E+01  0.31181537593E+02 -0.27108964236E+02  0.42257547497E+02  0.00000000000E+00 0. -1.
</event>
<event>
 6    1  0.6981059E-006  0.3414692E+03  0.7561462E-02  0.1066172E+00
          1   -1    0    0  501    0  0.00000000000E+00  0.00000000000E+00  0.93679571106E+03  0.93679571106E+03  0.00000000000E+00 0. -1.
         -1   -1    0    0    0  501 -0.00000000000E+00 -0.00000000000E+00 -0.14030350519E+03  0.14030350519E+03  0.00000000000E+00 0.  1.
          5    1    1    2  502    0  0.19844174078E+03 -0.17800662883E+03  0.42594986568E+03  0.50250994505E+03  0.41800000000E+01 0. -1.
         -5    1    1    2    0  502  0.59713372967E+02 -0.40737492972E+02  0.11056516979E+02  0.73245813618E+02  0.41800000000E+01 0.  1.
        -11    1    1    2    0    0 -0.13976781656E+03  0.78201183889E+02  0.12347015144E+03  0.20222597757E+03  0.00000000000E+00 0.  1.
         11    1    1    2    0    0 -0.11838729719E+03  0.14054293792E+03  0.23601567176E+03  0.29911748002E+03  0.00000000000E+00 0. -1.
</event>
<event>
 6    1  0.6981059E-006  0.9948891E+02  0.7561462E-02  0.1281374E+00
         -2   -1    0    0    0  501 -0.00000000000E+00  0.00000000000E+00  0.34806247551E+02  0.34806247551E+02  0.00000000000E+00 0.  1.
          2   -1    0    0  501    0  0.00000000000E+00 -0.00000000000E+00 -0.37820727496E+03  0.37820727496E+03  0.00000000000E+00 0. -1.
          5    1    1    2  502    0 -0.67840148800E+02 -0.56305324057E+01 -0.14197928080E+03  0.15751056238E+03  0.41800000000E+01 0. -1.
         -5    1    1    2    0  502  0.41224270966E+02 -0.27088157455E+01 -0.12813536462E+02  0.43456153950E+02  0.41800000000E+01 0. -1.
        -11    1    1    2    0    0 -0.34133729771E+01  0.43146627421E+02 -0.13317650268E+03  0.14003307980E+03  0.00000000000E+00 0. -1.
         11    1    1    2    0    0  0.30029250811E+02 -0.34807279270E+02 -0.55431707471E+02  0.72013726383E+02  0.00000000000E+00 0.  1.
</event>
<event>
 6    1  0.6981059E-006  0.1882389E+03  0.7561462E-02  0.1160059E+00
         -1   -1    0    0    0  501 -0.00000000000E+00  0.00000000000E+00  0.21852226993E+03  0.21852226993E+03  0.00000000000E+00 0.  1.
          1   -1    0    0  501    0  0.00000000000E+00 -0.00000000000E+00 -0.26666870150E+03  0.26666870150E+03  0.00000000000E+00 0. -1.
          5    1    1    2  502    0  0.53836100734E+02  0.11196964795E+03  0.11269903350E+03  0.16779175294E+03  0.41800000000E+01 0. -1.
         -5    1    1    2    0  502 -0.42633242152E+02  0.53664164611E+02  0.28319221979E-01  0.68665195709E+02  0.41800000000E+01 0. -1.
        -11    1    1    2    0    0 -0.25948017806E+02 -0.11026539411E+02 -0.48866917890E+01  0.28614051724E+02  0.00000000000E+00 0.  1.
         11    1    1    2    0    0  0.14745159224E+02 -0.15460727315E+03 -0.15598709250E+03  0.22011997105E+03  0.00000000000E+00 0. -1.
</event>
<event>
 6    1  0.6981059E-006  0.9111179E+02  0.7561462E-02  0.1300181E+00
          2   -1    0    0  501    0  0.00000000000E+00  0.00000000000E+00  0.65785007473E+03  0.65785007473E+03  0.00000000000E+00 0. -1.
         -2   -1    0    0    0  501 -0.00000000000E+00 -0.00000000000E+00 -0.22045805830E+02  0.22045805830E+02  0.00000000000E+00 0.  1.
          5    1    1    2  502    0 -0.35174647199E+02  0.35369802840E+02  0.39187065779E+02  0.63571827745E+02  0.41800000000E+01 0.  1.
         -5    1    1    2    0  502  0.26257471289E+02  0.15280263511E+00  0.27923394999E+03  0.28049696857E+03  0.41800000000E+01 0.  1.
        -11    1    1    2    0    0  0.52784687993E+02 -0.31633942904E+02  0.22836020144E+03  0.23650647186E+03  0.00000000000E+00 0. -1.
         11    1    1    2    0    0 -0.43867512083E+02 -0.38886625707E+01  0.89023051689E+02  0.99320612387E+02  0.00000000000E+00 0.  1.
</event>
<event>
 6    1  0.6981059E-006  0.6244270E+02  0.7561462E-02  0.1387858E+00
         -2   -1    0    0    0  501 -0.00000000000E+00  0.00000000000E+00  0.27930982850E+03  0.27930982850E+03  0.00000000000E+00 0.  1.
          2   -1    0    0  501    0  0.00000000000E+00 -0.00000000000E+00 -0.53673934332E+02  0.53673934332E+02  0.00000000000E+00 0. -1.
          5    1    1    2  502    0 -0.34024222411E+02  0.10607120652E+02  0.19320855952E+03  0.19651254054E+03  0.41800000000E+01 0.  1.
         -5    1    1    2    0  502  0.10670681531E+02 -0.31090853905E+02 -0.29819516844E+01  0.33269641969E+02  0.41800000000E+01 0.  1.
        -11    1    1    2    0    0  0.21429751141E+02  0.35099472445E+02  0.61059403355E+02  0.73616967731E+02  0.00000000000E+00 0.  1.
         11    1    1    2    0    0  0.19237897397E+01 -0.14615739192E+02 -0.25650117019E+02  0.29584612592E+02  0.00000000000E+00 0. -1.
</event>
<event>
 6    1  0.6981059E-006  0.1115668E+03  0.7561462E-02  0.1257696E+00
          2   -1    0    0  501    0  0.00000000000E+00  0.00000000000E+00  0.46147247542E+03  0.46147247542E+03  0.00000000000E+00 0. -1.
         -2   -1    0    0    0  501 -0.00000000000E+00 -0.00000000000E+00 -0.42484525319E+02  0.42484525319E+02  0.00000000000E+00 0.  1.
          5    1    1    2  502    0 -0.72044620075E+02  0.44938140210E+02  0.31305770253E+02  0.90594632172E+02  0.41800000000E+01 0. -1.
         -5    1    1    2    0  502  0.35458612416E+02 -0.95885551232E+01  0.66694033246E+02  0.76254967408E+02  0.41800000000E+01 0. -1.
        -11    1    1    2    0    0  0.25926495349E+02  0.27271537972E+02  0.90130977472E+02  0.97670430758E+02  0.00000000000E+00 0.  1.
         11    1    1    2    0    0  0.10659512310E+02 -0.62621123058E+02  0.23085716913E+03  0.23943697040E+03  0.00000000000E+00 0. -1.
</event>
<event>
 6    1  0.6981059E-006  0.1093063E+03  0.7561462E-02  0.1261860E+00
         -1   -1    0    0    0  501 -0.00000000000E+00  0.00000000000E+00  0.46301750293E+02  0.46301750293E+02  0.00000000000E+00 0.  1.
          1   -1    0    0  501    0  0.00000000000E+00 -0.00000000000E+00 -0.35463667625E+03  0.35463667625E+03  0.00000000000E+00 0. -1.
          5    1    1    2  502    0  0.50334126350E+02 -0.56490886374E+02 -0.80651662602E+02  0.11066574718E+03  0.41800000000E+01 0. -1.
         -5    1    1    2    0  502 -0.40467345636E+02  0.19505995559E+02 -0.43202284435E+01  0.45323577742E+02  0.41800000000E+01 0. -1.
        -11    1    1    2    0    0  0.25838568004E+02 -0.18471010980E+02 -0.47653797747E+02  0.57268615165E+02  0.00000000000E+00 0. -1.
         11    1    1    2    0    0 -0.35705348718E+02  0.55455901795E+02 -0.17570923716E+03  0.18768048645E+03  0.00000000000E+00 0.  1.
</event>
<event>
 6    1  0.6981059E-006  0.1480842E+03  0.7561462E-02  0.1202847E+00
         -1   -1    0    0    0  501 -0.00000000000E+00  0.00000000000E+00  0.22056510782E+02  0.22056510782E+02  0.00000000000E+00 0.  1.
          1   -1    0    0  501    0  0.00000000000E+00 -0.00000000000E+00 -0.12377925853E+04  0.12377925853E+04  0.00000000000E+00 0. -1.
          5    1    1    2  502    0  0.29966231155E+01 -0.33297947159E+02 -0.14531318547E+03  0.14916811759E+03  0.41800000000E+01 0. -1.
         -5    1    1    2    0  502  0.75293651415E+02  0.10490433281E+03 -0.74942280258E+03  0.76047752262E+03  0.41800000000E+01 0. -1.
        -11    1    1    2    0    0 -0.12254423508E+02 -0.65864525886E+02 -0.21489149903E+03  0.22509256545E+03  0.00000000000E+00 0. -1.
         11    1    1    2    0    0 -0.66035851023E+02 -0.57418597668E+01 -0.10610858748E+03  0.12511089045E+03  0.00000000000E+00 0.  1.
</event>
<event>
 6    1  0.6981059E-006  0.1135455E+03  0.7561462E-02  0.1254142E+00
         -1   -1    0    0    0  501 -0.00000000000E+00  0.00000000000E+00  0.41430183488E+02  0.41430183488E+02  0.00000000000E+00 0.  1.
          1   -1    0    0  501    0  0.00000000000E+00 -0.00000000000E+00 -0.37491269709E+03  0.37491269709E+03  0.00000000000E+00 0. -1.
          5    1    1    2  502    0 -0.45134890150E+02  0.20827131381E+02 -0.55048440944E+02  0.74288161647E+02  0.41800000000E+01 0.  1.
         -5    1    1    2    0  502  0.84748522314E+02  0.23904802303E+02 -0.12454694488E+03  0.15258822198E+03  0.41800000000E+01 0.  1.
        -11    1    1    2    0    0 -0.30703058730E+02  0.10998987164E+02 -0.11837327905E+03  0.12278391070E+03  0.00000000000E+00 0. -1.
         11    1    1    2    0    0 -0.89105734339E+01 -0.55730920849E+02 -0.35513848725E+02  0.66682586249E+02  0.00000000000E+00 0.  1.
</event>
<event>
 6    1  0.6981059E-006  0.8034513E+02  0.7561462E-02  0.1328075E+00
         -1   -1    0    0    0  501 -0.00000000000E+00  0.00000000000E+00  0.24306226390E+03  0.24306226390E+03  0.00000000000E+00 0.  1.
          1   -1    0    0  501    0  0.00000000000E+00 -0.00000000000E+00 -0.76110187137E+02  0.76110187137E+02  0.00000000000E+00 0. -1.
          5    1    1    2  502    0  0.17551758475E+02  0.13860465340E+02 -0.10868711299E+02  0.25214638810E+02  0.41800000000E+01 0.  1.
         -5    1    1    2    0  502 -0.76169525881E+02 -0.86724420597E+01  0.16402061224E+03  0.18110008714E+03  0.41800000000E+01 0.  1.
        -11    1    1    2    0    0  0.16392551709E+02 -0.91134648378E+01 -0.40103230075E+02  0.44272339619E+02  0.00000000000E+00 0. -1.
         11    1    1    2    0    0  0.42225215696E+02  0.39254415571E+01  0.53903405902E+02  0.68585385468E+02  0.00000000000E+00 0.  1.
</event>
<event>
 6    1  0.6981059E-006  0.1136067E+03  0.7561462E-02  0.1254033E+00
         -2   -1    0    0    0  501 -0.00000000000E+00  0.00000000000E+00  0.11158174689E+03  0.11158174689E+03  0.00000000000E+00 0.  1.
          2   -1    0    0  501    0  0.00000000000E+00 -0.00000000000E+00 -0.16997462259E+03  0.16997462259E+03  0.00000000000E+00 0. -1.
          5    1    1    2  502    0  0.16669992863E+02  0.31518378588E+02  0.31885627332E+02  0.48015231763E+02  0.41800000000E+01 0.  1.
         -5    1    1    2    0  502  0.66214947749E+02 -0.43620441122E+02 -0.73442107101E+02  0.10815903885E+03  0.41800000000E+01 0.  1.
        -11    1    1    2    0    0 -0.26639114564E+02 -0.31129427217E+02 -0.33017301194E+02  0.52619633615E+02  0.00000000000E+00 0. -1.
         11    1    1    2    0    0 -0.56245826048E+02  0.43231489751E+02  0.16180905261E+02  0.72762465249E+02  0.00000000000E+00 0.  1.
</event>
<event>
 6    1  0.6981059E-006  0.1069606E+03  0.7561462E-02  0.1266304E+00
          1   -1    0    0  501    0  0.00000000000E+00  0.00000000000E+00  0.23741102344E+03  0.23741102344E+03  0.00000000000E+00 0. -1.
         -1   -1    0    0    0  501 -0.00000000000E+00 -0.00000000000E+00 -0.93701613275E+02  0.93701613275E+02  0.00000000000E+00 0.  1.
          5    1    1    2  502    0  0.39260480534E+02  0.22426655154E+01 -0.47299685859E+02  0.61653447290E+02  0.41800000000E+01 0. -1.
         -5    1    1    2    0  502  0.15566161868E+02 -0.66037621020E+02  0.58191077898E+02  0.89481544087E+02  0.41800000000E+01 0. -1.
        -11    1    1    2    0    0  0.13709791319E+02  0.22605016748E+02  0.18158111344E+01  0.26499855288E+02  0.00000000000E+00 0.  1.
         11    1    1    2    0    0 -0.68536433721E+02  0.41189938757E+02  0.13100220699E+03  0.15347779005E+03  0.00000000000E+00 0. -1.
</event>
<event>
 6    1  0.6981059E-006  0.5429436E+02  0.7561462E-02  0.1423466E+00
          3   -1    0    0  501    0  0.00000000000E+00  0.00000000000E+00  0.58422671978E+02  0.58422671978E+02  0.00000000000E+00 0. -1.
         -3   -1    0    0    0  501 -0.00000000000E+00 -0.00000000000E+00 -0.23435888579E+03  0.23435888579E+03  0.00000000000E+00 0.  1.
          5    1    1    2  502    0  0.76077231856E+01 -0.19701722455E+01  0.35660587070E+02  0.36754712635E+02  0.41800000000E+01 0. -1.
         -5    1    1    2    0  502  0.30586028746E+02  0.83349473209E+01 -0.10844441315E+03  0.11306033630E+03  0.41800000000E+01 0. -1.
        -11    1    1    2    0    0  0.39413905914E+01 -0.22313710210E+02  0.71969243216E+01  0.23774607101E+02  0.00000000000E+00 0. -1.
         11    1    1    2    0    0 -0.42135142523E+02  0.15948935134E+02 -0.11034931206E+03  0.11919190173E+03  0.00000000000E+00 0.  1.
</event>
<event>
 6    1  0.6981059E-006  0.8973841E+02  0.7561462E-02  0.1303486E+00
          2   -1    0    0  501    0  0.00000000000E+00  0.00000000000E+00  0.16390534944E+03  0.16390534944E+03  0.00000000000E+00 0. -1.
         -2   -1    0    0    0  501 -0.00000000000E+00 -0.00000000000E+00 -0.15901807274E+03  0.15901807274E+03  0.00000000000E+00 0.  1.
          5    1    1    2  502    0 -0.79750781448E+02  0.22669683949E+02 -0.11249779835E+03  0.13981176183E+03  0.41800000000E+01 0.  1.
         -5    1    1    2    0  502  0.21859852001E+02 -0.19348466943E+02  0.10917377468E+02  0.31446427990E+02  0.41800000000E+01 0.  1.
        -11    1    1    2    0    0  0.13884051065E+02 -0.15990126404E+02  0.10364267416E+03  0.10578400127E+03  0.00000000000E+00 0. -1.
         11    1    1    2    0    0  0.44006878382E+02  0.12668909398E+02  0.28250234198E+01  0.45881231104E+02  0.00000000000E+00 0.  1.
</event>
<event>
 6    1  0.6981059E-006  0.8452902E+02  0.7561462E-02  0.1316669E+00
          2   -1    0    0  501    0  0.00000000000E+00  0.00000000000E+00  0.47442627535E+03  0.47442627535E+03  0.00000000000E+00 0. -1.
         -2   -1    0    0    0  501 -0.00000000000E+00 -0.00000000000E+00 -0.30310760621E+02  0.30310760621E+02  0.00000000000E+00 0.  1.
          5    1    1    2  502    0  0.46249763823E+02  0.72700305692E+01  0.25008235014E+02  0.53242635328E+02  0.41800000000E+01 0.  1.
         -5    1    1    2    0  502 -0.28355433817E+02 -0.54398367755E+02  0.19846890554E+03  0.20777533999E+03  0.41800000000E+01 0.  1.
        -11    1    1    2    0    0  0.99766875186E+01  0.15240996298E+02 -0.83275072960E+00  0.18235014006E+02  0.00000000000E+00 0.  1.
         11    1    1    2    0    0 -0.27871017524E+02  0.31887340887E+02  0.22147112490E+03  0.22548404665E+03  0.00000000000E+00 0. -1.
</event>
<event>
 6    1  0.6981059E-006  0.1043497E+03  0.7561462E-02  0.1271406E+00
         -2   -1    0    0    0  501 -0.00000000000E+00  0.00000000000E+00  0.53692143060E+02  0.53692143060E+02  0.00000000000E+00 0.  1.
          2   -1    0    0  501    0  0.00000000000E+00 -0.00000000000E+00 -0.23481748302E+03  0.23481748302E+03  0.00000000000E+00 0. -1.
          5    1    1    2  502    0  0.41871045437E+02 -0.49530087378E+02 -0.63247617584E+02  0.90687085805E+02  0.41800000000E+01 0.  1.
         -5    1    1    2    0  502 -0.38326662944E+02  0.35697318394E+02 -0.56788440386E+01  0.52848399243E+02  0.41800000000E+01 0.  1.
        -11    1    1    2    0    0 -0.76059071958E+01 -0.38212466498E+02 -0.39586826911E+02  0.55544210184E+02  0.00000000000E+00 0.  1.
         11    1    1    2    0    0  0.40615247020E+01  0.52045235481E+02 -0.72612051425E+02  0.89429930847E+02  0.00000000000E+00 0. -1.
</event>
<event>
 6    1  0.6981059E-006  0.1060963E+03  0.7561462E-02  0.1267975E+00
         -1   -1    0    0    0  501 -0.00000000000E+00  0.00000000000E+00  0.22514626834E+02  0.22514626834E+02  0.00000000000E+00 0.  1.
          1   -1    0    0  501    0  0.00000000000E+00 -0.00000000000E+00 -0.62128755219E+03  0.62128755219E+03  0.00000000000E+00 0. -1.
          5    1    1    2  502    0  0.59413925295E+02 -0.87612808332E+01 -0.24886652617E+03  0.25604451724E+03  0.41800000000E+01 0. -1.
         -5    1    1    2    0  502 -0.40900790342E+02 -0.32974958734E+02 -0.57441765137E+02  0.77956727331E+02  0.41800000000E+01 0. -1.
        -11    1    1    2    0    0 -0.35707287620E+02  0.62711734666E+02 -0.24172592823E+03  0.25226810427E+03  0.00000000000E+00 0. -1.
         11    1    1    2    0    0  0.17194152667E+02 -0.20975495098E+02 -0.50738705817E+02  0.57532830180E+02  0.00000000000E+00 0.  1.
</event>
<event>
 6    1  0.6981059E-006  0.1090262E+03  0.7561462E-02  0.1262384E+00
          1   -1    0    0  501    0  0.00000000000E+00  0.00000000000E+00  0.55879903998E+03  0.55879903998E+03  0.00000000000E+00 0. -1.
         -1   -1    0    0    0  501 -0.00000000000E+00 -0.00000000000E+00 -0.42639569006E+02  0.42639569006E+02  0.00000000000E+00 0.  1.
          5    1    1    2  502    0  0.24454739596E+02 -0.24194027808E+02  0.12559559318E+03  0.13028856702E+03  0.41800000000E+01 0. -1.
         -5    1    1    2    0  502 -0.41899014412E+02 -0.51412688114E+02  0.52468192085E+01  0.66661783802E+02  0.41800000000E+01 0. -1.
        -11    1    1    2    0    0  0.52909810120E+02  0.37271198306E+02  0.27384698135E+03  0.28139075931E+03  0.00000000000E+00 0. -1.
         11    1    1    2    0    0 -0.35465535304E+02  0.38335517615E+02  0.11147007724E+03  0.12309749886E+03  0.00000000000E+00 0.  1.
</event>
<event>
 6    1  0.6981059E-006  0.1063570E+03  0.7561462E-02  0.1267469E+00
         -2   -1    0    0    0  501 -0.00000000000E+00  0.00000000000E+00  0.12663804086E+03  0.12663804086E+03  0.00000000000E+00 0.  1.
          2   -1    0    0  501    0  0.00000000000E+00 -0.00000000000E+00 -0.18089544394E+03  0.18089544394E+03  0.00000000000E+00 0. -1.
          5    1    1    2  502    0  0.17165703990E+02 -0.21536609906E+02  0.57717550447E+02  0.64088025319E+02  0.41800000000E+01 0. -1.
         -5    1    1    2    0  502 -0.21875900931E+02  0.83315692129E+02 -0.18643181884E+01  0.86261275662E+02  0.41800000000E+01 0. -1.
        -11    1    1    2    0    0  0.38701776243E+02 -0.48677197617E+02 -0.10262075768E+03  0.11999298713E+03  0.00000000000E+00 0. -1.
         11    1    1    2    0    0 -0.33991579302E+02 -0.13101884606E+02 -0.74898776587E+01  0.37191196687E+02  0.00000000000E+00 0.  1.
</event>
<event>
 6    1  0.1121248E-005  0.7930482E+02  0.7561462E-02  0.1331036E+00
         -1   -1    0    0    0  501 -0.00000000000E+00  0.00000000000E+00  0.49280765970E+02  0.49280765970E+02  0.00000000000E+00 0.  1.
          1   -1    0    0  501    0  0.00000000000E+00 -0.00000000000E+00 -0.22877924729E+03  0.22877924729E+03  0.00000000000E+00 0. -1.
          5    1    1    2  502    0 -0.47996022367E+02  0.29344370464E+01  0.33430229279E+00  0.48268138993E+02  0.41800000000E+01 0. -1.
         -5    1    1    2    0  502  0.46433117675E+02  0.27011938743E+02 -0.10327368662E+03  0.11648435947E+03  0.41800000000E+01 0. -1.
        -11    1    1    2    0    0 -0.60880043490E+01 -0.41861412662E+02 -0.76866246856E+01  0.42994486461E+02  0.00000000000E+00 0.  1.
         11    1    1    2    0    0  0.76509090415E+01  0.11915036872E+02 -0.68872472305E+02  0.70313028339E+02  0.00000000000E+00 0. -1.
</event>
<event>
 6    1  0.6981059E-006  0.1928394E+03  0.7561462E-02  0.1155925E+00
          2   -1    0    0  501    0  0.00000000000E+00  0.00000000000E+00  0.13034484432E+04  0.13034484432E+04  0.00000000000E+00 0.  1.
         -2   -1    0    0    0  501 -0.00000000000E+00 -0.00000000000E+00 -0.33940178108E+02  0.33940178108E+02  0.00000000000E+00 0. -1.
          5    1    1    2  502    0  0.14999258531E+03  0.93738989657E+02  0.41310380079E+03  0.44939625773E+03  0.41800000000E+01 0. -1.
         -5    1    1    2    0  502 -0.40033025998E+01  0.95871689673E+01  0.21978482449E+03  0.22006994733E+03  0.41800000000E+01 0. -1.
        -11    1    1    2    0    0 -0.17694149034E+02 -0.59352139805E+02  0.13941083933E+03  0.15254881688E+03  0.00000000000E+00 0. -1.
         11    1    1    2    0    0 -0.12829513368E+03 -0.43974018819E+02  0.49720880049E+03  0.51537359938E+03  0.00000000000E+00 0.  1.
</event>
<event>
 6    1  0.6981059E-006  0.1317798E+03  0.7561462E-02  0.1224838E+00
          2   -1    0    0  501    0  0.00000000000E+00  0.00000000000E+00  0.56261377051E+02  0.56261377051E+02  0.00000000000E+00 0.  1.
         -2   -1    0    0    0  501 -0.00000000000E+00 -0.00000000000E+00 -0.52900129089E+03  0.52900129089E+03  0.00000000000E+00 0. -1.
          5    1    1    2  502    0 -0.37621302092E+02  0.11114906305E+03 -0.13045308265E+03  0.17551340621E+03  0.41800000000E+01 0. -1.
         -5    1    1    2    0  502  0.56568902530E+01  0.11731290132E+02 -0.19558073727E+03  0.19605846262E+03  0.41800000000E+01 0. -1.
        -11    1    1    2    0    0  0.15701464731E+02 -0.11153375970E+03 -0.65918404992E+02  0.13050498713E+03  0.00000000000E+00 0.  1.
         11    1    1    2    0    0  0.16262947108E+02 -0.11346593473E+02 -0.80787688932E+02  0.83185811982E+02  0.00000000000E+00 0. -1.
</event>
<event>
 6    1  0.6981059E-006  0.9207720E+02  0.7561462E-02  0.1297898E+00
         -4   -1    0    0    0  501 -0.00000000000E+00  0.00000000000E+00  0.74673906510E+02  0.74673906510E+02  0.00000000000E+00 0.  1.
          4   -1    0    0  501    0  0.00000000000E+00 -0.00000000000E+00 -0.17542734433E+03  0.17542734433E+03  0.00000000000E+00 0. -1.
          5    1    1    2  502    0 -0.54043471457E+02  0.40867049327E+02  0.54854527712E+01  0.68105617389E+02  0.41800000000E+01 0.  1.
         -5    1    1    2    0  502  0.28948772873E+02 -0.51254462769E+02 -0.10920879043E+02  0.60014909844E+02  0.41800000000E+01 0.  1.
        -11    1    1    2    0    0 -0.13718889564E+02  0.12259458356E+02  0.68536739972E+00  0.18411191665E+02  0.00000000000E+00 0. -1.
         11    1    1    2    0    0  0.38813588148E+02 -0.18720449142E+01 -0.96003378954E+02  0.10356953195E+03  0.00000000000E+00 0.  1.
</event>
<event>
 6    1  0.6981059E-006  0.9416892E+02  0.7561462E-02  0.1293059E+00
         -2   -1    0    0    0  501 -0.00000000000E+00  0.00000000000E+00  0.41810109858E+02  0.41810109858E+02  0.00000000000E+00 0.  1.
          2   -1    0    0  501    0  0.00000000000E+00 -0.00000000000E+00 -0.44170258301E+03  0.44170258301E+03  0.00000000000E+00 0. -1.
          5    1    1    2  502    0  0.61848182505E+02 -0.21174467385E+02 -0.20918374666E+02  0.68764864189E+02  0.41800000000E+01 0. -1.
         -5    1    1    2    0  502  0.10037533167E+01 -0.25783284538E+02 -0.17303916847E+03  0.17500231857E+03  0.41800000000E+01 0. -1.
        -11    1    1    2    0    0 -0.42075892359E+02  0.59161203599E+02 -0.20285515051E+03  0.21545449826E+03  0.00000000000E+00 0. -1.
         11    1    1    2    0    0 -0.20776043463E+02 -0.12203451675E+02 -0.30797795027E+01  0.24291011847E+02  0.00000000000E+00 0.  1.
</event>
<event>
 6    1  0.6981059E-006  0.1262015E+03  0.7561462E-02  0.1233203E+00
          1   -1    0    0  501    0  0.00000000000E+00  0.00000000000E+00  0.33161875502E+03  0.33161875502E+03  0.00000000000E+00 0. -1.
         -1   -1    0    0    0  501 -0.00000000000E+00 -0.00000000000E+00 -0.65143496800E+02  0.65143496800E+02  0.00000000000E+00 0.  1.
          5    1    1    2  502    0 -0.49282971781E+01  0.28828332995E+02  0.12882299476E+03  0.13216730790E+03  0.41800000000E+01 0.  1.
         -5    1    1    2    0  502  0.84342589131E+02  0.21557649216E+02  0.33656570631E+02  0.93427200149E+02  0.41800000000E+01 0.  1.
        -11    1    1    2    0    0  0.15202678100E+02  0.14474359137E+02  0.12471296002E+02  0.24416423116E+02  0.00000000000E+00 0.  1.
         11    1    1    2    0    0 -0.94616970053E+02 -0.64860341348E+02  0.91524396822E+02  0.14675132066E+03  0.00000000000E+00 0. -1.
</event>
<event>
 6    1  0.6981059E-006  0.1006270E+03  0.7561462E-02  0.1278983E+00
         -2   -1    0    0    0  501 -0.00000000000E+00  0.00000000000E+00  0.14102387206E+03  0.14102387206E+03  0.00000000000E+00 0.  1.
          2   -1    0    0  501    0  0.00000000000E+00 -0.00000000000E+00 -0.11105934160E+03  0.11105934160E+03  0.00000000000E+00 0. -1.
          5    1    1    2  502    0  0.53193217076E+02  0.54400940509E+02  0.77788955857E+02  0.10889249159E+03  0.41800000000E+01 0.  1.
         -5    1    1    2    0  502 -0.15981523109E+02 -0.30843746475E+02 -0.14716968642E+02  0.37957968116E+02  0.41800000000E+01 0.  1.
        -11    1    1    2    0    0 -0.43036559512E+02 -0.48273298730E+02 -0.43344485850E+02  0.77853717178E+02  0.00000000000E+00 0.  1.
         11    1    1    2    0    0  0.58248655450E+01  0.24716104695E+02  0.10237029096E+02  0.27379036773E+02  0.00000000000E+00 0. -1.
</event>
<event>
 6    1  0.6981059E-006  0.1031979E+03  0.7561462E-02  0.1273711E+00
         -4   -1    0    0    0  501 -0.00000000000E+00  0.00000000000E+00  0.91456407048E+02  0.91456407048E+02  0.00000000000E+00 0.  1.
          4   -1    0    0  501    0  0.00000000000E+00 -0.00000000000E+00 -0.14721107102E+03  0.14721107102E+03  0.00000000000E+00 0. -1.
          5    1    1    2  502    0  0.68509405395E+01 -0.56480886617E+02  0.24193769398E+02  0.61966416848E+02  0.41800000000E+01 0. -1.
         -5    1    1    2    0  502  0.30344472169E+02  0.38471249384E+02 -0.54132983209E+02  0.73134644947E+02  0.41800000000E+01 0. -1.
        -11    1    1    2    0    0  0.14386156401E+02  0.41183120692E+02 -0.13819069177E+02  0.45759999987E+02  0.00000000000E+00 0.  1.
         11    1    1    2    0    0 -0.51581569110E+02 -0.23173483459E+02 -0.11996380988E+02  0.57806416290E+02  0.00000000000E+00 0. -1.
</event>
<event>
 6    1  0.6981059E-006  0.7383927E+02  0.7561462E-02  0.1347504E+00
          2   -1    0    0  501    0  0.00000000000E+00  0.00000000000E+00  0.55170550251E+03  0.55170550251E+03  0.00000000000E+00 0. -1.
         -2   -1    0    0    0  501 -0.00000000000E+00 -0.00000000000E+00 -0.38587965955E+02  0.38587965955E+02  0.00000000000E+00 0.  1.
          5    1    1    2  502    0 -0.38046847610E+02  0.11152744035E+02  0.34265522200E+03  0.34496669386E+03  0.41800000000E+01 0. -1.
         -5    1    1    2    0  502 -0.77192191631E+00 -0.12182061235E+02 -0.24092774596E+02  0.27330068918E+02  0.41800000000E+01 0.  1.
        -11    1    1    2    0    0  0.26001569785E+02 -0.42339137542E+02  0.73023521745E+02  0.88323943113E+02  0.00000000000E+00 0.  1.
         11    1    1    2    0    0  0.12817199742E+02  0.43368454741E+02  0.12153156741E+03  0.12967276257E+03  0.00000000000E+00 0. -1.
</event>
<event>
 6    1  0.6981059E-006  0.1308175E+03  0.7561462E-02  0.1226248E+00
         -2   -1    0    0    0  501 -0.00000000000E+00  0.00000000000E+00  0.46427316617E+02  0.46427316617E+02  0.00000000000E+00 0.  1.
          2   -1    0    0  501    0  0.00000000000E+00 -0.00000000000E+00 -0.37912767340E+03  0.37912767340E+03  0.00000000000E+00 0. -1.
          5    1    1    2  502    0 -0.17549292837E+02 -0.36972894600E+02 -0.59464777838E+02  0.72308400739E+02  0.41800000000E+01 0.  1.
         -5    1    1    2    0  502  0.92221632187E+02  0.46673778178E+02 -0.99479470314E+02  0.14351623053E+03  0.41800000000E+01 0.  1.
        -11    1    1    2    0    0 -0.62925190240E+02  0.34191260881E+02 -0.11464054366E+03  0.13517054464E+03  0.00000000000E+00 0. -1.
         11    1    1    2    0    0 -0.11747149111E+02 -0.43892144459E+02 -0.59115564970E+02  0.74559814104E+02  0.00000000000E+00 0.  1.
</event>
<event>
 6    1  0.6981059E-006  0.1043179E+03  0.7561462E-02  0.1271469E+00
          1   -1    0    0  501    0  0.00000000000E+00  0.00000000000E+00  0.11428013568E+03  0.11428013568E+03  0.00000000000E+00 0. -1.
         -1   -1    0    0    0  501 -0.00000000000E+00 -0.00000000000E+00 -0.14028625165E+03  0.14028625165E+03  0.00000000000E+00 0.  1.
          5    1    1    2  502    0 -0.59132826423E+01  0.63886940047E+02 -0.19500690577E+02  0.67188223322E+02  0.41800000000E+01 0.  1.
         -5    1    1    2    0  502  0.13102829759E+02 -0.53175071001E+02 -0.61209503378E+02  0.82239577014E+02  0.41800000000E+01 0.  1.
        -11    1    1    2    0    0 -0.46503765865E+02  0.56224321283E+01  0.23876115186E+02  0.52576428740E+02  0.00000000000E+00 0.  1.
         11    1    1    2    0    0  0.39314218748E+02 -0.16334301175E+02  0.30827962790E+02  0.52562158255E+02  0.00000000000E+00 0. -1.
</event>
<event>
 6    1  0.6981059E-006  0.1135731E+03  0.7561462E-02  0.1254093E+00
         -1   -1    0    0    0  501 -0.00000000000E+00  0.00000000000E+00  0.64447917611E+02  0.64447917611E+02  0.00000000000E+00 0.  1.
          1   -1    0    0  501    0  0.00000000000E+00 -0.00000000000E+00 -0.31485881727E+03  0.31485881727E+03  0.00000000000E+00 0. -1.
          5    1    1    2  502    0  0.46538601937E+02 -0.40264048129E+02  0.87739888225E+01  0.62301607699E+02  0.41800000000E+01 0.  1.
         -5    1    1    2    0  502  0.39348267812E+02 -0.23522193759E+01 -0.13181478935E+03  0.13764603230E+03  0.41800000000E+01 0.  1.
        -11    1    1    2    0    0  0.14409367193E+02  0.17048270668E+02 -0.28708234179E+02  0.36365314591E+02  0.00000000000E+00 0. -1.
         11    1    1    2    0    0 -0.10029623694E+03  0.25567996837E+02 -0.98661864957E+02  0.14299378030E+03  0.00000000000E+00 0.  1.
</event>
<event>
 6    1  0.6981059E-006  0.1328264E+03  0.7561462E-02  0.1223321E+00
         -4   -1    0    0    0  501 -0.00000000000E+00  0.00000000000E+00  0.12012954777E+04  0.12012954777E+04  0.00000000000E+00 0.  1.
          4   -1    0    0  501    0  0.00000000000E+00 -0.00000000000E+00 -0.16606393430E+02  0.16606393430E+02  0.00000000000E+00 0. -1.
          5    1    1    2  502    0 -0.39471236623E+02 -0.49593595590E+01  0.14655744159E+03  0.15191816828E+03  0.41800000000E+01 0.  1.
         -5    1    1    2    0  502  0.63866959447E+02  0.83525178235E+02  0.67887805941E+03  0.68698496043E+03  0.41800000000E+01 0.  1.
        -11    1    1    2    0    0  0.29558039065E+02 -0.62710920592E+01  0.10238985478E+03  0.10675526512E+03  0.00000000000E+00 0.  1.
         11    1    1    2    0    0 -0.53953761889E+02 -0.72294726617E+02  0.25686372846E+03  0.27224347727E+03  0.00000000000E+00 0. -1.
</event>
<event>
 6    1  0.6981059E-006  0.1104190E+03  0.7561462E-02  0.1259796E+00
          1   -1    0    0  501    0  0.00000000000E+00  0.00000000000E+00  0.82828714114E+02  0.82828714114E+02  0.00000000000E+00 0. -1.
         -1   -1    0    0    0  501 -0.00000000000E+00 -0.00000000000E+00 -0.22014056630E+03  0.22014056630E+03  0.00000000000E+00 0.  1.
          5    1    1    2  502    0  0.59105100793E+02 -0.98161621770E+01 -0.32538962872E+02  0.68308319292E+02  0.41800000000E+01 0. -1.
         -5    1    1    2    0  502 -0.52040117587E+02 -0.51600449760E+02 -0.10075897100E+03  0.12466203468E+03  0.41800000000E+01 0. -1.
        -11    1    1    2    0    0 -0.12984208930E+02 -0.95763855352E+01 -0.30085719208E+02  0.34138648797E+02  0.00000000000E+00 0.  1.
         11    1    1    2    0    0  0.59192257241E+01  0.70992997472E+02  0.26071800889E+02  0.75860277648E+02  0.00000000000E+00 0. -1.
</event>
<event>
 6    1  0.6981059E-006  0.1026732E+03  0.7561462E-02  0.1274773E+00
         -1   -1    0    0    0  501 -0.00000000000E+00  0.00000000000E+00  0.50288195523E+02  0.50288195523E+02  0.00000000000E+00 0.  1.
          1   -1    0    0  501    0  0.00000000000E+00 -0.00000000000E+00 -0.28481574498E+03  0.28481574498E+03  0.00000000000E+00 0. -1.
          5    1    1    2  502    0 -0.53863857537E+01  0.50553841814E+02 -0.14684828563E+01  0.51032665182E+02  0.41800000000E+01 0. -1.
         -5    1    1    2    0  502 -0.16780840381E+02 -0.63073113012E+02 -0.67807329894E+02  0.94207858357E+02  0.41800000000E+01 0. -1.
        -11    1    1    2    0    0  0.54071919997E+02 -0.14817132329E+01 -0.12745181192E+03  0.13845552487E+03  0.00000000000E+00 0.  1.
         11    1    1    2    0    0 -0.31904693862E+02  0.14000984431E+02 -0.37799924791E+02  0.51407892095E+02  0.00000000000E+00 0. -1.
</event>
<event>
 6    1  0.6981059E-006  0.3666733E+03  0.7561462E-02  0.1055972E+00
          2   -1    0    0  501    0  0.00000000000E+00  0.00000000000E+00  0.37336934442E+03  0.37336934442E+03  0.00000000000E+00 0. -1.
         -2   -1    0    0    0  501 -0.00000000000E+00 -0.00000000000E+00 -0.36277429690E+03  0.36277429690E+03  0.00000000000E+00 0.  1.
          5    1    1    2  502    0  0.11084375463E+03  0.44737898077E+01  0.19203591969E+02  0.11266145339E+03  0.41800000000E+01 0. -1.
         -5    1    1    2    0  502  0.18813715981E+03  0.18005404106E+03 -0.61070572269E+01  0.26051836240E+03  0.41800000000E+01 0. -1.
        -11    1    1    2    0    0 -0.71081697124E+02 -0.91174981847E+02 -0.13781542035E+02  0.11642772815E+03  0.00000000000E+00 0.  1.
         11    1    1    2    0    0 -0.22789921732E+03 -0.93352849018E+02  0.11280054812E+02  0.24653609738E+03  0.00000000000E+00 0. -1.
</event>
<event>
 6    1  0.6981059E-006  0.1562257E+03  0.7561462E-02  0.1193025E+00
         -2   -1    0    0    0  501 -0.00000000000E+00  0.00000000000E+00  0.28835770248E+02  0.28835770248E+02  0.00000000000E+00 0.  1.
          2   -1    0    0  501    0  0.00000000000E+00 -0.00000000000E+00 -0.93634933884E+03  0.93634933884E+03  0.00000000000E+00 0. -1.
          5    1    1    2  502    0  0.59553151307E+01 -0.11475897205E+03 -0.31968182554E+03  0.33973376256E+03  0.41800000000E+01 0. -1.
         -5    1    1    2    0  502  0.59854802340E+02  0.96697066904E+01 -0.14603463076E+03  0.15817612454E+03  0.41800000000E+01 0. -1.
        -11    1    1    2    0    0  0.21255440282E+00  0.51911441957E+02 -0.27836415046E+03  0.28316328019E+03  0.00000000000E+00 0. -1.
         11    1    1    2    0    0 -0.66022671873E+02  0.53177823398E+02 -0.16343296183E+03  0.18411194180E+03  0.00000000000E+00 0.  1.
</event>
<event>
 6    1  0.6981059E-006  0.1109244E+03  0.7561462E-02  0.1258868E+00
          1   -1    0    0  501    0  0.00000000000E+00  0.00000000000E+00  0.57568788096E+03  0.57568788096E+03  0.00000000000E+00 0. -1.
         -1   -1    0    0    0  501 -0.00000000000E+00 -0.00000000000E+00 -0.21983801047E+02  0.21983801047E+02  0.00000000000E+00 0.  1.
          5    1    1    2  502    0 -0.61131343064E+02 -0.20855033507E+02  0.12510944050E+03  0.14086098832E+03  0.41800000000E+01 0.  1.
         -5    1    1    2    0  502  0.43273254142E+02  0.46502251425E+02  0.15060787301E+03  0.16350913651E+03  0.41800000000E+01 0.  1.
        -11    1    1    2    0    0  0.14932544710E+02 -0.58553436203E+02  0.18521899306E+03  0.19482700320E+03  0.00000000000E+00 0. -1.
         11    1    1    2    0    0  0.29255442125E+01  0.32906218285E+02  0.92767773342E+02  0.98474553981E+02  0.00000000000E+00 0.  1.
</event>
<event>
 6    1  0.6981059E-006  0.1282965E+03  0.7561462E-02  0.1230006E+00
         -1   -1    0    0    0  501 -0.00000000000E+00  0.00000000000E+00  0.24189035157E+02  0.24189035157E+02  0.00000000000E+00 0.  1.
          1   -1    0    0  501    0  0.00000000000E+00 -0.00000000000E+00 -0.76346237949E+03  0.76346237949E+03  0.00000000000E+00 0. -1.
          5    1    1    2  502    0  0.29521092919E+02  0.80139354617E+02 -0.14114306779E+03  0.16502317738E+03  0.41800000000E+01 0.  1.
         -5    1    1    2    0  502  0.32773239781E+02 -0.39949209149E+02 -0.18381246873E+03  0.19098303752E+03  0.41800000000E+01 0.  1.
        -11    1    1    2    0    0 -0.74753401236E+02 -0.59992786789E+02 -0.35917603115E+03  0.37174537901E+03  0.00000000000E+00 0.  1.
         11    1    1    2    0    0  0.12459068536E+02  0.19802641321E+02 -0.55141776660E+02  0.59899820745E+02  0.00000000000E+00 0. -1.
</event>
<event>
 6    1  0.6981059E-006  0.1050445E+03  0.7561462E-02  0.1270032E+00
          2   -1    0    0  501    0  0.00000000000E+00  0.00000000000E+00  0.25837547469E+03  0.25837547469E+03  0.00000000000E+00 0. -1.
         -2   -1    0    0    0  501 -0.00000000000E+00 -0.00000000000E+00 -0.68272947269E+02  0.68272947269E+02  0.00000000000E+00 0.  1.
          5    1    1    2  502    0 -0.22735296986E+01 -0.38551620517E+02 -0.20355542036E+02  0.43854496615E+02  0.41800000000E+01 0. -1.
         -5    1    1    2    0  502  0.50910606560E+02 -0.20251706349E+02  0.12398656214E+03  0.13561770335E+03  0.41800000000E+01 0. -1.
        -11    1    1    2    0    0 -0.13638424114E+01 -0.22342094206E+02  0.51965595090E+01  0.22978978879E+02  0.00000000000E+00 0.  1.
         11    1    1    2    0    0 -0.47273234450E+02  0.81145421071E+02  0.81274947806E+02  0.12419724311E+03  0.00000000000E+00 0. -1.
</event>
<event>
 6    1  0.6981059E-006  0.1697766E+03  0.7561462E-02  0.1178081E+00
         -2   -1    0    0    0  501 -0.00000000000E+00  0.00000000000E+00  0.38459032836E+03  0.38459032836E+03  0.00000000000E+00 0.  1.
          2   -1    0    0  501    0  0.00000000000E+00 -0.00000000000E+00 -0.10226618718E+03  0.10226618718E+03  0.00000000000E+00 0. -1.
          5    1    1    2  502    0  0.11166825772E+03  0.11054408021E+02  0.15114832533E+03  0.18829574708E+03  0.41800000000E+01 0. -1.
         -5    1    1    2    0  502 -0.61935530363E+01  0.67775995124E+02  0.12102562838E+03  0.13891227713E+03  0.41800000000E+01 0. -1.
        -11    1    1    2    0    0 -0.30750853362E+02 -0.78545113892E+02  0.91102432433E+00  0.84355082029E+02  0.00000000000E+00 0. -1.
         11    1    1    2    0    0 -0.74723851326E+02 -0.28528925203E+00  0.92391631522E+01  0.75293409291E+02  0.00000000000E+00 0.  1.
</event>
<event>
 6    1  0.6981059E-006  0.1189629E+03  0.7561462E-02  0.1244818E+00
          1   -1    0    0  501    0  0.00000000000E+00  0.00000000000E+00  0.73015400036E+02  0.73015400036E+02  0.00000000000E+00 0. -1.
         -1   -1    0    0    0  501 -0.00000000000E+00 -0.00000000000E+00 -0.29990563127E+03  0.29990563127E+03  0.00000000000E+00 0.  1.
          5    1    1    2  502    0 -0.54758325217E+02  0.45176979021E+02 -0.14127165702E+03  0.15816000471E+03  0.41800000000E+01 0.  1.
         -5    1    1    2    0  502  0.59997606860E+02  0.32355035861E+02 -0.57865068322E+02  0.89512008727E+02  0.41800000000E+01 0.  1.
        -11    1    1    2    0    0  0.27281047469E+02 -0.26679142301E+02 -0.48238173411E+02  0.61505719726E+02  0.00000000000E+00 0.  1.
         11    1    1    2    0    0 -0.32520329113E+02 -0.50852872581E+02  0.20484667512E+02  0.63743298145E+02  0.00000000000E+00 0. -1.
</event>
<event>
 6    1  0.6981059E-006  0.5021911E+02  0.7561462E-02  0.1444163E+00
         -1   -1    0    0    0  501 -0.00000000000E+00  0.00000000000E+00  0.26158299150E+03  0.26158299150E+03  0.00000000000E+00 0.  1.
          1   -1    0    0  501    0  0.00000000000E+00 -0.00000000000E+00 -0.61152490105E+02  0.61152490105E+02  0.00000000000E+00 0. -1.
          5    1    1    2  502    0  0.57940242461E+01  0.34944942609E+00  0.17188631589E+03  0.17203508602E+03  0.41800000000E+01 0.  1.
         -5    1    1    2    0  502 -0.11181330565E+02  0.43057615720E+02 -0.40252871629E+00  0.44683496440E+02  0.41800000000E+01 0.  1.
        -11    1    1    2    0    0 -0.76597265601E+01 -0.90722055912E+01 -0.32404404564E+02  0.34511183121E+02  0.00000000000E+00 0. -1.
         11    1    1    2    0    0  0.13047032879E+02 -0.34334859555E+02  0.61351118783E+02  0.71505716020E+02  0.00000000000E+00 0.  1.
</event>
<event>
 6    1  0.6981059E-006  0.1148523E+03  0.7561462E-02  0.1251839E+00
          2   -1    0    0  501    0  0.00000000000E+00  0.00000000000E+00  0.30655459017E+03  0.30655459017E+03  0.00000000000E+00 0. -1.
         -2   -1    0    0    0  501 -0.00000000000E+00 -0.00000000000E+00 -0.56025532878E+02  0.56025532878E+02  0.00000000000E+00 0.  1.
          5    1    1    2  502    0  0.28650431309E+02 -0.51848452774E+02  0.82433044929E+02  0.10159620350E+03  0.41800000000E+01 0. -1.
         -5    1    1    2    0  502  0.43346528506E+02  0.64875691201E+02  0.38267544288E+02  0.87003759621E+02  0.41800000000E+01 0. -1.
        -11    1    1    2    0    0 -0.47293058904E+02  0.19655299380E+02  0.17029903052E+02  0.53972046581E+02  0.00000000000E+00 0.  1.
         11    1    1    2    0    0 -0.24703900911E+02 -0.32682537806E+02  0.11279856502E+03  0.12000811335E+03  0.00000000000E+00 0. -1.
</event>
<event>
 6    1  0.6981059E-006  0.7909776E+02  0.7561462E-02  0.1331632E+00
         -1   -1    0    0    0  501 -0.00000000000E+00  0.00000000000E+00  0.75784643304E+02  0.75784643304E+02  0.00000000000E+00 0.  1.
          1   -1    0    0  501    0  0.00000000000E+00 -0.00000000000E+00 -0.17519924182E+03  0.17519924182E+03  0.00000000000E+00 0. -1.
          5    1    1    2  502    0  0.51542169087E+02 -0.18020808482E+02 -0.40843851170E+02  0.68315717891E+02  0.41800000000E+01 0. -1.
         -5    1    1    2    0  502 -0.49023446872E+02  0.11407246447E+02  0.27797080743E+02  0.57650444166E+02  0.41800000000E+01 0. -1.
        -11    1    1    2    0    0  0.78968457479E+01  0.28025520049E+02 -0.95252448947E+02  0.99603308064E+02  0.00000000000E+00 0. -1.
         11    1    1    2    0    0 -0.10415567963E+02 -0.21411958014E+02  0.88846208609E+01  0.25414415001E+02  0.00000000000E+00 0.  1.
</event>
<event>
 6    1  0.6981059E-006  0.9815137E+02  0.7561462E-02  0.1284232E+00
         -1   -1    0    0    0  501 -0.00000000000E+00  0.00000000000E+00  0.11690861057E+03  0.11690861057E+03  0.00000000000E+00 0.  1.
          1   -1    0    0  501    0  0.00000000000E+00 -0.00000000000E+00 -0.15150082427E+03  0.15150082427E+03  0.00000000000E+00 0. -1.
          5    1    1    2  502    0 -0.43366884622E+02  0.84255619702E+02  0.12290293464E+02  0.95646326885E+02  0.41800000000E+01 0. -1.
         -5    1    1    2    0  502  0.26796980695E+01 -0.41716520450E+02  0.18952271687E+02  0.46088066376E+02  0.41800000000E+01 0. -1.
        -11    1    1    2    0    0  0.12365525661E+02 -0.78111149995E+01  0.22954453012E+02  0.27218131007E+02  0.00000000000E+00 0.  1.
         11    1    1    2    0    0  0.28321660891E+02 -0.34727984253E+02 -0.88789231859E+02  0.99456910569E+02  0.00000000000E+00 0. -1.
</event>
<event>
 6    1  0.6981059E-006  0.1181258E+03  0.7561462E-02  0.1246221E+00
         -1   -1    0    0    0  501 -0.00000000000E+00  0.00000000000E+00  0.19902325841E+03  0.19902325841E+03  0.00000000000E+00 0.  1.
          1   -1    0    0  501    0  0.00000000000E+00 -0.00000000000E+00 -0.78264446393E+02  0.78264446393E+02  0.00000000000E+00 0. -1.
          5    1    1    2  502    0  0.17031421161E+02 -0.91789539279E+02  0.46816978152E+02  0.10452124507E+03  0.41800000000E+01 0.  1.
         -5    1    1    2    0  502 -0.25702076921E+02  0.33983690645E+02  0.39879371978E+02  0.58509184725E+02  0.41800000000E+01 0.  1.
        -11    1    1    2    0    0 -0.31756339746E+02  0.49353485828E+02  0.42041773832E+02  0.72192398661E+02  0.00000000000E+00 0.  1.
         11    1    1    2    0    0  0.40426995506E+02  0.84523628062E+01 -0.79793119470E+01  0.42064876344E+02  0.00000000000E+00 0. -1.
</event>
<event>
 6    1  0.6981059E-006  0.1268753E+03  0.7561462E-02  0.1232167E+00
         -2   -1    0    0    0  501 -0.00000000000E+00  0.00000000000E+00  0.75335655138E+02  0.75335655138E+02  0.00000000000E+00 0. -1.
          2   -1    0    0  501    0  0.00000000000E+00 -0.00000000000E+00 -0.26746068090E+03  0.26746068090E+03  0.00000000000E+00 0.  1.
          5    1    1    2  502    0  0.27920712177E+02 -0.18359394534E+02 -0.67629993902E+02  0.75550790937E+02  0.41800000000E+01 0. -1.
         -5    1    1    2    0  502 -0.79282214622E+02 -0.53624195510E+02 -0.10382133585E+02  0.96366410109E+02  0.41800000000E+01 0. -1.
        -11    1    1    2    0    0  0.73886625734E+02  0.69791389765E+02 -0.77407615168E+02  0.12775762378E+03  0.00000000000E+00 0. -1.
         11    1    1    2    0    0 -0.22525123289E+02  0.21922002797E+01 -0.36705283106E+02  0.43121511211E+02  0.00000000000E+00 0.  1.
</event>
<event>
 6    1  0.6981059E-006  0.4496547E+03  0.7561462E-02  0.1027825E+00
          1   -1    0    0  501    0  0.00000000000E+00  0.00000000000E+00  0.84419232253E+03  0.84419232253E+03  0.00000000000E+00 0. -1.
         -1   -1    0    0    0  501 -0.00000000000E+00 -0.00000000000E+00 -0.31385943817E+03  0.31385943817E+03  0.00000000000E+00 0.  1.
          5    1    1    2  502    0  0.31637076860E+03  0.23422015062E+03 -0.20539097181E+02  0.39419394857E+03  0.41800000000E+01 0. -1.
         -5    1    1    2    0  502  0.64024995922E+02 -0.57225960770E+02  0.34180539548E+02  0.92519145979E+02  0.41800000000E+01 0.  1.
        -11    1    1    2    0    0 -0.18988441979E+03 -0.82810490813E+02  0.18692932216E+03  0.27902731363E+03  0.00000000000E+00 0.  1.
         11    1    1    2    0    0 -0.19051134472E+03 -0.94183699038E+02  0.32976211984E+03  0.39231135251E+03  0.00000000000E+00 0. -1.
</event>
<event>
 6    1  0.6981059E-006  0.9974126E+02  0.7561462E-02  0.1280841E+00
          1   -1    0    0  501    0  0.00000000000E+00  0.00000000000E+00  0.24564520783E+02  0.24564520783E+02  0.00000000000E+00 0. -1.
         -1   -1    0    0    0  501 -0.00000000000E+00 -0.00000000000E+00 -0.75032652339E+03  0.75032652339E+03  0.00000000000E+00 0.  1.
          5    1    1    2  502    0 -0.31476398890E+01 -0.19153421682E+02 -0.38982387374E+03  0.39032920226E+03  0.41800000000E+01 0.  1.
         -5    1    1    2    0  502  0.47649544121E+02 -0.43759140968E+02 -0.86240689991E+02  0.10789008519E+03  0.41800000000E+01 0.  1.
        -11    1    1    2    0    0 -0.53774698415E+02  0.79391622692E+02 -0.23085488536E+03  0.24997745106E+03  0.00000000000E+00 0.  1.
         11    1    1    2    0    0  0.92727941829E+01 -0.16479060042E+02 -0.18842553525E+02  0.26694305669E+02  0.00000000000E+00 0. -1.
</event>
<event>
 6    1  0.6981059E-006  0.8358412E+02  0.7561462E-02  0.1319177E+00
          2   -1    0    0  501    0  0.00000000000E+00  0.00000000000E+00  0.21846291906E+03  0.21846291906E+03  0.00000000000E+00 0. -1.
         -2   -1    0    0    0  501 -0.00000000000E+00 -0.00000000000E+00 -0.77703437779E+02  0.77703437779E+02  0.00000000000E+00 0.  1.
          5    1    1    2  502    0  0.81823830226E+02 -0.41560224457E+01  0.96325441778E+02  0.12652460175E+03  0.41800000000E+01 0. -1.
         -5    1    1    2    0  502 -0.11221992696E+02 -0.48535076625E+01 -0.29464498040E+02  0.32173260659E+02  0.41800000000E+01 0. -1.
        -11    1    1    2    0    0 -0.54713801565E+02  0.12073807062E+02 -0.56284142619E+01  0.56312129650E+02  0.00000000000E+00 0.  1.
         11    1    1    2    0    0 -0.15888035965E+02 -0.30642769538E+01  0.79526951809E+02  0.81156364778E+02  0.00000000000E+00 0. -1.
</event>
<event>
 6    1  0.6981059E-006  0.1570087E+03  0.7561462E-02  0.1192116E+00
         -4   -1    0    0    0  501 -0.00000000000E+00  0.00000000000E+00  0.34665503398E+03  0.34665503398E+03  0.00000000000E+00 0. -1.
          4   -1    0    0  501    0  0.00000000000E+00 -0.00000000000E+00 -0.12560212978E+03  0.12560212978E+03  0.00000000000E+00 0.  1.
          5    1    1    2  502    0 -0.41716104995E+02  0.33387349898E+02  0.11018659517E+03  0.12252961562E+03  0.41800000000E+01 0.  1.
         -5    1    1    2    0  502  0.83406187839E+02  0.91147436536E+02  0.14508682294E+03  0.19060982647E+03  0.41800000000E+01 0.  1.
        -11    1    1    2    0    0  0.57140800404E+01 -0.35284138230E+02 -0.45019622215E+02  0.57483802116E+02  0.00000000000E+00 0.  1.
         11    1    1    2    0    0 -0.47404162884E+02 -0.89250648205E+02  0.10799108305E+02  0.10163391955E+03  0.00000000000E+00 0. -1.
</event>
<event>
 6    1  0.6981059E-006  0.1124553E+03  0.7561462E-02  0.1256089E+00
          3   -1    0    0  501    0  0.00000000000E+00  0.00000000000E+00  0.51311576862E+03  0.51311576862E+03  0.00000000000E+00 0. -1.
         -3   -1    0    0    0  501 -0.00000000000E+00 -0.00000000000E+00 -0.29139429537E+02  0.29139429537E+02  0.00000000000E+00 0.  1.
          5    1    1    2  502    0 -0.77140088789E+02  0.26334094245E+02  0.99443810417E+02  0.12864921939E+03  0.41800000000E+01 0. -1.
         -5    1    1    2    0  502  0.25311813157E+02 -0.41491401827E+02  0.12148450333E+03  0.13091287660E+03  0.41800000000E+01 0. -1.
        -11    1    1    2    0    0  0.83082691590E+01 -0.30395076874E+02  0.40010384549E+02  0.50928566702E+02  0.00000000000E+00 0.  1.
         11    1    1    2    0    0  0.43520006473E+02  0.45552384456E+02  0.22303764078E+03  0.23176453546E+03  0.00000000000E+00 0. -1.
</event>
<event>
 6    1  0.6981059E-006  0.1678088E+03  0.7561462E-02  0.1180152E+00
         -2   -1    0    0    0  501 -0.00000000000E+00  0.00000000000E+00  0.78243095127E+03  0.78243095127E+03  0.00000000000E+00 0.  1.
          2   -1    0    0  501    0  0.00000000000E+00 -0.00000000000E+00 -0.50652985123E+02  0.50652985123E+02  0.00000000000E+00 0. -1.
          5    1    1    2  502    0  0.13960003600E+03  0.53948832066E+02  0.52181057515E+03  0.54286498807E+03  0.41800000000E+01 0. -1.
         -5    1    1    2    0  502 -0.16295417747E+02  0.23405242112E+02  0.31061928758E+02  0.42375250041E+02  0.41800000000E+01 0. -1.
        -11    1    1    2    0    0 -0.30689148615E+02  0.73587532501E+01  0.86226441518E+02  0.91820337121E+02  0.00000000000E+00 0.  1.
         11    1    1    2    0    0 -0.92615469635E+02 -0.84712827428E+02  0.92679020719E+02  0.15602336116E+03  0.00000000000E+00 0. -1.
</event>
<event>
 6    1  0.6981059E-006  0.9317669E+02  0.7561462E-02  0.1295336E+00
          1   -1    0    0  501    0  0.00000000000E+00  0.00000000000E+00  0.47183347365E+02  0.47183347365E+02  0.00000000000E+00 0. -1.
         -1   -1    0    0    0  501 -0.00000000000E+00 -0.00000000000E+00 -0.38602932780E+03  0.38602932780E+03  0.00000000000E+00 0.  1.
          5    1    1    2  502    0  0.35188498157E+02  0.29356513377E+02 -0.21764603485E+02  0.50903886345E+02  0.41800000000E+01 0. -1.
         -5    1    1    2    0  502 -0.29914838756E+02  0.26107083207E+02 -0.25262477081E+03  0.25576009188E+03  0.41800000000E+01 0. -1.
        -11    1    1    2    0    0 -0.21533219748E+02 -0.73229315422E+02 -0.67975405474E+02  0.10220992094E+03  0.00000000000E+00 0.  1.
         11    1    1    2    0    0  0.16259560348E+02  0.17765718838E+02  0.35187993303E+01  0.24338776001E+02  0.00000000000E+00 0. -1.
</event>
<event>
 6    1  0.6981059E-006  0.1178673E+03  0.7561462E-02  0.1246657E+00
          1   -1    0    0  501    0  0.00000000000E+00  0.00000000000E+00  0.45908772781E+03  0.45908772781E+03  0.00000000000E+00 0. -1.
         -1   -1    0    0    0  501 -0.00000000000E+00 -0.00000000000E+00 -0.60011428168E+02  0.60011428168E+02  0.00000000000E+00 0.  1.
          5    1    1    2  502    0  0.47198024657E+02  0.43469335076E+01 -0.11852309212E+02  0.49035691044E+02  0.41800000000E+01 0.  1.
         -5    1    1    2    0  502 -0.42791786217E+02  0.46254698397E+02  0.80819102979E+02  0.10256624151E+03  0.41800000000E+01 0.  1.
        -11    1    1    2    0    0 -0.49517255288E+02 -0.61138886833E+02  0.30463292673E+03  0.31462857801E+03  0.00000000000E+00 0. -1.
         11    1    1    2    0    0  0.45111016848E+02  0.10537254928E+02  0.25476579144E+02  0.52868645408E+02  0.00000000000E+00 0.  1.
</event>
<event>
 6    1  0.6981059E-006  0.1043019E+03  0.7561462E-02  0.1271501E+00
          1   -1    0    0  501    0  0.00000000000E+00  0.00000000000E+00  0.20005674672E+02  0.20005674672E+02  0.00000000000E+00 0. -1.
         -1   -1    0    0    0  501 -0.00000000000E+00 -0.00000000000E+00 -0.85163731282E+03  0.85163731282E+03  0.00000000000E+00 0.  1.
          5    1    1    2  502    0 -0.27925837948E+02  0.20632156120E+02 -0.92113222652E+02  0.98528455172E+02  0.41800000000E+01 0. -1.
         -5    1    1    2    0  502  0.90798473496E+02  0.16621322897E+02 -0.48053058223E+03  0.48933398004E+03  0.41800000000E+01 0.  1.
        -11    1    1    2    0    0 -0.41206400642E+02 -0.42226950061E+02 -0.25430934105E+03  0.26106383072E+03  0.00000000000E+00 0.  1.
         11    1    1    2    0    0 -0.21666234906E+02  0.49734710444E+01 -0.46784922245E+01  0.22716721567E+02  0.00000000000E+00 0. -1.
</event>
<event>
 6    1  0.6981059E-006  0.9346762E+02  0.7561462E-02  0.1294665E+00
         -1   -1    0    0    0  501 -0.00000000000E+00  0.00000000000E+00  0.10974533697E+03  0.10974533697E+03  0.00000000000E+00 0.  1.
          1   -1    0    0  501    0  0.00000000000E+00 -0.00000000000E+00 -0.17409865847E+03  0.17409865847E+03  0.00000000000E+00 0. -1.
          5    1    1    2  502    0 -0.60899406281E+02 -0.13624457214E+02 -0.23421674540E+02  0.66786306665E+02  0.41800000000E+01 0. -1.
         -5    1    1    2    0  502  0.19430452816E+02  0.25843200502E+02  0.63695780808E+02  0.71554443619E+02  0.41800000000E+01 0. -1.
        -11    1    1    2    0    0  0.18138965067E+01 -0.42097909138E+02 -0.18350673722E+02  0.45959453874E+02  0.00000000000E+00 0.  1.
         11    1    1    2    0    0  0.39655056958E+02  0.29879165850E+02 -0.86276754042E+02  0.99543791279E+02  0.00000000000E+00 0. -1.
</event>
<event>
 6    1  0.6981059E-006  0.1074477E+03  0.7561462E-02  0.1265371E+00
          4   -1    0    0  501    0  0.00000000000E+00  0.00000000000E+00  0.94704675974E+02  0.94704675974E+02  0.00000000000E+00 0. -1.
         -4   -1    0    0    0  501 -0.00000000000E+00 -0.00000000000E+00 -0.15076846655E+03  0.15076846655E+03  0.00000000000E+00 0.  1.
          5    1    1    2  502    0 -0.50645271832E+02 -0.21500317821E+02 -0.16214898566E+01  0.55202435224E+02  0.41800000000E+01 0. -1.
         -5    1    1    2    0  502  0.33778669407E+02  0.52496789226E+02 -0.67387384335E+02  0.91953484727E+02  0.41800000000E+01 0. -1.
        -11    1    1    2    0    0 -0.76331445537E+01 -0.59258863388E+02  0.41408277324E+01  0.59891771055E+02  0.00000000000E+00 0.  1.
         11    1    1    2    0    0  0.24499746978E+02  0.28262391982E+02  0.88042558845E+01  0.38425451517E+02  0.00000000000E+00 0. -1.
</event>
<event>
 6    1  0.6981059E-006  0.1016573E+03  0.7561462E-02  0.1276849E+00
         -1   -1    0    0    0  501 -0.00000000000E+00  0.00000000000E+00  0.54074021757E+03  0.54074021757E+03  0.00000000000E+00 0.  1.
          1   -1    0    0  501    0  0.00000000000E+00 -0.00000000000E+00 -0.28354078293E+02  0.28354078293E+02  0.00000000000E+00 0. -1.
          5    1    1    2  502    0 -0.11043038636E+01 -0.51944084484E+02  0.29890099857E+03  0.30341174458E+03  0.41800000000E+01 0. -1.
         -5    1    1    2    0  502  0.42544971108E+02  0.35613228674E+02  0.75132453518E+02  0.93491895877E+02  0.41800000000E+01 0. -1.
        -11    1    1    2    0    0 -0.27630153931E+02  0.51126230650E+02  0.11272285329E+03  0.12682175886E+03  0.00000000000E+00 0.  1.
         11    1    1    2    0    0 -0.13810513313E+02 -0.34795374841E+02  0.25629833895E+02  0.45368896545E+02  0.00000000000E+00 0. -1.
</event>
<event>
 6    1  0.6981059E-006  0.8518285E+02  0.7561462E-02  0.1314955E+00
          2   -1    0    0  501    0  0.00000000000E+00  0.00000000000E+00  0.94987457304E+02  0.94987457304E+02  0.00000000000E+00 0. -1.
         -2   -1    0    0    0  501 -0.00000000000E+00 -0.00000000000E+00 -0.15040990891E+03  0.15040990891E+03  0.00000000000E+00 0.  1.
          5    1    1    2  502    0  0.57048663928E+02 -0.20260281891E+02  0.24261352607E+02  0.65353765833E+02  0.41800000000E+01 0.  1.
         -5    1    1    2    0  502 -0.15706316768E+02  0.40275993952E+02 -0.57116477817E+02  0.71753804871E+02  0.41800000000E+01 0.  1.
        -11    1    1    2    0    0 -0.34675034087E+02  0.95307167020E+01  0.30521991331E+02  0.47167621359E+02  0.00000000000E+00 0. -1.
         11    1    1    2    0    0 -0.66673130724E+01 -0.29546428763E+02 -0.53089317730E+02  0.61122174154E+02  0.00000000000E+00 0.  1.
</event>
<event>
 6    1  0.6981059E-006  0.2254943E+03  0.7561462E-02  0.1129852E+00
         -2   -1    0    0    0  501 -0.00000000000E+00  0.00000000000E+00  0.79053386608E+02  0.79053386608E+02  0.00000000000E+00 0.  1.
          2   -1    0    0  501    0  0.00000000000E+00 -0.00000000000E+00 -0.87319319320E+03  0.87319319320E+03  0.00000000000E+00 0. -1.
          5    1    1    2  502    0 -0.25574049564E+02 -0.11271820479E+03 -0.38761720515E+02  0.12198101934E+03  0.41800000000E+01 0.  1.
         -5    1    1    2    0  502 -0.10899884725E+02 -0.10440605195E+03 -0.20070961006E+03  0.22654194124E+03  0.41800000000E+01 0.  1.
        -11    1    1    2    0    0  0.52976535029E+02  0.11242566047E+03 -0.22006748302E+03  0.25273650207E+03  0.00000000000E+00 0.  1.
         11    1    1    2    0    0 -0.16502600739E+02  0.10469859627E+03 -0.33460099300E+03  0.35098711716E+03  0.00000000000E+00 0. -1.
</event>
<event>
 6    1  0.6981059E-006  0.8867778E+02  0.7561462E-02  0.1306086E+00
         -1   -1    0    0    0  501 -0.00000000000E+00  0.00000000000E+00  0.27038537608E+03  0.27038537608E+03  0.00000000000E+00 0.  1.
          1   -1    0    0  501    0  0.00000000000E+00 -0.00000000000E+00 -0.50886445725E+02  0.50886445725E+02  0.00000000000E+00 0. -1.
          5    1    1    2  502    0 -0.20092547328E+02 -0.37895068974E+02  0.16658227289E+03  0.17206647771E+03  0.41800000000E+01 0. -1.
         -5    1    1    2    0  502  0.35381962923E+02  0.83552200780E+01 -0.27883620188E+01  0.36700686173E+02  0.41800000000E+01 0. -1.
        -11    1    1    2    0    0 -0.38910240810E+02 -0.19284903425E+02  0.22507829429E+02  0.48913359378E+02  0.00000000000E+00 0. -1.
         11    1    1    2    0    0  0.23620825214E+02  0.48824752321E+02  0.33197190059E+02  0.63591298546E+02  0.00000000000E+00 0.  1.
</event>
<event>
 6    1  0.6981059E-006  0.1697509E+03  0.7561462E-02  0.1178108E+00
         -2   -1    0    0    0  501 -0.00000000000E+00  0.00000000000E+00  0.32828749336E+03  0.32828749336E+03  0.00000000000E+00 0.  1.
          2   -1    0    0  501    0  0.00000000000E+00 -0.00000000000E+00 -0.11591940403E+03  0.11591940403E+03  0.00000000000E+00 0. -1.
          5    1    1    2  502    0  0.45878039899E+02  0.85378403437E+02  0.13819369365E+03  0.16884678168E+03  0.41800000000E+01 0. -1.
         -5    1    1    2    0  502 -0.15344852231E+02  0.72142443343E+02 -0.54565691663E+01  0.74075928402E+02  0.41800000000E+01 0. -1.
        -11    1    1    2    0    0 -0.35738001826E+02 -0.52769069620E+02  0.71957045014E+02  0.96122816283E+02  0.00000000000E+00 0.  1.
         11    1    1    2    0    0  0.52048141580E+01 -0.10475177716E+03  0.76739198299E+01  0.10516137102E+03  0.00000000000E+00 0. -1.
</event>
<event>
 6    1  0.6981059E-006  0.1083855E+03  0.7561462E-02  0.1263589E+00
          2   -1    0    0  501    0  0.00000000000E+00  0.00000000000E+00  0.10691407427E+03  0.10691407427E+03  0.00000000000E+00 0. -1.
         -2   -1    0    0    0  501 -0.00000000000E+00 -0.00000000000E+00 -0.15838300874E+03  0.15838300874E+03  0.00000000000E+00 0.  1.
          5    1    1    2  502    0 -0.10731070792E+03 -0.27311021864E+01 -0.26701164163E+02  0.11069539972E+03  0.41800000000E+01 0.  1.
         -5    1    1    2    0  502  0.35116003992E+02 -0.12178709863E+01  0.38157115406E+01  0.35590012653E+02  0.41800000000E+01 0.  1.
        -11    1    1    2    0    0  0.48716341666E+02 -0.46912011551E+01 -0.60909121276E+02  0.78135845604E+02  0.00000000000E+00 0.  1.
         11    1    1    2    0    0  0.23478362258E+02  0.86401743279E+01  0.32325639429E+02  0.40875825022E+02  0.00000000000E+00 0. -1.
</event>
<event>
 6    1  0.6981059E-006  0.1157712E+03  0.7561462E-02  0.1250241E+00
          3   -1    0    0  501    0  0.00000000000E+00  0.00000000000E+00  0.72349432462E+02  0.72349432462E+02  0.00000000000E+00 0.  1.
         -3   -1    0    0    0  501 -0.00000000000E+00 -0.00000000000E+00 -0.27620692911E+03  0.27620692911E+03  0.00000000000E+00 0. -1.
          5    1    1    2  502    0 -0.51136543922E+02  0.76385744820E+02 -0.75222251416E+02  0.11885111545E+03  0.41800000000E+01 0. -1.
         -5    1    1    2    0  502 -0.27769601029E+02 -0.47178599788E+02 -0.84596476841E+02  0.10085141205E+03  0.41800000000E+01 0. -1.
        -11    1    1    2    0    0  0.68907639662E+02 -0.22139619212E+02  0.10341601465E+02  0.73112066470E+02  0.00000000000E+00 0.  1.
         11    1    1    2    0    0  0.99985052882E+01 -0.70675258192E+01 -0.54380369850E+02  0.55741767592E+02  0.00000000000E+00 0. -1.
</event>
<event>
 6    1  0.6981059E-006  0.1427724E+03  0.7561462E-02  0.1209646E+00
         -1   -1    0    0    0  501 -0.00000000000E+00  0.00000000000E+00  0.17678132976E+03  0.17678132976E+03  0.00000000000E+00 0.  1.
          1   -1    0    0  501    0  0.00000000000E+00 -0.00000000000E+00 -0.12983949569E+03  0.12983949569E+03  0.00000000000E+00 0. -1.
          5    1    1    2  502    0  0.10654510995E+03  0.45777341022E+02  0.94074253496E+01  0.11641905968E+03  0.41800000000E+01 0. -1.
         -5    1    1    2    0  502 -0.43711488600E+02  0.14414064193E+02  0.42433928743E+02  0.62742092655E+02  0.41800000000E+01 0.  1.
        -11    1    1    2    0    0  0.18418025867E+02 -0.32670249236E+02 -0.16349253789E+02  0.40912919249E+02  0.00000000000E+00 0.  1.
         11    1    1    2    0    0 -0.81251647216E+02 -0.27521155979E+02  0.11449733772E+02  0.86546753868E+02  0.00000000000E+00 0. -1.
</event>
<event>
 6    1  0.6981059E-006  0.1343541E+03  0.7561462E-02  0.1221134E+00
         -1   -1    0    0    0  501 -0.00000000000E+00  0.00000000000E+00  0.11290823594E+03  0.11290823594E+03  0.00000000000E+00 0.  1.
          1   -1    0    0  501    0  0.00000000000E+00 -0.00000000000E+00 -0.24361790038E+03  0.24361790038E+03  0.00000000000E+00 0. -1.
          5    1    1    2  502    0  0.27907529590E+01  0.31381198170E+02 -0.48798010012E+01  0.32153580803E+02  0.41800000000E+01 0.  1.
         -5    1    1    2    0  502 -0.12615224586E+02 -0.11751456140E+03  0.31079935016E+02  0.12227939644E+03  0.41800000000E+01 0.  1.
        -11    1    1    2    0    0  0.35791619287E+02  0.85499275776E+02 -0.14800764914E+03  0.17463513499E+03  0.00000000000E+00 0.  1.
         11    1    1    2    0    0 -0.25967147660E+02  0.63408745419E+00 -0.89021493190E+01  0.27458024091E+02  0.00000000000E+00 0. -1.
</event>
<event>
 6    1  0.8205162E-006  0.3826432E+03  0.7561462E-02  0.1049961E+00
          2   -1    0    0  501    0  0.00000000000E+00  0.00000000000E+00  0.21412961792E+04  0.21412961792E+04  0.00000000000E+00 0. -1.
         -2   -1    0    0    0  501 -0.00000000000E+00 -0.00000000000E+00 -0.72239458378E+02  0.72239458378E+02  0.00000000000E+00 0.  1.
          5    1    1    2  502    0  0.16072237386E+03 -0.51297984252E+02  0.38648302872E+03  0.42172238325E+03  0.41800000000E+01 0.  1.
         -5    1    1    2    0  502  0.12813466453E+03 -0.18278165577E+03  0.47213696545E+03  0.52226278107E+03  0.41800000000E+01 0.  1.
        -11    1    1    2    0    0 -0.15276915145E+03  0.14491270333E+03  0.81927914509E+03  0.84590568198E+03  0.00000000000E+00 0.  1.
         11    1    1    2    0    0 -0.13608788693E+03  0.89166936685E+02  0.39115758153E+03  0.42364479126E+03  0.00000000000E+00 0. -1.
</event>
<event>
 6    1  0.6981059E-006  0.7960707E+02  0.7561462E-02  0.1330170E+00
         -2   -1    0    0    0  501 -0.00000000000E+00  0.00000000000E+00  0.12598830187E+03  0.12598830187E+03  0.00000000000E+00 0.  1.
          2   -1    0    0  501    0  0.00000000000E+00 -0.00000000000E+00 -0.16479428389E+03  0.16479428389E+03  0.00000000000E+00 0. -1.
          5    1    1    2  502    0  0.14503249633E+02  0.11982671716E+02 -0.32314056671E+02  0.37624451224E+02  0.41800000000E+01 0. -1.
         -5    1    1    2    0  502  0.10060695471E+02  0.39824150926E+02  0.99264719446E+02  0.10750877879E+03  0.41800000000E+01 0.  1.
        -11    1    1    2    0    0  0.29325551972E+02 -0.24650486148E+02 -0.29202546678E+02  0.48170771202E+02  0.00000000000E+00 0. -1.
         11    1    1    2    0    0 -0.53889497076E+02 -0.27156336493E+02 -0.76554098116E+02  0.97478584546E+02  0.00000000000E+00 0.  1.
</event>
<event>
 6    1  0.6981059E-006  0.2793019E+03  0.7561462E-02  0.1096071E+00
          1   -1    0    0  501    0  0.00000000000E+00  0.00000000000E+00  0.21187705608E+03  0.21187705608E+03  0.00000000000E+00 0. -1.
         -1   -1    0    0    0  501 -0.00000000000E+00 -0.00000000000E+00 -0.57765116894E+03  0.57765116894E+03  0.00000000000E+00 0.  1.
          5    1    1    2  502    0 -0.12178302741E+03  0.22574204057E+03 -0.40565487301E+03  0.47996241836E+03  0.41800000000E+01 0.  1.
         -5    1    1    2    0  502  0.19923890547E+02  0.15250351073E+02 -0.11081679834E+02  0.27745461797E+02  0.41800000000E+01 0.  1.
        -11    1    1    2    0    0 -0.13544636062E+02 -0.59549181346E+01 -0.11629002887E+01  0.14841514516E+02  0.00000000000E+00 0.  1.
         11    1    1    2    0    0  0.11540377292E+03 -0.23503747351E+03  0.52125340272E+02  0.26697883035E+03  0.00000000000E+00 0. -1.
</event>
<event>
 6    1  0.6981059E-006  0.1813634E+03  0.7561462E-02  0.1166490E+00
         -2   -1    0    0    0  501 -0.00000000000E+00  0.00000000000E+00  0.22446550215E+03  0.22446550215E+03  0.00000000000E+00 0. -1.
          2   -1    0    0  501    0  0.00000000000E+00 -0.00000000000E+00 -0.16080766435E+03  0.16080766435E+03  0.00000000000E+00 0.  1.
          5    1    1    2  502    0 -0.17091220435E+03  0.42862176716E+02  0.14188138579E+02  0.17682455560E+03  0.41800000000E+01 0. -1.
         -5    1    1    2    0  502  0.22366712504E+02  0.64481495896E+01  0.69473400385E+01  0.24649267636E+02  0.41800000000E+01 0. -1.
        -11    1    1    2    0    0  0.92984701158E+02 -0.74984629296E+01 -0.13817110889E+02  0.94304263684E+02  0.00000000000E+00 0.  1.
         11    1    1    2    0    0  0.55560790687E+02 -0.41811863376E+02  0.56339470071E+02  0.89495079577E+02  0.00000000000E+00 0. -1.
</event>
<event>
 6    1  0.6981059E-006  0.1103139E+03  0.7561462E-02  0.1259990E+00
          1   -1    0    0  501    0  0.00000000000E+00  0.00000000000E+00  0.14402200650E+03  0.14402200650E+03  0.00000000000E+00 0. -1.
         -1   -1    0    0    0  501 -0.00000000000E+00 -0.00000000000E+00 -0.12222275237E+03  0.12222275237E+03  0.00000000000E+00 0.  1.
          5    1    1    2  502    0  0.54283465094E+02  0.95193100118E+02 -0.94100693735E+00  0.10966667127E+03  0.41800000000E+01 0. -1.
         -5    1    1    2    0  502 -0.10856656299E+02 -0.33940235708E+02  0.55398602640E+01  0.36303843290E+02  0.41800000000E+01 0. -1.
        -11    1    1    2    0    0 -0.11458375512E+02 -0.16478087316E+02  0.51615810570E+02  0.55380625058E+02  0.00000000000E+00 0. -1.
         11    1    1    2    0    0 -0.31968433283E+02 -0.44774777094E+02 -0.34415409768E+02  0.64893619254E+02  0.00000000000E+00 0.  1.
</event>
<event>
 6    1  0.6981059E-006  0.1342310E+03  0.7561462E-02  0.1221309E+00
         -1   -1    0    0    0  501 -0.00000000000E+00  0.00000000000E+00  0.14165265849E+03  0.14165265849E+03  0.00000000000E+00 0.  1.
          1   -1    0    0  501    0  0.00000000000E+00 -0.00000000000E+00 -0.20995525348E+03  0.20995525348E+03  0.00000000000E+00 0. -1.
          5    1    1    2  502    0  0.55227065743E+01  0.16604624562E+01  0.38129549751E+02  0.38789075623E+02  0.41800000000E+01 0.  1.
         -5    1    1    2    0  502  0.95325985553E+02  0.83170076519E+02 -0.73329606737E+02  0.14628400040E+03  0.41800000000E+01 0.  1.
        -11    1    1    2    0    0 -0.89735468367E+02 -0.85064865914E+02  0.80491367970E+01  0.12390833023E+03  0.00000000000E+00 0.  1.
         11    1    1    2    0    0 -0.11113223760E+02  0.23432693862E+00 -0.41151674800E+02  0.42626505725E+02  0.00000000000E+00 0. -1.
</event>
<event>
 6    1  0.6981059E-006  0.1177143E+03  0.7561462E-02  0.1246916E+00
          2   -1    0    0  501    0  0.00000000000E+00  0.00000000000E+00  0.15414120694E+03  0.15414120694E+03  0.00000000000E+00 0.  1.
         -2   -1    0    0    0  501 -0.00000000000E+00 -0.00000000000E+00 -0.13297365171E+03  0.13297365171E+03  0.00000000000E+00 0. -1.
          5    1    1    2  502    0 -0.39659624669E+02 -0.20126521631E+02 -0.72850557630E+01  0.45260436800E+02  0.41800000000E+01 0. -1.
         -5    1    1    2    0  502  0.95153994901E+02 -0.24836478909E+02 -0.41525579039E+02  0.10683154752E+03  0.41800000000E+01 0. -1.
        -11    1    1    2    0    0 -0.27444865575E+02  0.55858267442E+02  0.81721124413E+02  0.10272151120E+03  0.00000000000E+00 0.  1.
         11    1    1    2    0    0 -0.28049504657E+02 -0.10895266902E+02 -0.11742934382E+02  0.32301363133E+02  0.00000000000E+00 0. -1.
</event>
<event>
 6    1  0.6981059E-006  0.9690322E+02  0.7561462E-02  0.1286946E+00
          2   -1    0    0  501    0  0.00000000000E+00  0.00000000000E+00  0.18059715566E+03  0.18059715566E+03  0.00000000000E+00 0. -1.
         -2   -1    0    0    0  501 -0.00000000000E+00 -0.00000000000E+00 -0.82246472754E+02  0.82246472754E+02  0.00000000000E+00 0.  1.
          5    1    1    2  502    0  0.41329253539E+02  0.13212430445E+02  0.43539684791E+02  0.61610486673E+02  0.41800000000E+01 0. -1.
         -5    1    1    2    0  502 -0.35912015897E+02 -0.43817403739E+02 -0.36414847929E+02  0.67477042807E+02  0.41800000000E+01 0. -1.
        -11    1    1    2    0    0 -0.46834504934E+02  0.16144242565E+02  0.67960268288E+02  0.84099378632E+02  0.00000000000E+00 0. -1.
         11    1    1    2    0    0  0.41417267292E+02  0.14460730729E+02  0.23265577760E+02  0.49656720307E+02  0.00000000000E+00 0.  1.
</event>
<event>
 6    1  0.6981059E-006  0.1398537E+03  0.7561462E-02  0.1213526E+00
          1   -1    0    0  501    0  0.00000000000E+00  0.00000000000E+00  0.11885264610E+03  0.11885264610E+03  0.00000000000E+00 0. -1.
         -1   -1    0    0    0  501 -0.00000000000E+00 -0.00000000000E+00 -0.29328416428E+03  0.29328416428E+03  0.00000000000E+00 0.  1.
          5    1    1    2  502    0  0.68594899749E+02 -0.47962299823E+02 -0.59718038808E+02  0.10290461134E+03  0.41800000000E+01 0. -1.
         -5    1    1    2    0  502  0.41988178032E+02  0.55427166314E+02 -0.14902962243E+03  0.16450677379E+03  0.41800000000E+01 0. -1.
        -11    1    1    2    0    0 -0.55155570656E+02  0.26546795267E+02 -0.15103380858E+02  0.63047453769E+02  0.00000000000E+00 0.  1.
         11    1    1    2    0    0 -0.55427507125E+02 -0.34011661758E+02  0.49419523917E+02  0.81677971485E+02  0.00000000000E+00 0. -1.
</event>
<event>
 6    1  0.6981059E-006  0.1685324E+03  0.7561462E-02  0.1179387E+00
          2   -1    0    0  501    0  0.00000000000E+00  0.00000000000E+00  0.22520069390E+03  0.22520069390E+03  0.00000000000E+00 0. -1.
         -2   -1    0    0    0  501 -0.00000000000E+00 -0.00000000000E+00 -0.16920700505E+03  0.16920700505E+03  0.00000000000E+00 0.  1.
          5    1    1    2  502    0  0.31721524942E+02 -0.86183773509E+02  0.59804033509E+02  0.10967175017E+03  0.41800000000E+01 0.  1.
         -5    1    1    2    0  502  0.37301105098E+02 -0.56626340401E+02 -0.62560260125E+02  0.92353524111E+02  0.41800000000E+01 0.  1.
        -11    1    1    2    0    0 -0.27783307757E+02 -0.78790564542E+00 -0.77409188557E+01  0.28852292975E+02  0.00000000000E+00 0.  1.
         11    1    1    2    0    0 -0.41239322283E+02  0.14359801955E+03  0.66490834320E+02  0.16353013169E+03  0.00000000000E+00 0. -1.
</event>
<event>
 6    1  0.6981059E-006  0.1129825E+03  0.7561462E-02  0.1255144E+00
         -2   -1    0    0    0  501 -0.00000000000E+00  0.00000000000E+00  0.54752826765E+02  0.54752826765E+02  0.00000000000E+00 0.  1.
          2   -1    0    0  501    0  0.00000000000E+00 -0.00000000000E+00 -0.46200857179E+03  0.46200857179E+03  0.00000000000E+00 0. -1.
          5    1    1    2  502    0  0.86937702890E+02  0.14456432979E+02 -0.45103754299E+02  0.99090734633E+02  0.41800000000E+01 0.  1.
         -5    1    1    2    0  502 -0.21541342735E+02 -0.54059241292E+02 -0.32517141432E+02  0.66792723427E+02  0.41800000000E+01 0.  1.
        -11    1    1    2    0    0 -0.14068562395E+02  0.19989693012E+02 -0.97640560589E+01  0.26322026239E+02  0.00000000000E+00 0.  1.
         11    1    1    2    0    0 -0.51327797760E+02  0.19613115301E+02 -0.31987079323E+03  0.32455591426E+03  0.00000000000E+00 0. -1.
</event>
<event>
 6    1  0.6981059E-006  0.2542114E+03  0.7561462E-02  0.1110672E+00
         -1   -1    0    0    0  501 -0.00000000000E+00  0.00000000000E+00  0.49442020447E+02  0.49442020447E+02  0.00000000000E+00 0.  1.
          1   -1    0    0  501    0  0.00000000000E+00 -0.00000000000E+00 -0.19252284294E+04  0.19252284294E+04  0.00000000000E+00 0. -1.
          5    1    1    2  502    0 -0.55868372443E+01 -0.97445677501E+01  0.50642890073E+00  0.11995758470E+02  0.41800000000E+01 0. -1.
         -5    1    1    2    0  502  0.23352045344E+03  0.70767238491E+02 -0.42985926366E+03  0.49430381667E+03  0.41800000000E+01 0.  1.
        -11    1    1    2    0    0 -0.88309701610E+02  0.20575460627E+02 -0.47723009038E+03  0.48576796121E+03  0.00000000000E+00 0.  1.
         11    1    1    2    0    0 -0.13962391459E+03 -0.81598131369E+02 -0.96920348379E+03  0.98260291347E+03  0.00000000000E+00 0. -1.
</event>
<event>
 6    1  0.6981059E-006  0.1115921E+03  0.7561462E-02  0.1257650E+00
          1   -1    0    0  501    0  0.00000000000E+00  0.00000000000E+00  0.38702071830E+03  0.38702071830E+03  0.00000000000E+00 0. -1.
         -1   -1    0    0    0  501 -0.00000000000E+00 -0.00000000000E+00 -0.32265826341E+02  0.32265826341E+02  0.00000000000E+00 0.  1.
          5    1    1    2  502    0  0.80038784625E+02  0.10223871581E+02  0.12680160499E+03  0.15035575819E+03  0.41800000000E+01 0.  1.
         -5    1    1    2    0  502 -0.46615143773E+02 -0.13254493462E+02  0.70178353553E+02  0.85388095969E+02  0.41800000000E+01 0.  1.
        -11    1    1    2    0    0  0.15814124873E+02  0.32654052077E+02  0.58548931721E+02  0.68879249910E+02  0.00000000000E+00 0. -1.
         11    1    1    2    0    0 -0.49237765725E+02 -0.29623430196E+02  0.99226001693E+02  0.11466344056E+03  0.00000000000E+00 0.  1.
</event>
<event>
 6    1  0.6981059E-006  0.1119964E+03  0.7561462E-02  0.1256917E+00
         -1   -1    0    0    0  501 -0.00000000000E+00  0.00000000000E+00  0.44052972582E+02  0.44052972582E+02  0.00000000000E+00 0.  1.
          1   -1    0    0  501    0  0.00000000000E+00 -0.00000000000E+00 -0.37226034761E+03  0.37226034761E+03  0.00000000000E+00 0. -1.
          5    1    1    2  502    0  0.68780433310E+02 -0.46799546601E+01 -0.65903843665E+02  0.95464333611E+02  0.41800000000E+01 0. -1.
         -5    1    1    2    0  502 -0.35484840133E+02 -0.34517583453E+02 -0.15294213772E+02  0.51980985193E+02  0.41800000000E+01 0.  1.
        -11    1    1    2    0    0  0.29876658041E+02 -0.18103530805E+01 -0.87357629848E+02  0.92343097017E+02  0.00000000000E+00 0. -1.
         11    1    1    2    0    0 -0.63172251218E+02  0.41007891194E+02 -0.15965168774E+03  0.17652490437E+03  0.00000000000E+00 0.  1.
</event>
<event>
 6    1  0.6981059E-006  0.9686424E+02  0.7561462E-02  0.1287032E+00
         -1   -1    0    0    0  501 -0.00000000000E+00  0.00000000000E+00  0.33838338246E+02  0.33838338246E+02  0.00000000000E+00 0.  1.
          1   -1    0    0  501    0  0.00000000000E+00 -0.00000000000E+00 -0.35867821756E+03  0.35867821756E+03  0.00000000000E+00 0. -1.
          5    1    1    2  502    0 -0.23893616443E+02  0.33599505634E+02 -0.20503476893E+02  0.46235231699E+02  0.41800000000E+01 0.  1.
         -5    1    1    2    0  502  0.45616320181E+02 -0.48521263342E+02 -0.17566163983E+03  0.18790861016E+03  0.41800000000E+01 0.  1.
        -11    1    1    2    0    0  0.22018589527E+02 -0.19878303962E+02 -0.18863305583E+02  0.35153798524E+02  0.00000000000E+00 0.  1.
         11    1    1    2    0    0 -0.43741293265E+02  0.34800061670E+02 -0.10981145701E+03  0.12321891543E+03  0.00000000000E+00 0. -1.
</event>
<event>
 6    1  0.6981059E-006  0.2712762E+03  0.7561462E-02  0.1100551E+00
          2   -1    0    0  501    0  0.00000000000E+00  0.00000000000E+00  0.31110478956E+03  0.31110478956E+03  0.00000000000E+00 0.  1.
         -2   -1    0    0    0  501 -0.00000000000E+00 -0.00000000000E+00 -0.49355164839E+03  0.49355164839E+03  0.00000000000E+00 0. -1.
          5    1    1    2  502    0  0.11301541704E+03  0.56030559901E+00 -0.24784766763E+03  0.27243116044E+03  0.41800000000E+01 0. -1.
         -5    1    1    2    0  502  0.13596982163E+03  0.73044359028E+02 -0.12401640666E+03  0.19804245075E+03  0.41800000000E+01 0. -1.
        -11    1    1    2    0    0 -0.14201966832E+03  0.53251011965E+01  0.10516120769E+03  0.17679599117E+03  0.00000000000E+00 0. -1.
         11    1    1    2    0    0 -0.10696557035E+03 -0.78929765824E+02  0.84256007767E+02  0.15738683559E+03  0.00000000000E+00 0.  1.
</event>
<event>
 6    1  0.6981059E-006  0.1485232E+03  0.7561462E-02  0.1202299E+00
         -2   -1    0    0    0  501 -0.00000000000E+00  0.00000000000E+00  0.10710031057E+03  0.10710031057E+03  0.00000000000E+00 0.  1.
          2   -1    0    0  501    0  0.00000000000E+00 -0.00000000000E+00 -0.29568216326E+03  0.29568216326E+03  0.00000000000E+00 0. -1.
          5    1    1    2  502    0  0.10135190743E+03  0.57554544111E+02 -0.88243993513E+02  0.14625050249E+03  0.41800000000E+01 0.  1.
         -5    1    1    2    0  502  0.19296772275E+02  0.52597134416E+00  0.38804878383E+02  0.43542313356E+02  0.41800000000E+01 0.  1.
        -11    1    1    2    0    0 -0.54592155825E+02 -0.74727655245E+02 -0.71068376193E+02  0.11668436070E+03  0.00000000000E+00 0.  1.
         11    1    1    2    0    0 -0.66056523884E+02  0.16647139790E+02 -0.68074361366E+02  0.96305297290E+02  0.00000000000E+00 0. -1.
</event>
<event>
 6    1  0.6981059E-006  0.6467298E+02  0.7561462E-02  0.1379206E+00
         -1   -1    0    0    0  501 -0.00000000000E+00  0.00000000000E+00  0.15505404068E+03  0.15505404068E+03  0.00000000000E+00 0.  1.
          1   -1    0    0  501    0  0.00000000000E+00 -0.00000000000E+00 -0.83536519918E+02  0.83536519918E+02  0.00000000000E+00 0. -1.
          5    1    1    2  502    0  0.81941800980E+01 -0.19685771900E+02  0.10058773104E+03  0.10290791145E+03  0.41800000000E+01 0.  1.
         -5    1    1    2    0  502 -0.99518183085E+01 -0.67051733700E+01 -0.37560995043E+02  0.39652222966E+02  0.41800000000E+01 0.  1.
        -11    1    1    2    0    0 -0.27850951958E+02 -0.23801013864E+02  0.91160960431E+01  0.37752708419E+02  0.00000000000E+00 0. -1.
         11    1    1    2    0    0  0.29608590168E+02  0.50191959134E+02 -0.62531128137E+00  0.58277717763E+02  0.00000000000E+00 0.  1.
</event>
<event>
 6    1  0.6981059E-006  0.1189405E+03  0.7561462E-02  0.1244855E+00
         -4   -1    0    0    0  501 -0.00000000000E+00  0.00000000000E+00  0.12157970192E+03  0.12157970192E+03  0.00000000000E+00 0.  1.
          4   -1    0    0  501    0  0.00000000000E+00 -0.00000000000E+00 -0.12967917461E+03  0.12967917461E+03  0.00000000000E+00 0. -1.
          5    1    1    2  502    0 -0.46098902756E+02  0.55375047078E+02  0.30096261028E+02  0.78196943687E+02  0.41800000000E+01 0.  1.
         -5    1    1    2    0  502 -0.13284938174E+02 -0.51600418615E+02 -0.28003317807E+02  0.60338635979E+02  0.41800000000E+01 0.  1.
        -11    1    1    2    0    0  0.81708377259E+02 -0.20648114074E+02 -0.78231003025E+01  0.84639260556E+02  0.00000000000E+00 0. -1.
         11    1    1    2    0    0 -0.22324536330E+02  0.16873485612E+02 -0.23693156079E+01  0.28084036310E+02  0.00000000000E+00 0.  1.
</event>
<event>
 6    1  0.6981059E-006  0.1174956E+03  0.7561462E-02  0.1247287E+00
          4   -1    0    0  501    0  0.00000000000E+00  0.00000000000E+00  0.27982739336E+03  0.27982739336E+03  0.00000000000E+00 0. -1.
         -4   -1    0    0    0  501 -0.00000000000E+00 -0.00000000000E+00 -0.53897512659E+02  0.53897512659E+02  0.00000000000E+00 0.  1.
          5    1    1    2  502    0  0.67546312902E+02 -0.23897832982E+02  0.72998704848E+02  0.10237135399E+03  0.41800000000E+01 0.  1.
         -5    1    1    2    0  502 -0.23156034625E+02  0.60917983050E+02  0.48544705895E+02  0.81371146415E+02  0.41800000000E+01 0.  1.
        -11    1    1    2    0    0  0.22992848154E+01  0.22303930086E+02  0.16386769720E+01  0.22481932082E+02  0.00000000000E+00 0.  1.
         11    1    1    2    0    0 -0.46689563092E+02 -0.59324080154E+02  0.10274779298E+03  0.12750047353E+03  0.00000000000E+00 0. -1.
</event>
<event>
 6    1  0.6981059E-006  0.1067863E+03  0.7561462E-02  0.1266640E+00
         -1   -1    0    0    0  501 -0.00000000000E+00  0.00000000000E+00  0.16231710294E+03  0.16231710294E+03  0.00000000000E+00 0.  1.
          1   -1    0    0  501    0  0.00000000000E+00 -0.00000000000E+00 -0.94072673049E+02  0.94072673049E+02  0.00000000000E+00 0. -1.
          5    1    1    2  502    0 -0.55407608729E+02  0.32054982183E+02  0.46037108005E+02  0.78958297229E+02  0.41800000000E+01 0.  1.
         -5    1    1    2    0  502  0.52402507571E+01 -0.62520056476E+02 -0.10412673560E+02  0.63734714720E+02  0.41800000000E+01 0.  1.
        -11    1    1    2    0    0  0.29055555708E+01  0.38497078928E+02 -0.19187675304E+02  0.43111880297E+02  0.00000000000E+00 0. -1.
         11    1    1    2    0    0  0.47261802401E+02 -0.80320046350E+01  0.51807670753E+02  0.70584883747E+02  0.00000000000E+00 0.  1.
</event>
<event>
 6    1  0.6981059E-006  0.1832934E+03  0.7561462E-02  0.1164653E+00
         -2   -1    0    0    0  501 -0.00000000000E+00  0.00000000000E+00  0.18786619050E+04  0.18786619050E+04  0.00000000000E+00 0.  1.
          2   -1    0    0  501    0  0.00000000000E+00 -0.00000000000E+00 -0.20339512261E+02  0.20339512261E+02  0.00000000000E+00 0. -1.
          5    1    1    2  502    0 -0.99362092717E+00  0.20944178856E+02  0.58984157154E+02  0.62739533834E+02  0.41800000000E+01 0.  1.
         -5    1    1    2    0  502  0.11500336034E+03 -0.13015108963E+03  0.10930234126E+04  0.11067442035E+04  0.41800000000E+01 0.  1.
        -11    1    1    2    0    0 -0.75538854317E+02  0.10947056962E+03  0.63190641306E+03  0.64575199495E+03  0.00000000000E+00 0.  1.
         11    1    1    2    0    0 -0.38470885092E+02 -0.26365884593E+00  0.74408409889E+02  0.83765684967E+02  0.00000000000E+00 0. -1.
</event>
<event>
 6    1  0.6981059E-006  0.9679128E+02  0.7561462E-02  0.1287192E+00
          1   -1    0    0  501    0  0.00000000000E+00  0.00000000000E+00  0.13198657491E+03  0.13198657491E+03  0.00000000000E+00 0. -1.
         -1   -1    0    0    0  501 -0.00000000000E+00 -0.00000000000E+00 -0.12150923546E+03  0.12150923546E+03  0.00000000000E+00 0.  1.
          5    1    1    2  502    0  0.44555423323E+01 -0.49427051521E+02 -0.19909206825E+02  0.53635195496E+02  0.41800000000E+01 0. -1.
         -5    1    1    2    0  502  0.15801205679E+02  0.78515940109E+02 -0.28970222351E+02  0.85271197571E+02  0.41800000000E+01 0. -1.
        -11    1    1    2    0    0 -0.18604141771E+02 -0.44420885559E+02  0.77209944965E+02  0.90998377823E+02  0.00000000000E+00 0. -1.
         11    1    1    2    0    0 -0.16526062401E+01  0.15331996971E+02 -0.17853176339E+02  0.23591039483E+02  0.00000000000E+00 0.  1.
</event>
<event>
 6    1  0.6981059E-006  0.2513742E+03  0.7561462E-02  0.1112439E+00
         -1   -1    0    0    0  501 -0.00000000000E+00  0.00000000000E+00  0.14860954305E+03  0.14860954305E+03  0.00000000000E+00 0.  1.
          1   -1    0    0  501    0  0.00000000000E+00 -0.00000000000E+00 -0.86562618317E+03  0.86562618317E+03  0.00000000000E+00 0. -1.
          5    1    1    2  502    0 -0.67801571938E+02 -0.17661632152E+03 -0.74642436688E+02  0.20341913366E+03  0.41800000000E+01 0. -1.
         -5    1    1    2    0  502  0.83627810835E+00 -0.63092659183E+02  0.43676031586E+02  0.76853439344E+02  0.41800000000E+01 0. -1.
        -11    1    1    2    0    0  0.65642872557E+02  0.19890395586E+03 -0.47696608870E+03  0.52093034097E+03  0.00000000000E+00 0. -1.
         11    1    1    2    0    0  0.13224212730E+01  0.40805024840E+02 -0.20908414632E+03  0.21303281224E+03  0.00000000000E+00 0.  1.
</event>
<event>
 6    1  0.7235039E-006  0.6544273E+02  0.7561462E-02  0.1376314E+00
         -1   -1    0    0    0  501 -0.00000000000E+00  0.00000000000E+00  0.22874426304E+03  0.22874426304E+03  0.00000000000E+00 0.  1.
          1   -1    0    0  501    0  0.00000000000E+00 -0.00000000000E+00 -0.55869548940E+02  0.55869548940E+02  0.00000000000E+00 0. -1.
          5    1    1    2  502    0  0.22484550094E+02  0.23143768402E+01  0.13604053171E+03  0.13796887331E+03  0.41800000000E+01 0.  1.
         -5    1    1    2    0  502  0.72708250028E+01 -0.18382623735E+02 -0.25374562384E+02  0.32436500548E+02  0.41800000000E+01 0.  1.
        -11    1    1    2    0    0 -0.21399508127E+02 -0.32224706897E+02  0.52038705166E+01  0.39031409801E+02  0.00000000000E+00 0. -1.
         11    1    1    2    0    0 -0.83558669699E+01  0.48292953792E+02  0.57004874255E+02  0.75177028324E+02  0.00000000000E+00 0.  1.
</event>
<event>
 6    1  0.6981059E-006  0.1208599E+03  0.7561462E-02  0.1241685E+00
         -2   -1    0    0    0  501 -0.00000000000E+00  0.00000000000E+00  0.11617358328E+04  0.11617358328E+04  0.00000000000E+00 0.  1.
          2   -1    0    0  501    0  0.00000000000E+00 -0.00000000000E+00 -0.16312737734E+02  0.16312737734E+02  0.00000000000E+00 0. -1.
          5    1    1    2  502    0 -0.26590259725E+02  0.24584260084E+02  0.45476610915E+03  0.45622485047E+03  0.41800000000E+01 0. -1.
         -5    1    1    2    0  502  0.37026440997E+02 -0.71122556255E+02  0.31352965297E+03  0.32364747957E+03  0.41800000000E+01 0. -1.
        -11    1    1    2    0    0 -0.62734112562E+02  0.33307047397E+02  0.25412072261E+03  0.26386032279E+03  0.00000000000E+00 0. -1.
         11    1    1    2    0    0  0.52297931290E+02  0.13231248774E+02  0.12300661037E+03  0.13431591773E+03  0.00000000000E+00 0.  1.
</event>
<event>
 6    1  0.6981059E-006  0.2801384E+03  0.7561462E-02  0.1095613E+00
         -1   -1    0    0    0  501 -0.00000000000E+00  0.00000000000E+00  0.28379576259E+03  0.28379576259E+03  0.00000000000E+00 0.  1.
          1   -1    0    0  501    0  0.00000000000E+00 -0.00000000000E+00 -0.34864090043E+03  0.34864090043E+03  0.00000000000E+00 0. -1.
          5    1    1    2  502    0  0.17780657012E+02  0.82173885587E+02 -0.27351445882E+02  0.88511429929E+02  0.41800000000E+01 0. -1.
         -5    1    1    2    0  502 -0.11244402506E+03  0.16389843028E+03  0.11038271363E+03  0.22739430531E+03  0.41800000000E+01 0.  1.
        -11    1    1    2    0    0 -0.93553753425E+01 -0.85248108384E+02 -0.26425710908E+02  0.89738961593E+02  0.00000000000E+00 0.  1.
         11    1    1    2    0    0  0.10401874339E+03 -0.16082420749E+03 -0.12145069467E+03  0.22679196619E+03  0.00000000000E+00 0. -1.
</event>
<event>
 6    1  0.6981059E-006  0.1633071E+03  0.7561462E-02  0.1185013E+00
          1   -1    0    0  501    0  0.00000000000E+00  0.00000000000E+00  0.11161207701E+04  0.11161207701E+04  0.00000000000E+00 0. -1.
         -1   -1    0    0    0  501 -0.00000000000E+00 -0.00000000000E+00 -0.27541379416E+02  0.27541379416E+02  0.00000000000E+00 0.  1.
          5    1    1    2  502    0 -0.12921633546E+02 -0.66358923684E+02  0.12451539334E+03  0.14174636131E+03  0.41800000000E+01 0.  1.
         -5    1    1    2    0  502  0.10558030461E+03 -0.14836161315E+02  0.25439040121E+03  0.27586094510E+03  0.41800000000E+01 0.  1.
        -11    1    1    2    0    0  0.17903218831E+02  0.14682072730E+02  0.79253394576E+02  0.82566270692E+02  0.00000000000E+00 0. -1.
         11    1    1    2    0    0 -0.11056188989E+03  0.66513012268E+02  0.63042020157E+03  0.64348857243E+03  0.00000000000E+00 0.  1.
</event>
<event>
 6    1  0.6981059E-006  0.1242188E+03  0.7561462E-02  0.1236295E+00
          1   -1    0    0  501    0  0.00000000000E+00  0.00000000000E+00  0.27121900017E+03  0.27121900017E+03  0.00000000000E+00 0. -1.
         -1   -1    0    0    0  501 -0.00000000000E+00 -0.00000000000E+00 -0.12859079546E+03  0.12859079546E+03  0.00000000000E+00 0.  1.
          5    1    1    2  502    0 -0.50673101063E+02  0.55674141332E+02 -0.65906123056E+02  0.10014221208E+03  0.41800000000E+01 0. -1.
         -5    1    1    2    0  502 -0.20458496312E+02 -0.55153730442E+02 -0.20724985619E+01  0.59010606702E+02  0.41800000000E+01 0. -1.
        -11    1    1    2    0    0  0.45702717404E+01  0.37253402071E+02  0.47932818570E+02  0.60879047674E+02  0.00000000000E+00 0.  1.
         11    1    1    2    0    0  0.66561325635E+02 -0.37773812961E+02  0.16267400776E+03  0.17977792917E+03  0.00000000000E+00 0. -1.
</event>
<event>
 6    1  0.6981059E-006  0.8228066E+02  0.7561462E-02  0.1322701E+00
         -1   -1    0    0    0  501 -0.00000000000E+00  0.00000000000E+00  0.14297659724E+04  0.14297659724E+04  0.00000000000E+00 0.  1.
          1   -1    0    0  501    0  0.00000000000E+00 -0.00000000000E+00 -0.10586975807E+02  0.10586975807E+02  0.00000000000E+00 0. -1.
          5    1    1    2  502    0  0.23879492877E+02 -0.22750893452E+02  0.79234498908E+02  0.85926780169E+02  0.41800000000E+01 0. -1.
         -5    1    1    2    0  502  0.15220219722E+02  0.44783436018E+02  0.10547444472E+04  0.10558127356E+04  0.41800000000E+01 0. -1.
        -11    1    1    2    0    0 -0.30673349659E+02  0.22796891506E+02  0.17895643277E+03  0.18299168689E+03  0.00000000000E+00 0.  1.
         11    1    1    2    0    0 -0.84263629400E+01 -0.44829434072E+02  0.10624361769E+03  0.11562174558E+03  0.00000000000E+00 0. -1.
</event>
<event>
 6    1  0.6981059E-006  0.1029495E+03  0.7561462E-02  0.1274213E+00
         -2   -1    0    0    0  501 -0.00000000000E+00  0.00000000000E+00  0.28631911833E+03  0.28631911833E+03  0.00000000000E+00 0.  1.
          2   -1    0    0  501    0  0.00000000000E+00 -0.00000000000E+00 -0.54202888765E+02  0.54202888765E+02  0.00000000000E+00 0. -1.
          5    1    1    2  502    0  0.11733522841E+02 -0.70805643717E+02  0.50185246485E+02  0.87676371419E+02  0.41800000000E+01 0.  1.
         -5    1    1    2    0  502 -0.27664087819E+02  0.24095386628E+02  0.14308722490E+03  0.14777454362E+03  0.41800000000E+01 0.  1.
        -11    1    1    2    0    0 -0.32662946675E+02  0.33361161428E+02  0.13150028231E+02  0.48505241158E+02  0.00000000000E+00 0. -1.
         11    1    1    2    0    0  0.48593511652E+02  0.13349095661E+02  0.25693729952E+02  0.56565850904E+02  0.00000000000E+00 0.  1.
</event>
<event>
 6    1  0.6981059E-006  0.1536279E+03  0.7561462E-02  0.1196085E+00
          1   -1    0    0  501    0  0.00000000000E+00  0.00000000000E+00  0.53255263481E+02  0.53255263481E+02  0.00000000000E+00 0. -1.
         -1   -1    0    0    0  501 -0.00000000000E+00 -0.00000000000E+00 -0.54865763657E+03  0.54865763657E+03  0.00000000000E+00 0.  1.
          5    1    1    2  502    0  0.55330748066E+02  0.10622931031E+03 -0.30990450954E+03  0.33227162907E+03  0.41800000000E+01 0. -1.
         -5    1    1    2    0  502 -0.39342340135E+02  0.15755823863E+02 -0.36728577471E+02  0.56236345151E+02  0.41800000000E+01 0. -1.
        -11    1    1    2    0    0  0.29893928486E+02 -0.65874364845E+02 -0.10874005598E+03  0.13060428277E+03  0.00000000000E+00 0.  1.
         11    1    1    2    0    0 -0.45882336418E+02 -0.56110769323E+02 -0.40029230102E+02  0.82800643063E+02  0.00000000000E+00 0. -1.
</event>
<event>
 6    1  0.6981059E-006  0.9290788E+02  0.7561462E-02  0.1295959E+00
          1   -1    0    0  501    0  0.00000000000E+00  0.00000000000E+00  0.48584099545E+02  0.48584099545E+02  0.00000000000E+00 0. -1.
         -1   -1    0    0    0  501 -0.00000000000E+00 -0.00000000000E+00 -0.27277649046E+03  0.27277649046E+03  0.00000000000E+00 0.  1.
          5    1    1    2  502    0  0.44672381506E+02 -0.14900036768E+02 -0.11555824156E+03  0.12485516553E+03  0.41800000000E+01 0.  1.
         -5    1    1    2    0  502 -0.56672258035E+02 -0.72996817100E+00 -0.19005869182E+02  0.59924729017E+02  0.41800000000E+01 0.  1.
        -11    1    1    2    0    0  0.22307772620E+02  0.45193322205E+02 -0.10496909368E+02  0.51480658479E+02  0.00000000000E+00 0.  1.
         11    1    1    2    0    0 -0.10307896091E+02 -0.29563317266E+02 -0.79131370799E+02  0.85100036981E+02  0.00000000000E+00 0. -1.
</event>
<event>
 6    1  0.6981059E-006  0.1949712E+03  0.7561462E-02  0.1154053E+00
          2   -1    0    0  501    0  0.00000000000E+00  0.00000000000E+00  0.26377576985E+03  0.26377576985E+03  0.00000000000E+00 0. -1.
         -2   -1    0    0    0  501 -0.00000000000E+00 -0.00000000000E+00 -0.17862326466E+03  0.17862326466E+03  0.00000000000E+00 0.  1.
          5    1    1    2  502    0  0.89219601467E+01  0.19112847545E+03 -0.26201725996E+02  0.19316753957E+03  0.41800000000E+01 0. -1.
         -5    1    1    2    0  502  0.45359472128E+01 -0.24182227343E+02 -0.49637915748E+01  0.25445364277E+02  0.41800000000E+01 0.  1.
        -11    1    1    2    0    0 -0.26746466568E+02 -0.14838289448E+03  0.58678295082E+02  0.16178998474E+03  0.00000000000E+00 0.  1.
         11    1    1    2    0    0  0.13288559208E+02 -0.18563353625E+02  0.57639727676E+02  0.61996145930E+02  0.00000000000E+00 0. -1.
</event>
<event>
 6    1  0.6981059E-006  0.1201119E+03  0.7561462E-02  0.1242913E+00
          1   -1    0    0  501    0  0.00000000000E+00  0.00000000000E+00  0.18208904350E+03  0.18208904350E+03  0.00000000000E+00 0. -1.
         -1   -1    0    0    0  501 -0.00000000000E+00 -0.00000000000E+00 -0.95334463074E+02  0.95334463074E+02  0.00000000000E+00 0.  1.
          5    1    1    2  502    0  0.39818491704E+02  0.36132162398E+02 -0.15217812889E+01  0.53952142306E+02  0.41800000000E+01 0.  1.
         -5    1    1    2    0  502 -0.84576034169E+02  0.36976787860E+01 -0.40696396133E+01  0.84857602787E+02  0.41800000000E+01 0.  1.
        -11    1    1    2    0    0 -0.24122044829E+02 -0.14495194549E+02  0.38026119901E+02  0.47307182399E+02  0.00000000000E+00 0. -1.
         11    1    1    2    0    0  0.68879587293E+02 -0.25334646635E+02  0.54319881429E+02  0.91306579086E+02  0.00000000000E+00 0.  1.
</event>
<event>
 6    1  0.6981059E-006  0.1045639E+03  0.7561462E-02  0.1270981E+00
         -2   -1    0    0    0  501 -0.00000000000E+00  0.00000000000E+00  0.46183606271E+02  0.46183606271E+02  0.00000000000E+00 0.  1.
          2   -1    0    0  501    0  0.00000000000E+00 -0.00000000000E+00 -0.48460854460E+03  0.48460854460E+03  0.00000000000E+00 0. -1.
          5    1    1    2  502    0  0.93433788349E+02 -0.28331905603E+02 -0.54069369163E+02  0.11168499793E+03  0.41800000000E+01 0.  1.
         -5    1    1    2    0  502  0.38582849184E+01  0.55633262727E+01 -0.13857828062E+03  0.13880651721E+03  0.41800000000E+01 0.  1.
        -11    1    1    2    0    0 -0.53870202091E+02 -0.11313368342E+01 -0.36130447503E+02  0.64874400445E+02  0.00000000000E+00 0.  1.
         11    1    1    2    0    0 -0.43421871176E+02  0.23899916165E+02 -0.20964684105E+03  0.21542623529E+03  0.00000000000E+00 0. -1.
</event>
<event>
 6    1  0.6981059E-006  0.1201793E+03  0.7561462E-02  0.1242801E+00
          1   -1    0    0  501    0  0.00000000000E+00  0.00000000000E+00  0.44720979214E+03  0.44720979214E+03  0.00000000000E+00 0. -1.
         -1   -1    0    0    0  501 -0.00000000000E+00 -0.00000000000E+00 -0.38787673932E+02  0.38787673932E+02  0.00000000000E+00 0.  1.
          5    1    1    2  502    0 -0.61012743556E+02 -0.50103541050E+02  0.14177166510E+03  0.16232558987E+03  0.41800000000E+01 0. -1.
         -5    1    1    2    0  502  0.35809225962E+02  0.59129323181E+02  0.44040428632E+02  0.82070757752E+02  0.41800000000E+01 0.  1.
        -11    1    1    2    0    0  0.45615784908E+02 -0.36076510917E+02  0.11647601212E+03  0.13018823246E+03  0.00000000000E+00 0.  1.
         11    1    1    2    0    0 -0.20412267313E+02  0.27050728787E+02  0.10613401236E+03  0.11141288599E+03  0.00000000000E+00 0. -1.
</event>
<event>
 6    1  0.6981059E-006  0.1224461E+03  0.7561462E-02  0.1239115E+00
          2   -1    0    0  501    0  0.00000000000E+00  0.00000000000E+00  0.90247688743E+02  0.90247688743E+02  0.00000000000E+00 0. -1.
         -2   -1    0    0    0  501 -0.00000000000E+00 -0.00000000000E+00 -0.18213882959E+03  0.18213882959E+03  0.00000000000E+00 0.  1.
          5    1    1    2  502    0  0.81043541310E+02  0.57521779600E+02 -0.60081195016E+02  0.11620685484E+03  0.41800000000E+01 0.  1.
         -5    1    1    2    0  502 -0.31842685596E+02 -0.22678671546E+02 -0.20454433785E+02  0.44318563047E+02  0.41800000000E+01 0.  1.
        -11    1    1    2    0    0 -0.53549127902E+02  0.15365117420E+02 -0.22778030621E+02  0.60186664730E+02  0.00000000000E+00 0. -1.
         11    1    1    2    0    0  0.43482721882E+01 -0.50208225474E+02  0.11422518575E+02  0.51674435719E+02  0.00000000000E+00 0.  1.
</event>
<event>
 6    1  0.6981059E-006  0.1031214E+03  0.7561462E-02  0.1273866E+00
          3   -1    0    0  501    0  0.00000000000E+00  0.00000000000E+00  0.94763857531E+02  0.94763857531E+02  0.00000000000E+00 0. -1.
         -3   -1    0    0    0  501 -0.00000000000E+00 -0.00000000000E+00 -0.14487089232E+03  0.14487089232E+03  0.00000000000E+00 0.  1.
          5    1    1    2  502    0 -0.61534016700E+02  0.59321732341E+02 -0.30381666856E+01  0.85628301373E+02  0.41800000000E+01 0. -1.
         -5    1    1    2    0  502  0.36090413108E+02 -0.23803155181E+02 -0.24093849124E+02  0.49669850820E+02  0.41800000000E+01 0. -1.
        -11    1    1    2    0    0  0.46244441028E+02 -0.16652162712E+02  0.19946651819E+02  0.53044432015E+02  0.00000000000E+00 0. -1.
         11    1    1    2    0    0 -0.20800837437E+02 -0.18866414448E+02 -0.42921670801E+02  0.51292165645E+02  0.00000000000E+00 0.  1.
</event>
<event>
 6    1  0.6981059E-006  0.1159798E+03  0.7561462E-02  0.1249880E+00
          2   -1    0    0  501    0  0.00000000000E+00  0.00000000000E+00  0.26289449248E+03  0.26289449248E+03  0.00000000000E+00 0.  1.
         -2   -1    0    0    0  501 -0.00000000000E+00 -0.00000000000E+00 -0.10817233263E+03  0.10817233263E+03  0.00000000000E+00 0. -1.
          5    1    1    2  502    0  0.23224925215E+02 -0.40406570394E+02 -0.16283452671E+01  0.46821063535E+02  0.41800000000E+01 0.  1.
         -5    1    1    2    0  502 -0.34440151175E+01  0.82465851027E+02 -0.47717655805E+02  0.95430209584E+02  0.41800000000E+01 0.  1.
        -11    1    1    2    0    0 -0.53690622462E+02 -0.42711598124E+02  0.12111876092E+03  0.13920027946E+03  0.00000000000E+00 0. -1.
         11    1    1    2    0    0  0.33909712364E+02  0.65231749084E+00  0.82949400006E+02  0.89615272538E+02  0.00000000000E+00 0.  1.
</event>
<event>
 6    1  0.6981059E-006  0.1028319E+03  0.7561462E-02  0.1274451E+00
         -1   -1    0    0    0  501 -0.00000000000E+00  0.00000000000E+00  0.43117292996E+03  0.43117292996E+03  0.00000000000E+00 0.  1.
          1   -1    0    0  501    0  0.00000000000E+00 -0.00000000000E+00 -0.44599315558E+02  0.44599315558E+02  0.00000000000E+00 0. -1.
          5    1    1    2  502    0 -0.42362923895E+02 -0.26332071846E+02  0.56111150052E+02  0.75192611929E+02  0.41800000000E+01 0. -1.
         -5    1    1    2    0  502  0.90459945420E+01  0.57225037038E+02  0.28675316196E+03  0.29257714056E+03  0.41800000000E+01 0. -1.
        -11    1    1    2    0    0  0.59573740013E+02 -0.37569319788E+02  0.23660804911E+02  0.74298842370E+02  0.00000000000E+00 0.  1.
         11    1    1    2    0    0 -0.26256810661E+02  0.66763545957E+01  0.20048497473E+02  0.33703650658E+02  0.00000000000E+00 0. -1.
</event>
<event>
 6    1  0.6981059E-006  0.2827205E+03  0.7561462E-02  0.1094212E+00
         -2   -1    0    0    0  501 -0.00000000000E+00  0.00000000000E+00  0.13216806692E+03  0.13216806692E+03  0.00000000000E+00 0.  1.
          2   -1    0    0  501    0  0.00000000000E+00 -0.00000000000E+00 -0.13434236041E+04  0.13434236041E+04  0.00000000000E+00 0. -1.
          5    1    1    2  502    0  0.16758650135E+03  0.12499883254E+03 -0.11699465969E+03  0.23961462052E+03  0.41800000000E+01 0. -1.
         -5    1    1    2    0  502  0.75062765555E+02  0.12444126499E+02  0.23945202139E+02  0.79875654380E+02  0.41800000000E+01 0. -1.
        -11    1    1    2    0    0 -0.13413088570E+03 -0.60765118746E+02 -0.75796033649E+03  0.77213170240E+03  0.00000000000E+00 0. -1.
         11    1    1    2    0    0 -0.10851838120E+03 -0.76677840295E+02 -0.36024574312E+03  0.38396969371E+03  0.00000000000E+00 0.  1.
</event>
<event>
 6    1  0.7225840E-006  0.7771098E+02  0.7561462E-02  0.1335676E+00
          1   -1    0    0  501    0  0.00000000000E+00  0.00000000000E+00  0.85357167420E+02  0.85357167420E+02  0.00000000000E+00 0. -1.
         -1   -1    0    0    0  501 -0.00000000000E+00 -0.00000000000E+00 -0.17090819214E+03  0.17090819214E+03  0.00000000000E+00 0.  1.
          5    1    1    2  502    0 -0.27788380390E+02 -0.16864930832E+02  0.13385111432E+02  0.35401321793E+02  0.41800000000E+01 0. -1.
         -5    1    1    2    0  502  0.49318965652E+02  0.30291690441E+02 -0.11111361735E+03  0.12535411937E+03  0.41800000000E+01 0. -1.
        -11    1    1    2    0    0 -0.41850759276E+02 -0.34802818938E+01 -0.27243641858E+02  0.50058110588E+02  0.00000000000E+00 0.  1.
         11    1    1    2    0    0  0.20320174013E+02 -0.99464777148E+01  0.39421123050E+02  0.45451807812E+02  0.00000000000E+00 0. -1.
</event>
<event>
 6    1  0.6981059E-006  0.1244709E+03  0.7561462E-02  0.1235898E+00
          1   -1    0    0  501    0  0.00000000000E+00  0.00000000000E+00  0.34901168226E+02  0.34901168226E+02  0.00000000000E+00 0. -1.
         -1   -1    0    0    0  501 -0.00000000000E+00 -0.00000000000E+00 -0.73116286550E+03  0.73116286550E+03  0.00000000000E+00 0.  1.
          5    1    1    2  502    0 -0.13271233367E+02  0.18123038144E+02 -0.35000633675E+03  0.35075130550E+03  0.41800000000E+01 0.  1.
         -5    1    1    2    0  502 -0.84693257563E+02  0.20811851444E+02 -0.13205526603E+03  0.15831028622E+03  0.41800000000E+01 0.  1.
        -11    1    1    2    0    0 -0.35084854789E+01 -0.37126167942E+02 -0.35461751059E+02  0.51460641316E+02  0.00000000000E+00 0. -1.
         11    1    1    2    0    0  0.10147297641E+03 -0.18087216449E+01 -0.17873834343E+03  0.20554180068E+03  0.00000000000E+00 0.  1.
</event>
<event>
 6    1  0.6981059E-006  0.7031410E+02  0.7561462E-02  0.1359028E+00
          1   -1    0    0  501    0  0.00000000000E+00  0.00000000000E+00  0.59684885100E+02  0.59684885100E+02  0.00000000000E+00 0. -1.
         -1   -1    0    0    0  501 -0.00000000000E+00 -0.00000000000E+00 -0.32852589060E+03  0.32852589060E+03  0.00000000000E+00 0.  1.
          5    1    1    2  502    0 -0.28403681206E+02 -0.39410131583E+02 -0.25731785960E+03  0.26189669881E+03  0.41800000000E+01 0.  1.
         -5    1    1    2    0  502  0.21255940690E+02 -0.58339373150E+01  0.53994399155E+01  0.23075445622E+02  0.41800000000E+01 0.  1.
        -11    1    1    2    0    0 -0.16190264766E+02 -0.24139577437E+01  0.28842876563E+02  0.33164188421E+02  0.00000000000E+00 0.  1.
         11    1    1    2    0    0  0.23338005281E+02  0.47658026642E+02 -0.45765462377E+02  0.70074442848E+02  0.00000000000E+00 0. -1.
</event>
<event>
 6    1  0.6981059E-006  0.1715603E+03  0.7561462E-02  0.1176230E+00
         -2   -1    0    0    0  501 -0.00000000000E+00  0.00000000000E+00  0.68890472408E+03  0.68890472408E+03  0.00000000000E+00 0.  1.
          2   -1    0    0  501    0  0.00000000000E+00 -0.00000000000E+00 -0.24570580757E+03  0.24570580757E+03  0.00000000000E+00 0. -1.
          5    1    1    2  502    0  0.62414034975E+02 -0.42785160777E+02  0.25561714436E+03  0.26661522582E+03  0.41800000000E+01 0. -1.
         -5    1    1    2    0  502 -0.24664028048E+01  0.13006142806E+03  0.39651646644E+03  0.41733061087E+03  0.41800000000E+01 0.  1.
        -11    1    1    2    0    0 -0.79203734403E+02 -0.87369021244E+02 -0.16614609865E+03  0.20374273855E+03  0.00000000000E+00 0. -1.
         11    1    1    2    0    0  0.19256102233E+02  0.92753960814E-01 -0.42788595647E+02  0.46921956416E+02  0.00000000000E+00 0.  1.
</event>
<event>
 6    1  0.6981059E-006  0.3763611E+03  0.7561462E-02  0.1052287E+00
         -1   -1    0    0    0  501 -0.00000000000E+00  0.00000000000E+00  0.80034256233E+03  0.80034256233E+03  0.00000000000E+00 0.  1.
          1   -1    0    0  501    0  0.00000000000E+00 -0.00000000000E+00 -0.18143227357E+03  0.18143227357E+03  0.00000000000E+00 0. -1.
          5    1    1    2  502    0  0.23607457350E+03  0.24728484050E+02  0.24564571272E+03  0.34161673079E+03  0.41800000000E+01 0. -1.
         -5    1    1    2    0  502  0.12504094904E+03 -0.68373397138E+02  0.13597952714E+03  0.19702300519E+03  0.41800000000E+01 0.  1.
        -11    1    1    2    0    0 -0.29015040486E+03  0.13940709274E+01  0.16764473916E+03  0.33510290874E+03  0.00000000000E+00 0.  1.
         11    1    1    2    0    0 -0.70965117686E+02  0.42250842162E+02  0.69640309729E+02  0.10803219118E+03  0.00000000000E+00 0. -1.
</event>
<event>
 6    1  0.6981059E-006  0.6978472E+02  0.7561462E-02  0.1360827E+00
          2   -1    0    0  501    0  0.00000000000E+00  0.00000000000E+00  0.10547289962E+03  0.10547289962E+03  0.00000000000E+00 0. -1.
         -2   -1    0    0    0  501 -0.00000000000E+00 -0.00000000000E+00 -0.19902552538E+03  0.19902552538E+03  0.00000000000E+00 0.  1.
          5    1    1    2  502    0 -0.34618680002E+02  0.48513608371E+02 -0.15588025014E+03  0.16693755715E+03  0.41800000000E+01 0. -1.
         -5    1    1    2    0  502  0.21660502253E+02 -0.16067894303E+02  0.93648789518E+01  0.28853560317E+02  0.41800000000E+01 0. -1.
        -11    1    1    2    0    0  0.13419929195E+02  0.55585740858E+01  0.66723133703E+02  0.68285934252E+02  0.00000000000E+00 0. -1.
         11    1    1    2    0    0 -0.46175144559E+00 -0.38004288154E+02 -0.13760388277E+02  0.40421373282E+02  0.00000000000E+00 0.  1.
</event>
<event>
 6    1  0.6981059E-006  0.9475012E+02  0.7561462E-02  0.1291740E+00
         -1   -1    0    0    0  501 -0.00000000000E+00  0.00000000000E+00  0.26369691699E+02  0.26369691699E+02  0.00000000000E+00 0.  1.
          1   -1    0    0  501    0  0.00000000000E+00 -0.00000000000E+00 -0.54291495994E+03  0.54291495994E+03  0.00000000000E+00 0. -1.
          5    1    1    2  502    0  0.17105764442E+02 -0.58359949243E+02 -0.50557400616E+02  0.79196047943E+02  0.41800000000E+01 0. -1.
         -5    1    1    2    0  502 -0.36661330019E+02  0.98637895236E+01 -0.22153684165E+03  0.22480523141E+03  0.41800000000E+01 0. -1.
        -11    1    1    2    0    0  0.32564658884E+02 -0.70320862301E+01 -0.15964501943E+03  0.16308414845E+03  0.00000000000E+00 0. -1.
         11    1    1    2    0    0 -0.13009093307E+02  0.55528245950E+02 -0.84806006543E+02  0.10219922384E+03  0.00000000000E+00 0.  1.
</event>
<event>
 6    1  0.6981059E-006  0.1060394E+03  0.7561462E-02  0.1268085E+00
         -2   -1    0    0    0  501 -0.00000000000E+00  0.00000000000E+00  0.11697407900E+03  0.11697407900E+03  0.00000000000E+00 0.  1.
          2   -1    0    0  501    0  0.00000000000E+00 -0.00000000000E+00 -0.18406041580E+03  0.18406041580E+03  0.00000000000E+00 0. -1.
          5    1    1    2  502    0 -0.11256731367E+02 -0.47349299207E+02  0.43895321549E+02  0.65672991331E+02  0.41800000000E+01 0.  1.
         -5    1    1    2    0  502  0.81124898356E+02  0.60239383753E+01 -0.23635292161E+02  0.84815307595E+02  0.41800000000E+01 0.  1.
        -11    1    1    2    0    0 -0.21704664163E+02  0.18303891420E+02  0.17174134230E+02  0.33182461845E+02  0.00000000000E+00 0.  1.
         11    1    1    2    0    0 -0.48163502826E+02  0.23021469411E+02 -0.10452050041E+03  0.11736373403E+03  0.00000000000E+00 0. -1.
</event>
<event>
 6    1  0.6981059E-006  0.8022025E+02  0.7561462E-02  0.1328428E+00
         -1   -1    0    0    0  501 -0.00000000000E+00  0.00000000000E+00  0.50630641324E+03  0.50630641324E+03  0.00000000000E+00 0.  1.
          1   -1    0    0  501    0  0.00000000000E+00 -0.00000000000E+00 -0.42494788420E+02  0.42494788420E+02  0.00000000000E+00 0. -1.
          5    1    1    2  502    0 -0.15098221419E+02  0.47714199013E+02 -0.47962624218E+01  0.50448762231E+02  0.41800000000E+01 0. -1.
         -5    1    1    2    0  502  0.13845578336E+00  0.84322116414E+01  0.28568505821E+03  0.28584007110E+03  0.41800000000E+01 0.  1.
        -11    1    1    2    0    0  0.23728583988E+02  0.15684412563E+02  0.92063911059E+02  0.96357720060E+02  0.00000000000E+00 0.  1.
         11    1    1    2    0    0 -0.87688183527E+01 -0.71830823217E+02  0.90858917975E+02  0.11615464827E+03  0.00000000000E+00 0. -1.
</event>
<event>
 6    1  0.6981059E-006  0.1090420E+03  0.7561462E-02  0.1262354E+00
         -1   -1    0    0    0  501 -0.00000000000E+00  0.00000000000E+00  0.10253870980E+04  0.10253870980E+04  0.00000000000E+00 0.  1.
          1   -1    0    0  501    0  0.00000000000E+00 -0.00000000000E+00 -0.19298135291E+02  0.19298135291E+02  0.00000000000E+00 0. -1.
          5    1    1    2  502    0  0.12011460734E+02 -0.38085900306E+02  0.14624501399E+03  0.15165713800E+03  0.41800000000E+01 0. -1.
         -5    1    1    2    0  502 -0.26706950455E+02  0.78287133901E+02  0.69412633036E+03  0.69905004931E+03  0.41800000000E+01 0. -1.
        -11    1    1    2    0    0  0.28992637201E+02 -0.62341094192E+02  0.86523886658E+02  0.11051410769E+03  0.00000000000E+00 0. -1.
         11    1    1    2    0    0 -0.14297147479E+02  0.22139860596E+02  0.79193731685E+02  0.83463938270E+02  0.00000000000E+00 0.  1.
</event>
<event>
 6    1  0.6981059E-006  0.1152928E+03  0.7561462E-02  0.1251071E+00
          2   -1    0    0  501    0  0.00000000000E+00  0.00000000000E+00  0.40686360050E+03  0.40686360050E+03  0.00000000000E+00 0. -1.
         -2   -1    0    0    0  501 -0.00000000000E+00 -0.00000000000E+00 -0.59831507807E+02  0.59831507807E+02  0.00000000000E+00 0.  1.
          5    1    1    2  502    0 -0.25945475938E+02 -0.32174740199E+02  0.21601087634E+02  0.46823722786E+02  0.41800000000E+01 0. -1.
         -5    1    1    2    0  502  0.85917891651E+02  0.27580231515E+02  0.13077836144E+02  0.91274615717E+02  0.41800000000E+01 0.  1.
        -11    1    1    2    0    0 -0.45270217826E+02  0.39976290271E+02  0.22949481590E+03  0.23730859009E+03  0.00000000000E+00 0. -1.
         11    1    1    2    0    0 -0.14702197886E+02 -0.35381781587E+02  0.82858353010E+02  0.91288179709E+02  0.00000000000E+00 0.  1.
</event>
<event>
 6    1  0.6981059E-006  0.9389392E+02  0.7561462E-02  0.1293687E+00
          2   -1    0    0  501    0  0.00000000000E+00  0.00000000000E+00  0.49672165452E+02  0.49672165452E+02  0.00000000000E+00 0. -1.
         -2   -1    0    0    0  501 -0.00000000000E+00 -0.00000000000E+00 -0.24954300322E+03  0.24954300322E+03  0.00000000000E+00 0.  1.
          5    1    1    2  502    0 -0.70102939913E+01 -0.69533172030E+02 -0.80344901373E+02  0.10656820263E+03  0.41800000000E+01 0. -1.
         -5    1    1    2    0  502  0.23112268657E+02  0.38477102613E+02 -0.66519451716E+02  0.80355300040E+02  0.41800000000E+01 0.  1.
        -11    1    1    2    0    0 -0.24934911993E+02 -0.12753314277E+02  0.14340736263E+02  0.31465116839E+02  0.00000000000E+00 0.  1.
         11    1    1    2    0    0  0.88329373275E+01  0.43809383693E+02 -0.67347220938E+02  0.80826549162E+02  0.00000000000E+00 0. -1.
</event>
<event>
 6    1  0.6981059E-006  0.1223895E+03  0.7561462E-02  0.1239206E+00
          4   -1    0    0  501    0  0.00000000000E+00  0.00000000000E+00  0.35536304275E+03  0.35536304275E+03  0.00000000000E+00 0. -1.
         -4   -1    0    0    0  501 -0.00000000000E+00 -0.00000000000E+00 -0.57176588384E+02  0.57176588384E+02  0.00000000000E+00 0.  1.
          5    1    1    2  502    0  0.49341600844E+02 -0.10506149396E+03  0.81071709222E+02  0.14164252724E+03  0.41800000000E+01 0. -1.
         -5    1    1    2    0  502 -0.29534338287E+02  0.19234062219E+02  0.39906492440E+02  0.53406243328E+02  0.41800000000E+01 0. -1.
        -11    1    1    2    0    0  0.79915088343E+01  0.13985287645E+02 -0.71971900379E+01  0.17642336251E+02  0.00000000000E+00 0.  1.
         11    1    1    2    0    0 -0.27798771392E+02  0.71842144092E+02  0.18440544274E+03  0.19984852432E+03  0.00000000000E+00 0. -1.
</event>
<event>
 6    1  0.6981059E-006  0.8943247E+02  0.7561462E-02  0.1304232E+00
          2   -1    0    0  501    0  0.00000000000E+00  0.00000000000E+00  0.57589341569E+02  0.57589341569E+02  0.00000000000E+00 0. -1.
         -2   -1    0    0    0  501 -0.00000000000E+00 -0.00000000000E+00 -0.23015258501E+03  0.23015258501E+03  0.00000000000E+00 0.  1.
          5    1    1    2  502    0  0.12611362759E+01 -0.43070715104E+02 -0.12779822699E+03  0.13493159818E+03  0.41800000000E+01 0.  1.
         -5    1    1    2    0  502 -0.44836120648E+02  0.17718994250E+02  0.34455464413E+01  0.48513757454E+02  0.41800000000E+01 0.  1.
        -11    1    1    2    0    0 -0.17255941959E+02 -0.65943767539E+01  0.28505891853E+01  0.18691687895E+02  0.00000000000E+00 0. -1.
         11    1    1    2    0    0  0.60830926332E+02  0.31946097608E+02 -0.51061152070E+02  0.85604883047E+02  0.00000000000E+00 0.  1.
</event>
<event>
 6    1  0.6981059E-006  0.1063526E+03  0.7561462E-02  0.1267477E+00
          2   -1    0    0  501    0  0.00000000000E+00  0.00000000000E+00  0.14345004004E+03  0.14345004004E+03  0.00000000000E+00 0. -1.
         -2   -1    0    0    0  501 -0.00000000000E+00 -0.00000000000E+00 -0.11678598138E+03  0.11678598138E+03  0.00000000000E+00 0.  1.
          5    1    1    2  502    0 -0.70123508171E+02 -0.11642128947E+00  0.28357694238E+01  0.70305290984E+02  0.41800000000E+01 0. -1.
         -5    1    1    2    0  502  0.71718371670E+02  0.16250259555E+02 -0.33933226794E+02  0.81095820184E+02  0.41800000000E+01 0.  1.
        -11    1    1    2    0    0 -0.34222112513E+02 -0.93587958069E+01 -0.68521852584E+01  0.36134367112E+02  0.00000000000E+00 0. -1.
         11    1    1    2    0    0  0.32627249013E+02 -0.67750424582E+01  0.64613701294E+02  0.72700543144E+02  0.00000000000E+00 0.  1.
</event>
<event>
 6    1  0.6981059E-006  0.2781930E+03  0.7561462E-02  0.1096680E+00
         -2   -1    0    0    0  501 -0.00000000000E+00  0.00000000000E+00  0.29456284475E+03  0.29456284475E+03  0.00000000000E+00 0.  1.
          2   -1    0    0  501    0  0.00000000000E+00 -0.00000000000E+00 -0.40424872330E+03  0.40424872330E+03  0.00000000000E+00 0. -1.
          5    1    1    2  502    0 -0.86115340031E+01 -0.99885846688E+02  0.92604365199E+02  0.13654443138E+03  0.41800000000E+01 0. -1.
         -5    1    1    2    0  502 -0.13523439529E+03 -0.11945156330E+03  0.50709024510E+02  0.18747238520E+03  0.41800000000E+01 0. -1.
        -11    1    1    2    0    0  0.76707010963E+02  0.45452463991E+02 -0.67567044379E+02  0.11187134351E+03  0.00000000000E+00 0.  1.
         11    1    1    2    0    0  0.67138918335E+02  0.17388494600E+03 -0.18543222388E+03  0.26292340796E+03  0.00000000000E+00 0. -1.
</event>
<event>
 6    1  0.6981059E-006  0.1044698E+03  0.7561462E-02  0.1271168E+00
         -1   -1    0    0    0  501 -0.00000000000E+00  0.00000000000E+00  0.33377804740E+02  0.33377804740E+02  0.00000000000E+00 0.  1.
          1   -1    0    0  501    0  0.00000000000E+00 -0.00000000000E+00 -0.38376062871E+03  0.38376062871E+03  0.00000000000E+00 0. -1.
          5    1    1    2  502    0 -0.47031222345E+02 -0.44752988312E+02 -0.53706802185E+02  0.84360291839E+02  0.41800000000E+01 0. -1.
         -5    1    1    2    0  502  0.79715294289E+01  0.49374753457E+02 -0.76911511324E+02  0.91838252022E+02  0.41800000000E+01 0.  1.
        -11    1    1    2    0    0  0.58373260436E+02  0.20623789249E+02 -0.10536961903E+03  0.12221102582E+03  0.00000000000E+00 0.  1.
         11    1    1    2    0    0 -0.19313567520E+02 -0.25245554394E+02 -0.11439489143E+03  0.11872886377E+03  0.00000000000E+00 0. -1.
</event>
<event>
 6    1  0.6981059E-006  0.3259442E+03  0.7561462E-02  0.1072946E+00
          1   -1    0    0  501    0  0.00000000000E+00  0.00000000000E+00  0.66996652753E+03  0.66996652753E+03  0.00000000000E+00 0. -1.
         -1   -1    0    0    0  501 -0.00000000000E+00 -0.00000000000E+00 -0.18646857843E+03  0.18646857843E+03  0.00000000000E+00 0.  1.
          5    1    1    2  502    0 -0.59113672976E+02 -0.21268226587E+03  0.11766148008E+03  0.25017967312E+03  0.41800000000E+01 0. -1.
         -5    1    1    2    0  502  0.34428889335E+02 -0.10590281821E+03 -0.33986375570E+01  0.11148891632E+03  0.41800000000E+01 0. -1.
        -11    1    1    2    0    0  0.66437302923E+01  0.14378957489E+03  0.10811116666E+03  0.18002112475E+03  0.00000000000E+00 0.  1.
         11    1    1    2    0    0  0.18041053349E+02  0.17479550919E+03  0.26112393992E+03  0.31474539177E+03  0.00000000000E+00 0. -1.
</event>
<event>
 6    1  0.6981059E-006  0.1129744E+03  0.7561462E-02  0.1255159E+00
         -2   -1    0    0    0  501 -0.00000000000E+00  0.00000000000E+00  0.12697859094E+03  0.12697859094E+03  0.00000000000E+00 0.  1.
          2   -1    0    0  501    0  0.00000000000E+00 -0.00000000000E+00 -0.14063934390E+03  0.14063934390E+03  0.00000000000E+00 0. -1.
          5    1    1    2  502    0 -0.42580654752E+02  0.17014712943E+02 -0.12430997797E+02  0.47692921088E+02  0.41800000000E+01 0. -1.
         -5    1    1    2    0  502  0.71848810696E+02  0.33710968201E+02  0.55677923346E+02  0.97037026560E+02  0.41800000000E+01 0. -1.
        -11    1    1    2    0    0  0.25052316801E+02 -0.36513088571E+02 -0.19575270647E+01  0.44324441636E+02  0.00000000000E+00 0.  1.
         11    1    1    2    0    0 -0.54320472746E+02 -0.14212592574E+02 -0.54950151439E+02  0.78563545555E+02  0.00000000000E+00 0. -1.
</event>
<event>
 6    1  0.6981059E-006  0.1086827E+03  0.7561462E-02  0.1263029E+00
         -1   -1    0    0    0  501 -0.00000000000E+00  0.00000000000E+00  0.68828084156E+03  0.68828084156E+03  0.00000000000E+00 0.  1.
          1   -1    0    0  501    0  0.00000000000E+00 -0.00000000000E+00 -0.22663454435E+02  0.22663454435E+02  0.00000000000E+00 0. -1.
          5    1    1    2  502    0  0.37674721292E+02 -0.93209080035E+00  0.28994795622E+03  0.29241672855E+03  0.41800000000E+01 0. -1.
         -5    1    1    2    0  502 -0.35032594162E+02 -0.60715961737E+02  0.10394790079E+03  0.12544460587E+03  0.41800000000E+01 0. -1.
        -11    1    1    2    0    0  0.39128091972E+02  0.54118971421E+02  0.18090101358E+03  0.19283424842E+03  0.00000000000E+00 0.  1.
         11    1    1    2    0    0 -0.41770219103E+02  0.75290811165E+01  0.90820516541E+02  0.10024871316E+03  0.00000000000E+00 0. -1.
</event>
<event>
 6    1  0.6981059E-006  0.6802631E+02  0.7561462E-02  0.1366936E+00
         -3   -1    0    0    0  501 -0.00000000000E+00  0.00000000000E+00  0.14830400660E+03  0.14830400660E+03  0.00000000000E+00 0.  1.
          3   -1    0    0  501    0  0.00000000000E+00 -0.00000000000E+00 -0.12913743151E+03  0.12913743151E+03  0.00000000000E+00 0. -1.
          5    1    1    2  502    0  0.62778886760E+02  0.19877215064E+02  0.10950798157E+03  0.12785054841E+03  0.41800000000E+01 0. -1.
         -5    1    1    2    0  502 -0.58646958291E+01 -0.93054876967E+01 -0.29332788248E+02  0.31604930388E+02  0.41800000000E+01 0. -1.
        -11    1    1    2    0    0 -0.34920606392E+02 -0.30292722599E+01 -0.80400964996E+02  0.87709408922E+02  0.00000000000E+00 0. -1.
         11    1    1    2    0    0 -0.21993584540E+02 -0.75424551072E+01  0.19392346764E+02  0.30276550381E+02  0.00000000000E+00 0.  1.
</event>
<event>
 6    1  0.6981059E-006  0.7020062E+02  0.7561462E-02  0.1359412E+00
          2   -1    0    0  501    0  0.00000000000E+00  0.00000000000E+00  0.46764051959E+03  0.46764051959E+03  0.00000000000E+00 0. -1.
         -2   -1    0    0    0  501 -0.00000000000E+00 -0.00000000000E+00 -0.29312769556E+02  0.29312769556E+02  0.00000000000E+00 0.  1.
          5    1    1    2  502    0 -0.95031601889E+01  0.42058035892E+02  0.93703472201E+01  0.44322277059E+02  0.41800000000E+01 0. -1.
         -5    1    1    2    0  502  0.16364331086E+01 -0.81253739791E+00  0.22187941780E+03  0.22192630889E+03  0.41800000000E+01 0. -1.
        -11    1    1    2    0    0 -0.35363903542E+02 -0.42480025338E+01  0.36987864881E+02  0.51349326653E+02  0.00000000000E+00 0.  1.
         11    1    1    2    0    0  0.43230630622E+02 -0.36997495960E+02  0.17009012013E+03  0.17935537655E+03  0.00000000000E+00 0. -1.
</event>
<event>
 6    1  0.6981059E-006  0.1085216E+03  0.7561462E-02  0.1263332E+00
          2   -1    0    0  501    0  0.00000000000E+00  0.00000000000E+00  0.51462254797E+03  0.51462254797E+03  0.00000000000E+00 0. -1.
         -2   -1    0    0    0  501 -0.00000000000E+00 -0.00000000000E+00 -0.44309262910E+02  0.44309262910E+02  0.00000000000E+00 0.  1.
          5    1    1    2  502    0  0.17072198147E+02  0.22966807097E+02  0.22432272950E+03  0.22617933935E+03  0.41800000000E+01 0. -1.
         -5    1    1    2    0  502 -0.11903514600E+02  0.61075091175E+02  0.71985570917E+01  0.62778595445E+02  0.41800000000E+01 0.  1.
        -11    1    1    2    0    0 -0.45852749813E+02 -0.68022295911E+02  0.14849218228E+03  0.16964502823E+03  0.00000000000E+00 0.  1.
         11    1    1    2    0    0  0.40684066266E+02 -0.16019602360E+02  0.90299816188E+02  0.10032884785E+03  0.00000000000E+00 0. -1.
</event>
<event>
 6    1  0.6981059E-006  0.9506221E+02  0.7561462E-02  0.1291036E+00
          2   -1    0    0  501    0  0.00000000000E+00  0.00000000000E+00  0.50502094309E+02  0.50502094309E+02  0.00000000000E+00 0. -1.
         -2   -1    0    0    0  501 -0.00000000000E+00 -0.00000000000E+00 -0.52695973262E+03  0.52695973262E+03  0.00000000000E+00 0.  1.
          5    1    1    2  502    0 -0.21209598381E+02 -0.30591977069E+02 -0.65750730992E+02  0.75672631449E+02  0.41800000000E+01 0.  1.
         -5    1    1    2    0  502  0.35737866869E+02  0.81277406164E+02 -0.38192274117E+03  0.39212965267E+03  0.41800000000E+01 0.  1.
        -11    1    1    2    0    0 -0.25995762325E+02 -0.27091593717E+02  0.28180037831E+02  0.46945166323E+02  0.00000000000E+00 0. -1.
         11    1    1    2    0    0  0.11467493837E+02 -0.23593835379E+02 -0.56964203982E+02  0.62714376487E+02  0.00000000000E+00 0.  1.
</event>
<event>
 6    1  0.6981059E-006  0.1218262E+03  0.7561462E-02  0.1240115E+00
         -3   -1    0    0    0  501 -0.00000000000E+00  0.00000000000E+00  0.41008218814E+03  0.41008218814E+03  0.00000000000E+00 0.  1.
          3   -1    0    0  501    0  0.00000000000E+00 -0.00000000000E+00 -0.36813630062E+02  0.36813630062E+02  0.00000000000E+00 0. -1.
          5    1    1    2  502    0  0.29163503811E+02  0.42122235372E+02  0.62425976170E+02  0.80865737912E+02  0.41800000000E+01 0.  1.
         -5    1    1    2    0  502  0.17589960427E+02 -0.85376771853E+02  0.15680137155E+03  0.17945122568E+03  0.41800000000E+01 0.  1.
        -11    1    1    2    0    0 -0.57087382319E+02  0.61561456944E+02  0.12854311752E+03  0.15353213105E+03  0.00000000000E+00 0.  1.
         11    1    1    2    0    0  0.10333918082E+02 -0.18306920463E+02  0.25498092834E+02  0.33046723558E+02  0.00000000000E+00 0. -1.
</event>
<event>
 6    1  0.6981059E-006  0.1308505E+03  0.7561462E-02  0.1226199E+00
          3   -1    0    0  501    0  0.00000000000E+00  0.00000000000E+00  0.10443992524E+03  0.10443992524E+03  0.00000000000E+00 0. -1.
         -3   -1    0    0    0  501 -0.00000000000E+00 -0.00000000000E+00 -0.28748691221E+03  0.28748691221E+03  0.00000000000E+00 0.  1.
          5    1    1    2  502    0 -0.25418889081E+02 -0.12026743997E+02 -0.16900071212E+02  0.33073362397E+02  0.41800000000E+01 0.  1.
         -5    1    1    2    0  502  0.10003414031E+03  0.81290590690E+02 -0.17994808999E+03  0.22139055277E+03  0.41800000000E+01 0.  1.
        -11    1    1    2    0    0 -0.36741719077E+02 -0.18983333988E+02 -0.37830010485E+02  0.56048466378E+02  0.00000000000E+00 0.  1.
         11    1    1    2    0    0 -0.37873532148E+02 -0.50280512705E+02  0.51631184716E+02  0.81414455906E+02  0.00000000000E+00 0. -1.
</event>
<event>
 6    1  0.6981059E-006  0.1160907E+03  0.7561462E-02  0.1249689E+00
         -1   -1    0    0    0  501 -0.00000000000E+00  0.00000000000E+00  0.15306294835E+02  0.15306294835E+02  0.00000000000E+00 0.  1.
          1   -1    0    0  501    0  0.00000000000E+00 -0.00000000000E+00 -0.10344959366E+04  0.10344959366E+04  0.00000000000E+00 0. -1.
          5    1    1    2  502    0 -0.83281314884E+02 -0.52452928288E+02 -0.45251241830E+03  0.46311126979E+03  0.41800000000E+01 0. -1.
         -5    1    1    2    0  502  0.22415670767E+02  0.32159827414E+02 -0.11559627670E+03  0.12213389530E+03  0.41800000000E+01 0. -1.
        -11    1    1    2    0    0  0.67946995424E+02  0.36088570820E+02 -0.43198680194E+03  0.43878443020E+03  0.00000000000E+00 0. -1.
         11    1    1    2    0    0 -0.70813513065E+01 -0.15795469946E+02 -0.19094144829E+02  0.25772636145E+02  0.00000000000E+00 0.  1.
</event>
<event>
 6    1  0.6981059E-006  0.8845320E+02  0.7561462E-02  0.1306641E+00
         -4   -1    0    0    0  501 -0.00000000000E+00  0.00000000000E+00  0.49244885179E+02  0.49244885179E+02  0.00000000000E+00 0.  1.
          4   -1    0    0  501    0  0.00000000000E+00 -0.00000000000E+00 -0.20131417860E+03  0.20131417860E+03  0.00000000000E+00 0. -1.
          5    1    1    2  502    0 -0.68906643908E+02  0.27157973960E+02 -0.13483312962E+02  0.75398628984E+02  0.41800000000E+01 0.  1.
         -5    1    1    2    0  502  0.17022598097E+02 -0.38979365642E+02 -0.76457912253E+02  0.87592491333E+02  0.41800000000E+01 0.  1.
        -11    1    1    2    0    0  0.23008025912E+02 -0.86579218110E+01 -0.35897283921E+02  0.43507974664E+02  0.00000000000E+00 0.  1.
         11    1    1    2    0    0  0.28876019899E+02  0.20479313493E+02 -0.26230784290E+02  0.44059968801E+02  0.00000000000E+00 0. -1.
</event>
<event>
 6    1  0.6981059E-006  0.1157177E+03  0.7561462E-02  0.1250334E+00
          2   -1    0    0  501    0  0.00000000000E+00  0.00000000000E+00  0.93100723630E+03  0.93100723630E+03  0.00000000000E+00 0. -1.
         -2   -1    0    0    0  501 -0.00000000000E+00 -0.00000000000E+00 -0.14694196430E+02  0.14694196430E+02  0.00000000000E+00 0.  1.
          5    1    1    2  502    0  0.60576521378E+02  0.18681097232E+02  0.19604784619E+03  0.20608427580E+03  0.41800000000E+01 0.  1.
         -5    1    1    2    0  502 -0.39910059577E+02 -0.52899024797E+02  0.27772315065E+03  0.28554989141E+03  0.41800000000E+01 0.  1.
        -11    1    1    2    0    0 -0.57551712430E+02  0.28364915434E+02  0.29127420547E+03  0.29825732314E+03  0.00000000000E+00 0.  1.
         11    1    1    2    0    0  0.36885250629E+02  0.58530121306E+01  0.15126783757E+03  0.15580994239E+03  0.00000000000E+00 0. -1.
</event>
<event>
 6    1  0.7801342E-006  0.1327647E+03  0.7561462E-02  0.1223410E+00
         -1   -1    0    0    0  501 -0.00000000000E+00  0.00000000000E+00  0.38304597344E+03  0.38304597344E+03  0.00000000000E+00 0.  1.
          1   -1    0    0  501    0  0.00000000000E+00 -0.00000000000E+00 -0.75792126363E+02  0.75792126363E+02  0.00000000000E+00 0. -1.
          5    1    1    2  502    0  0.21785035727E+02  0.41218029420E+02  0.17482582833E+03  0.18098358042E+03  0.41800000000E+01 0.  1.
         -5    1    1    2    0  502  0.88689381531E+02  0.15659589077E+02  0.44848849219E+02  0.10069717376E+03  0.41800000000E+01 0.  1.
        -11    1    1    2    0    0 -0.37546662798E+02 -0.37586538382E+02 -0.97525052521E+01  0.54014915657E+02  0.00000000000E+00 0. -1.
         11    1    1    2    0    0 -0.72927754460E+02 -0.19291080115E+02  0.97331674782E+02  0.12314242997E+03  0.00000000000E+00 0.  1.
</event>
<event>
 6    1  0.6981059E-006  0.1230555E+03  0.7561462E-02  0.1238140E+00
         -1   -1    0    0    0  501 -0.00000000000E+00  0.00000000000E+00  0.58957950989E+02  0.58957950989E+02  0.00000000000E+00 0.  1.
          1   -1    0    0  501    0  0.00000000000E+00 -0.00000000000E+00 -0.37473854161E+03  0.37473854161E+03  0.00000000000E+00 0. -1.
          5    1    1    2  502    0 -0.67990292446E+02  0.12296342572E+02 -0.15177334564E+03  0.16681277155E+03  0.41800000000E+01 0. -1.
         -5    1    1    2    0  502 -0.24794883076E+02 -0.49935235124E+02 -0.30525599581E+01  0.55992003501E+02  0.41800000000E+01 0. -1.
        -11    1    1    2    0    0  0.59953036687E+02 -0.12315431240E+02 -0.32705153167E+02  0.69394981795E+02  0.00000000000E+00 0.  1.
         11    1    1    2    0    0  0.32832138835E+02  0.49954323793E+02 -0.12824953186E+03  0.14149673575E+03  0.00000000000E+00 0. -1.
</event>
<event>
 6    1  0.6981059E-006  0.1053814E+03  0.7561462E-02  0.1269370E+00
          1   -1    0    0  501    0  0.00000000000E+00  0.00000000000E+00  0.32566753335E+02  0.32566753335E+02  0.00000000000E+00 0. -1.
         -1   -1    0    0    0  501 -0.00000000000E+00 -0.00000000000E+00 -0.46861399990E+03  0.46861399990E+03  0.00000000000E+00 0.  1.
          5    1    1    2  502    0  0.34890114808E+02  0.35463500851E+02 -0.11213876794E+03  0.12274997222E+03  0.41800000000E+01 0.  1.
         -5    1    1    2    0  502 -0.74391432162E+02 -0.31237171836E+02 -0.22160955077E+03  0.23587732294E+03  0.41800000000E+01 0.  1.
        -11    1    1    2    0    0  0.58008681749E+02  0.69542135094E+01 -0.10559623064E+03  0.12068111770E+03  0.00000000000E+00 0.  1.
         11    1    1    2    0    0 -0.18507364395E+02 -0.11180542525E+02  0.32973027894E+01  0.21872340379E+02  0.00000000000E+00 0. -1.
</event>
<event>
 6    1  0.6981059E-006  0.1363222E+03  0.7561462E-02  0.1218365E+00
          2   -1    0    0  501    0  0.00000000000E+00  0.00000000000E+00  0.35193878438E+03  0.35193878438E+03  0.00000000000E+00 0.  1.
         -2   -1    0    0    0  501 -0.00000000000E+00 -0.00000000000E+00 -0.64975853325E+02  0.64975853325E+02  0.00000000000E+00 0. -1.
          5    1    1    2  502    0  0.12036870395E+01  0.10277164730E+03  0.69666298519E+02  0.12423496247E+03  0.41800000000E+01 0. -1.
         -5    1    1    2    0  502  0.35840524309E+02 -0.25077150716E+02  0.28454680118E+01  0.44033802459E+02  0.41800000000E+01 0. -1.
        -11    1    1    2    0    0  0.25494473071E+02  0.76346195259E+00  0.43519498231E+02  0.50443014953E+02  0.00000000000E+00 0. -1.
         11    1    1    2    0    0 -0.62538684419E+02 -0.78457958536E+02  0.17093166629E+03  0.19820285782E+03  0.00000000000E+00 0.  1.
</event>
<event>
 6    1  0.6981059E-006  0.1095218E+03  0.7561462E-02  0.1261458E+00
          2   -1    0    0  501    0  0.00000000000E+00  0.00000000000E+00  0.36188460877E+03  0.36188460877E+03  0.00000000000E+00 0. -1.
         -2   -1    0    0    0  501 -0.00000000000E+00 -0.00000000000E+00 -0.39470466854E+02  0.39470466854E+02  0.00000000000E+00 0.  1.
          5    1    1    2  502    0 -0.84719940752E+01  0.60013637159E+02  0.10381128133E+03  0.12028161065E+03  0.41800000000E+01 0. -1.
         -5    1    1    2    0  502 -0.31563623312E+02 -0.50588833215E+02  0.27932280912E+02  0.65978610774E+02  0.41800000000E+01 0. -1.
        -11    1    1    2    0    0  0.68442622026E+02  0.44481656309E+00  0.11742783084E+03  0.13591867358E+03  0.00000000000E+00 0.  1.
         11    1    1    2    0    0 -0.28407004638E+02 -0.98696205065E+01  0.73242748836E+02  0.79176180626E+02  0.00000000000E+00 0. -1.
</event>
<event>
 6    1  0.6981059E-006  0.5329796E+02  0.7561462E-02  0.1428324E+00
          1   -1    0    0  501    0  0.00000000000E+00  0.00000000000E+00  0.88854929647E+02  0.88854929647E+02  0.00000000000E+00 0. -1.
         -1   -1    0    0    0  501 -0.00000000000E+00 -0.00000000000E+00 -0.10690232892E+04  0.10690232892E+04  0.00000000000E+00 0.  1.
          5    1    1    2  502    0 -0.12955511784E+02 -0.21038673806E+02 -0.48762173825E+02  0.54824201565E+02  0.41800000000E+01 0. -1.
         -5    1    1    2    0  502  0.13448188917E+02  0.17185989524E+01 -0.99167584813E+03  0.99177732760E+03  0.41800000000E+01 0.  1.
        -11    1    1    2    0    0  0.65799725006E+00  0.43318655387E+02  0.72392059690E+02  0.84365568635E+02  0.00000000000E+00 0. -1.
         11    1    1    2    0    0 -0.11506743828E+01 -0.23998580534E+02 -0.12122397248E+02  0.26911121014E+02  0.00000000000E+00 0.  1.
</event>
<event>
 6    1  0.6981059E-006  0.8775239E+02  0.7561462E-02  0.1308388E+00
          2   -1    0    0  501    0  0.00000000000E+00  0.00000000000E+00  0.60581335632E+03  0.60581335632E+03  0.00000000000E+00 0. -1.
         -2   -1    0    0    0  501 -0.00000000000E+00 -0.00000000000E+00 -0.21654754351E+02  0.21654754351E+02  0.00000000000E+00 0.  1.
          5    1    1    2  502    0 -0.40691360592E+02  0.10572049708E+02  0.24701076323E+02  0.48940480518E+02  0.41800000000E+01 0.  1.
         -5    1    1    2    0  502  0.32439585886E+02 -0.35869211768E+02  0.24219770208E+03  0.24701442545E+03  0.41800000000E+01 0.  1.
        -11    1    1    2    0    0  0.26302174765E+02 -0.21871673789E+02  0.57638786033E+02  0.67025399417E+02  0.00000000000E+00 0. -1.
         11    1    1    2    0    0 -0.18050400060E+02  0.47168835849E+02  0.25962103753E+03  0.26448780529E+03  0.00000000000E+00 0.  1.
</event>
<event>
 6    1  0.6981059E-006  0.1839443E+03  0.7561462E-02  0.1164039E+00
          1   -1    0    0  501    0  0.00000000000E+00  0.00000000000E+00  0.40531533820E+03  0.40531533820E+03  0.00000000000E+00 0. -1.
         -1   -1    0    0    0  501 -0.00000000000E+00 -0.00000000000E+00 -0.10189345663E+03  0.10189345663E+03  0.00000000000E+00 0.  1.
          5    1    1    2  502    0  0.16934201383E+03 -0.38623696734E+01  0.63199026383E+02  0.18084032981E+03  0.41800000000E+01 0. -1.
         -5    1    1    2    0  502 -0.10073182056E+02  0.31739472289E+02  0.24783246506E+02  0.41719837072E+02  0.41800000000E+01 0. -1.
        -11    1    1    2    0    0 -0.68466439851E+02  0.41828291280E+01  0.15867564495E+03  0.17286731832E+03  0.00000000000E+00 0. -1.
         11    1    1    2    0    0 -0.90802391925E+02 -0.32059931744E+02  0.56763963741E+02  0.11178130963E+03  0.00000000000E+00 0.  1.
</event>
<event>
 6    1  0.6981059E-006  0.2078676E+03  0.7561462E-02  0.1143266E+00
         -1   -1    0    0    0  501 -0.00000000000E+00  0.00000000000E+00  0.55615005030E+03  0.55615005030E+03  0.00000000000E+00 0.  1.
          1   -1    0    0  501    0  0.00000000000E+00 -0.00000000000E+00 -0.85323704013E+02  0.85323704013E+02  0.00000000000E+00 0. -1.
          5    1    1    2  502    0  0.23512323462E+02  0.67105257752E+02  0.70080436524E+02  0.99923395438E+02  0.41800000000E+01 0.  1.
         -5    1    1    2    0  502 -0.12120953930E+03  0.93077032501E+02  0.20670698605E+03  0.25709985779E+03  0.41800000000E+01 0.  1.
        -11    1    1    2    0    0  0.26185674480E+02 -0.80054202100E+02  0.32105911873E+02  0.90139638334E+02  0.00000000000E+00 0. -1.
         11    1    1    2    0    0  0.71511541357E+02 -0.80128088153E+02  0.16193301185E+03  0.19431086275E+03  0.00000000000E+00 0.  1.
</event>
<event>
 6    1  0.6981059E-006  0.8472047E+02  0.7561462E-02  0.1316165E+00
          1   -1    0    0  501    0  0.00000000000E+00  0.00000000000E+00  0.61856559092E+02  0.61856559092E+02  0.00000000000E+00 0. -1.
         -1   -1    0    0    0  501 -0.00000000000E+00 -0.00000000000E+00 -0.23191278031E+03  0.23191278031E+03  0.00000000000E+00 0.  1.
          5    1    1    2  502    0  0.56952792797E+02 -0.15276109515E+02 -0.13376942905E+03  0.14624880402E+03  0.41800000000E+01 0.  1.
         -5    1    1    2    0  502 -0.25897223289E+02  0.33257532481E+02 -0.28894810966E+01  0.42456461720E+02  0.41800000000E+01 0.  1.
        -11    1    1    2    0    0 -0.27092624358E+02  0.17509047270E+02 -0.54684380565E+02  0.63489829963E+02  0.00000000000E+00 0.  1.
         11    1    1    2    0    0 -0.39629451493E+01 -0.35490470236E+02  0.21287069491E+02  0.41574243701E+02  0.00000000000E+00 0. -1.
</event>
<event>
 6    1  0.6981059E-006  0.1348535E+03  0.7561462E-02  0.1220427E+00
         -1   -1    0    0    0  501 -0.00000000000E+00  0.00000000000E+00  0.23327795141E+03  0.23327795141E+03  0.00000000000E+00 0.  1.
          1   -1    0    0  501    0  0.00000000000E+00 -0.00000000000E+00 -0.79430904454E+02  0.79430904454E+02  0.00000000000E+00 0. -1.
          5    1    1    2  502    0 -0.69389336756E+02  0.90159396674E+02  0.70403990994E+02  0.13385735397E+03  0.41800000000E+01 0. -1.
         -5    1    1    2    0  502  0.11785682026E+02 -0.32073910847E+02  0.99161275599E+01  0.35825131453E+02  0.41800000000E+01 0. -1.
        -11    1    1    2    0    0 -0.21711325760E+02 -0.30543812623E+02  0.32378544722E+02  0.49524502160E+02  0.00000000000E+00 0.  1.
         11    1    1    2    0    0  0.79314980490E+02 -0.27541673204E+02  0.41148383684E+02  0.93501868286E+02  0.00000000000E+00 0. -1.
</event>
<event>
 6    1  0.6981059E-006  0.1296639E+03  0.7561462E-02  0.1227955E+00
         -2   -1    0    0    0  501 -0.00000000000E+00  0.00000000000E+00  0.98586967541E+02  0.98586967541E+02  0.00000000000E+00 0.  1.
          2   -1    0    0  501    0  0.00000000000E+00 -0.00000000000E+00 -0.19358905705E+03  0.19358905705E+03  0.00000000000E+00 0. -1.
          5    1    1    2  502    0  0.24472221764E+02  0.98544358008E+02  0.19309861473E+01  0.10164192659E+03  0.41800000000E+01 0. -1.
         -5    1    1    2    0  502 -0.33947638865E+02 -0.25271322383E+02 -0.10966323179E+02  0.43918271409E+02  0.41800000000E+01 0. -1.
        -11    1    1    2    0    0  0.19661293533E+02  0.15985212157E+02 -0.35369531911E+02  0.43509737516E+02  0.00000000000E+00 0.  1.
         11    1    1    2    0    0 -0.10185876432E+02 -0.89258247783E+02 -0.50597220568E+02  0.10310608908E+03  0.00000000000E+00 0. -1.
</event>
<event>
 6    1  0.6981059E-006  0.1254183E+03  0.7561462E-02  0.1234417E+00
         -1   -1    0    0    0  501 -0.00000000000E+00  0.00000000000E+00  0.49843020592E+02  0.49843020592E+02  0.00000000000E+00 0.  1.
          1   -1    0    0  501    0  0.00000000000E+00 -0.00000000000E+00 -0.51801606518E+03  0.51801606518E+03  0.00000000000E+00 0. -1.
          5    1    1    2  502    0  0.32492858364E+02 -0.11471367892E+03 -0.15826163821E+03  0.19818989002E+03  0.41800000000E+01 0. -1.
         -5    1    1    2    0  502 -0.19086059509E+02  0.11771924736E+02  0.69951704393E+01  0.23859184584E+02  0.41800000000E+01 0. -1.
        -11    1    1    2    0    0 -0.19920191457E+02  0.33469447977E+02 -0.26428913252E+02  0.47069155838E+02  0.00000000000E+00 0.  1.
         11    1    1    2    0    0  0.65133926012E+01  0.69472306210E+02 -0.29047766356E+03  0.29874085533E+03  0.00000000000E+00 0. -1.
</event>
<event>
 6    1  0.6981059E-006  0.2693077E+03  0.7561462E-02  0.1101676E+00
         -2   -1    0    0    0  501 -0.00000000000E+00  0.00000000000E+00  0.82178583197E+02  0.82178583197E+02  0.00000000000E+00 0. -1.
          2   -1    0    0  501    0  0.00000000000E+00 -0.00000000000E+00 -0.10436250050E+04  0.10436250050E+04  0.00000000000E+00 0.  1.
          5    1    1    2  502    0 -0.20638060872E+02 -0.10446054840E+03 -0.55539846002E+02  0.12016689487E+03  0.41800000000E+01 0.  1.
         -5    1    1    2    0  502 -0.21526215807E+02 -0.15628553498E+03 -0.30985197165E+03  0.34772728272E+03  0.41800000000E+01 0.  1.
        -11    1    1    2    0    0 -0.94816125612E+01  0.16648622661E+03 -0.41652361306E+03  0.44866411141E+03  0.00000000000E+00 0.  1.
         11    1    1    2    0    0  0.51645889241E+02  0.94259856771E+02 -0.17953099105E+03  0.20924529916E+03  0.00000000000E+00 0. -1.
</event>
<event>
 6    1  0.6981059E-006  0.1803271E+03  0.7561462E-02  0.1167487E+00
          1   -1    0    0  501    0  0.00000000000E+00  0.00000000000E+00  0.86739194495E+03  0.86739194495E+03  0.00000000000E+00 0. -1.
         -1   -1    0    0    0  501 -0.00000000000E+00 -0.00000000000E+00 -0.48860170535E+02  0.48860170535E+02  0.00000000000E+00 0.  1.
          5    1    1    2  502    0 -0.31867812674E+02 -0.20784217297E+02  0.77073372373E+02  0.86054159122E+02  0.41800000000E+01 0.  1.
         -5    1    1    2    0  502 -0.58507897462E+02  0.13863666372E+03  0.14616200626E+03  0.20981921520E+03  0.41800000000E+01 0.  1.
        -11    1    1    2    0    0  0.28606131187E+02  0.96309992301E+01  0.15305404514E+03  0.15600194749E+03  0.00000000000E+00 0. -1.
         11    1    1    2    0    0  0.61769578948E+02 -0.12748344565E+03  0.44224235064E+03  0.46437679367E+03  0.00000000000E+00 0.  1.
</event>
<event>
 6    1  0.6981059E-006  0.1555519E+03  0.7561462E-02  0.1193812E+00
         -2   -1    0    0    0  501 -0.00000000000E+00  0.00000000000E+00  0.19262399959E+02  0.19262399959E+02  0.00000000000E+00 0.  1.
          2   -1    0    0  501    0  0.00000000000E+00 -0.00000000000E+00 -0.13531720092E+04  0.13531720092E+04  0.00000000000E+00 0. -1.
          5    1    1    2  502    0  0.13342757537E+02 -0.34997774224E+02 -0.15076055600E+03  0.15539977807E+03  0.41800000000E+01 0. -1.
         -5    1    1    2    0  502 -0.12591532592E+03  0.28020214860E+02 -0.72985414493E+03  0.74117767573E+03  0.41800000000E+01 0. -1.
        -11    1    1    2    0    0  0.78021087165E+02 -0.38690309937E+02 -0.29122047889E+03  0.30396315147E+03  0.00000000000E+00 0. -1.
         11    1    1    2    0    0  0.34551481214E+02  0.45667869300E+02 -0.16207442940E+03  0.17189380386E+03  0.00000000000E+00 0.  1.
</event>
<event>
 6    1  0.6981059E-006  0.2941422E+03  0.7561462E-02  0.1088206E+00
         -2   -1    0    0    0  501 -0.00000000000E+00  0.00000000000E+00  0.42162820253E+03  0.42162820253E+03  0.00000000000E+00 0.  1.
          2   -1    0    0  501    0  0.00000000000E+00 -0.00000000000E+00 -0.38466892035E+03  0.38466892035E+03  0.00000000000E+00 0. -1.
          5    1    1    2  502    0 -0.25813241116E+03 -0.74368365051E+02 -0.20362321022E+03  0.33710959576E+03  0.41800000000E+01 0. -1.
         -5    1    1    2    0  502  0.20054835228E+03  0.98822663665E+02  0.27612331796E+03  0.35531270675E+03  0.41800000000E+01 0.  1.
        -11    1    1    2    0    0 -0.12350921380E+02  0.11931092256E+02  0.12783616213E+02  0.21408341011E+02  0.00000000000E+00 0. -1.
         11    1    1    2    0    0  0.69934980263E+02 -0.36385390870E+02 -0.48324441768E+02  0.92466479361E+02  0.00000000000E+00 0.  1.
</event>
<event>
 6    1  0.6981059E-006  0.1646605E+03  0.7561462E-02  0.1183533E+00
          2   -1    0    0  501    0  0.00000000000E+00  0.00000000000E+00  0.49020545190E+03  0.49020545190E+03  0.00000000000E+00 0. -1.
         -2   -1    0    0    0  501 -0.00000000000E+00 -0.00000000000E+00 -0.85619040574E+02  0.85619040574E+02  0.00000000000E+00 0.  1.
          5    1    1    2  502    0 -0.30652620681E+02  0.41807807030E+02 -0.92968522095E+01  0.52833509672E+02  0.41800000000E+01 0. -1.
         -5    1    1    2    0  502 -0.11465727533E+03 -0.53558429428E+02  0.90944375086E+02  0.15589466927E+03  0.41800000000E+01 0. -1.
        -11    1    1    2    0    0  0.35746952333E+02 -0.13581316530E+02  0.18356344095E+02  0.42417592203E+02  0.00000000000E+00 0.  1.
         11    1    1    2    0    0  0.10956294367E+03  0.25331938928E+02  0.30458254435E+03  0.32467872132E+03  0.00000000000E+00 0. -1.
</event>
<event>
 6    1  0.6981059E-006  0.1424182E+03  0.7561462E-02  0.1210112E+00
         -2   -1    0    0    0  501 -0.00000000000E+00  0.00000000000E+00  0.73816593076E+02  0.73816593076E+02  0.00000000000E+00 0. -1.
          2   -1    0    0  501    0  0.00000000000E+00 -0.00000000000E+00 -0.36123304612E+03  0.36123304612E+03  0.00000000000E+00 0.  1.
          5    1    1    2  502    0  0.31160320576E+02  0.70901750403E+02 -0.37194870753E+02  0.86017176186E+02  0.41800000000E+01 0. -1.
         -5    1    1    2    0  502  0.62959607020E+02 -0.48378145900E+02 -0.18264667819E+02  0.81580804160E+02  0.41800000000E+01 0. -1.
        -11    1    1    2    0    0 -0.88559548717E+02 -0.48658619157E+02 -0.20931364786E+03  0.23242774806E+03  0.00000000000E+00 0. -1.
         11    1    1    2    0    0 -0.55603788790E+01  0.26135014655E+02 -0.22643266615E+02  0.35023910793E+02  0.00000000000E+00 0.  1.
</event>
<event>
 6    1  0.6981059E-006  0.1547058E+03  0.7561462E-02  0.1194807E+00
          2   -1    0    0  501    0  0.00000000000E+00  0.00000000000E+00  0.10966385745E+04  0.10966385745E+04  0.00000000000E+00 0. -1.
         -2   -1    0    0    0  501 -0.00000000000E+00 -0.00000000000E+00 -0.22569103811E+02  0.22569103811E+02  0.00000000000E+00 0.  1.
          5    1    1    2  502    0  0.67378635185E+02 -0.50412007879E+02  0.29340257409E+03  0.30526020687E+03  0.41800000000E+01 0.  1.
         -5    1    1    2    0  502  0.40900472964E+02  0.69710495003E+02  0.36777761284E+03  0.37657701299E+03  0.41800000000E+01 0.  1.
        -11    1    1    2    0    0 -0.49670329108E+02  0.37787880418E+02  0.18432914971E+03  0.19460807006E+03  0.00000000000E+00 0.  1.
         11    1    1    2    0    0 -0.58608779041E+02 -0.57086367542E+02  0.22856013402E+03  0.24276238836E+03  0.00000000000E+00 0. -1.
</event>
<event>
 6    1  0.6981059E-006  0.1780783E+03  0.7561462E-02  0.1169676E+00
         -1   -1    0    0    0  501 -0.00000000000E+00  0.00000000000E+00  0.39708531851E+03  0.39708531851E+03  0.00000000000E+00 0.  1.
          1   -1    0    0  501    0  0.00000000000E+00 -0.00000000000E+00 -0.22135134610E+03  0.22135134610E+03  0.00000000000E+00 0. -1.
          5    1    1    2  502    0 -0.70837470258E+02  0.95189629922E+02 -0.12106800642E+03  0.16956988947E+03  0.41800000000E+01 0. -1.
         -5    1    1    2    0  502  0.45840373409E+02 -0.13524902941E+03  0.31490410035E+03  0.34579720156E+03  0.41800000000E+01 0.  1.
        -11    1    1    2    0    0  0.21353005352E+01 -0.25262951107E+02  0.11447509610E+02  0.27817650570E+02  0.00000000000E+00 0. -1.
         11    1    1    2    0    0  0.22861796314E+02  0.65322350594E+02 -0.29549631119E+02  0.75251923013E+02  0.00000000000E+00 0.  1.
</event>
<event>
 6    1  0.6981059E-006  0.2867090E+03  0.7561462E-02  0.1092080E+00
          2   -1    0    0  501    0  0.00000000000E+00  0.00000000000E+00  0.18907074674E+04  0.18907074674E+04  0.00000000000E+00 0. -1.
         -2   -1    0    0    0  501 -0.00000000000E+00 -0.00000000000E+00 -0.46824743224E+02  0.46824743224E+02  0.00000000000E+00 0.  1.
          5    1    1    2  502    0  0.90198897383E+02  0.14417206274E+03  0.64843941245E+03  0.67038240489E+03  0.41800000000E+01 0. -1.
         -5    1    1    2    0  502 -0.21662617481E+03 -0.11274551574E+03  0.54025486546E+03  0.59290070247E+03  0.41800000000E+01 0.  1.
        -11    1    1    2    0    0  0.11358606291E+03 -0.59471289438E+02  0.53847342469E+03  0.55352710598E+03  0.00000000000E+00 0.  1.
         11    1    1    2    0    0  0.12841214510E+02  0.28044742445E+02  0.11671502161E+03  0.12072199733E+03  0.00000000000E+00 0. -1.
</event>
<event>
 6    1  0.6981059E-006  0.1264018E+03  0.7561462E-02  0.1232895E+00
          1   -1    0    0  501    0  0.00000000000E+00  0.00000000000E+00  0.27290296054E+03  0.27290296054E+03  0.00000000000E+00 0. -1.
         -1   -1    0    0    0  501 -0.00000000000E+00 -0.00000000000E+00 -0.15070204902E+03  0.15070204902E+03  0.00000000000E+00 0.  1.
          5    1    1    2  502    0 -0.43717081367E+02 -0.79903586482E+02 -0.13598794548E+02  0.92185497499E+02  0.41800000000E+01 0. -1.
         -5    1    1    2    0  502  0.29571049167E+02  0.60892667880E+02 -0.72949915648E+02  0.99606859921E+02  0.41800000000E+01 0.  1.
        -11    1    1    2    0    0 -0.30641608457E+02  0.34751681243E+02  0.60850258934E+02  0.76480988032E+02  0.00000000000E+00 0.  1.
         11    1    1    2    0    0  0.44787640657E+02 -0.15740762640E+02  0.14789936278E+03  0.15533166411E+03  0.00000000000E+00 0. -1.
</event>
<event>
 6    1  0.6981059E-006  0.2075310E+03  0.7561462E-02  0.1143536E+00
         -1   -1    0    0    0  501 -0.00000000000E+00  0.00000000000E+00  0.73433892273E+02  0.73433892273E+02  0.00000000000E+00 0.  1.
          1   -1    0    0  501    0  0.00000000000E+00 -0.00000000000E+00 -0.92075467357E+03  0.92075467357E+03  0.00000000000E+00 0. -1.
          5    1    1    2  502    0  0.34788607249E+02 -0.11020722597E+03 -0.17872440896E+03  0.21287500230E+03  0.41800000000E+01 0. -1.
         -5    1    1    2    0  502  0.73569230127E+02 -0.58803646005E+02 -0.20711837822E+02  0.96523328947E+02  0.41800000000E+01 0. -1.
        -11    1    1    2    0    0 -0.91147244943E+01  0.46960493310E+02 -0.28916228142E+03  0.29309246175E+03  0.00000000000E+00 0. -1.
         11    1    1    2    0    0 -0.99243112881E+02  0.12205037866E+03 -0.35872225309E+03  0.39169777284E+03  0.00000000000E+00 0.  1.
</event>
<event>
 6    1  0.6981059E-006  0.1679356E+03  0.7561462E-02  0.1180018E+00
          1   -1    0    0  501    0  0.00000000000E+00  0.00000000000E+00  0.33201616360E+02  0.33201616360E+02  0.00000000000E+00 0. -1.
         -1   -1    0    0    0  501 -0.00000000000E+00 -0.00000000000E+00 -0.93807370845E+03  0.93807370845E+03  0.00000000000E+00 0.  1.
          5    1    1    2  502    0 -0.50045933296E+02 -0.34907579133E+02 -0.27120877739E+03  0.27801943791E+03  0.41800000000E+01 0.  1.
         -5    1    1    2    0  502  0.53648007100E+02 -0.10226664036E+03 -0.25420096607E+03  0.27923498697E+03  0.41800000000E+01 0.  1.
        -11    1    1    2    0    0  0.25161127073E+02  0.73989044915E+01 -0.11597051392E+03  0.11889905888E+03  0.00000000000E+00 0.  1.
         11    1    1    2    0    0 -0.28763200877E+02  0.12977531500E+03 -0.26349183471E+03  0.29512184105E+03  0.00000000000E+00 0. -1.
</event>
<event>
 6    1  0.6981059E-006  0.1836892E+03  0.7561462E-02  0.1164280E+00
          2   -1    0    0  501    0  0.00000000000E+00  0.00000000000E+00  0.50935984069E+03  0.50935984069E+03  0.00000000000E+00 0. -1.
         -2   -1    0    0    0  501 -0.00000000000E+00 -0.00000000000E+00 -0.69582842518E+02  0.69582842518E+02  0.00000000000E+00 0.  1.
          5    1    1    2  502    0 -0.22714281570E+02 -0.25242572142E+01  0.62532232781E+02  0.66708792511E+02  0.41800000000E+01 0. -1.
         -5    1    1    2    0  502  0.13712120355E+03 -0.10511542196E+03  0.21501409327E+03  0.27586230098E+03  0.41800000000E+01 0. -1.
        -11    1    1    2    0    0 -0.11188291034E+01  0.38673035709E+02  0.45137678429E+02  0.59449688674E+02  0.00000000000E+00 0.  1.
         11    1    1    2    0    0 -0.11328809287E+03  0.68966643465E+02  0.11709299369E+03  0.17692190105E+03  0.00000000000E+00 0. -1.
</event>
<event>
 6    1  0.6981059E-006  0.8741984E+02  0.7561462E-02  0.1309223E+00
          1   -1    0    0  501    0  0.00000000000E+00  0.00000000000E+00  0.20350875345E+03  0.20350875345E+03  0.00000000000E+00 0. -1.
         -1   -1    0    0    0  501 -0.00000000000E+00 -0.00000000000E+00 -0.79433817030E+02  0.79433817030E+02  0.00000000000E+00 0.  1.
          5    1    1    2  502    0 -0.67977559684E+01 -0.75612275026E+01 -0.43833893458E+02  0.45191418026E+02  0.41800000000E+01 0. -1.
         -5    1    1    2    0  502 -0.23015465919E+02  0.55041926417E+02  0.74040120946E+02  0.95177398814E+02  0.41800000000E+01 0. -1.
        -11    1    1    2    0    0  0.50901511168E+02  0.12766676059E+01  0.28533037675E+02  0.58367182203E+02  0.00000000000E+00 0.  1.
         11    1    1    2    0    0 -0.21088289281E+02 -0.48757366520E+02  0.65335671259E+02  0.84206571440E+02  0.00000000000E+00 0. -1.
</event>
<event>
 6    1  0.6981059E-006  0.9030241E+02  0.7561462E-02  0.1302121E+00
          1   -1    0    0  501    0  0.00000000000E+00  0.00000000000E+00  0.77463412000E+02  0.77463412000E+02  0.00000000000E+00 0. -1.
         -1   -1    0    0    0  501 -0.00000000000E+00 -0.00000000000E+00 -0.18600402917E+03  0.18600402917E+03  0.00000000000E+00 0.  1.
          5    1    1    2  502    0  0.38077768700E+01 -0.45166801132E+02 -0.14691927003E+02  0.47831623516E+02  0.41800000000E+01 0. -1.
         -5    1    1    2    0  502 -0.10430427502E+02  0.47060533634E+02 -0.11159819081E+03  0.12163517681E+03  0.41800000000E+01 0.  1.
        -11    1    1    2    0    0  0.73940511735E+01  0.42078394675E+02 -0.73690687990E+01  0.43353967133E+02  0.00000000000E+00 0.  1.
         11    1    1    2    0    0 -0.77140054155E+00 -0.43972127177E+02  0.25118569446E+02  0.50646673714E+02  0.00000000000E+00 0. -1.
</event>
<event>
 6    1  0.6981059E-006  0.9632770E+02  0.7561462E-02  0.1288213E+00
         -2   -1    0    0    0  501 -0.00000000000E+00  0.00000000000E+00  0.60362377127E+02  0.60362377127E+02  0.00000000000E+00 0.  1.
          2   -1    0    0  501    0  0.00000000000E+00 -0.00000000000E+00 -0.49838770806E+03  0.49838770806E+03  0.00000000000E+00 0. -1.
          5    1    1    2  502    0  0.15908108517E+02 -0.16908154212E+02 -0.58706359191E+02  0.63268180035E+02  0.41800000000E+01 0. -1.
         -5    1    1    2    0  502  0.57792758541E+02  0.52219852863E+02  0.18946184050E+02  0.80270456974E+02  0.41800000000E+01 0.  1.
        -11    1    1    2    0    0 -0.52839638058E+02 -0.43710507820E+02 -0.38028560480E+03  0.38641917274E+03  0.00000000000E+00 0. -1.
         11    1    1    2    0    0 -0.20861229000E+02  0.83988091694E+01 -0.17979550987E+02  0.28792275432E+02  0.00000000000E+00 0.  1.
</event>
<event>
 6    1  0.6981059E-006  0.2166131E+03  0.7561462E-02  0.1136434E+00
         -2   -1    0    0    0  501 -0.00000000000E+00  0.00000000000E+00  0.43608473292E+02  0.43608473292E+02  0.00000000000E+00 0.  1.
          2   -1    0    0  501    0  0.00000000000E+00 -0.00000000000E+00 -0.13681705551E+04  0.13681705551E+04  0.00000000000E+00 0. -1.
          5    1    1    2  502    0 -0.74466029213E+02  0.86535270843E+02 -0.46138691739E+03  0.47531978976E+03  0.41800000000E+01 0. -1.
         -5    1    1    2    0  502 -0.55348301352E+02  0.86430292678E+02 -0.12312963308E+03  0.16034964576E+03  0.41800000000E+01 0. -1.
        -11    1    1    2    0    0  0.10965225030E+03 -0.14702879641E+03 -0.70328576898E+03  0.72680943569E+03  0.00000000000E+00 0. -1.
         11    1    1    2    0    0  0.20162080263E+02 -0.25936767110E+02 -0.36759762419E+02  0.49300157219E+02  0.00000000000E+00 0.  1.
</event>
<event>
 6    1  0.6981059E-006  0.7808021E+02  0.7561462E-02  0.1334590E+00
          1   -1    0    0  501    0  0.00000000000E+00  0.00000000000E+00  0.19023647155E+03  0.19023647155E+03  0.00000000000E+00 0. -1.
         -1   -1    0    0    0  501 -0.00000000000E+00 -0.00000000000E+00 -0.86369027165E+02  0.86369027165E+02  0.00000000000E+00 0.  1.
          5    1    1    2  502    0 -0.20473732100E+02  0.15383143912E+02  0.87459377563E+02  0.91227353060E+02  0.41800000000E+01 0.  1.
         -5    1    1    2    0  502 -0.16386752713E+02  0.41596780222E+02 -0.38549165235E+02  0.59180472537E+02  0.41800000000E+01 0.  1.
        -11    1    1    2    0    0  0.29043975662E+02 -0.12888264342E+01  0.63003777132E+02  0.69387963861E+02  0.00000000000E+00 0. -1.
         11    1    1    2    0    0  0.78165091507E+01 -0.55691097700E+02 -0.80465450739E+01  0.56809709258E+02  0.00000000000E+00 0.  1.
</event>
<event>
 6    1  0.6981059E-006  0.1192977E+03  0.7561462E-02  0.1244260E+00
          1   -1    0    0  501    0  0.00000000000E+00  0.00000000000E+00  0.39018957256E+03  0.39018957256E+03  0.00000000000E+00 0. -1.
         -1   -1    0    0    0  501 -0.00000000000E+00 -0.00000000000E+00 -0.67803837968E+02  0.67803837968E+02  0.00000000000E+00 0.  1.
          5    1    1    2  502    0 -0.21116626451E+02 -0.41303554598E+02  0.62008894399E+01  0.46987434118E+02  0.41800000000E+01 0. -1.
         -5    1    1    2    0  502  0.30455792395E+01  0.88015568227E+02  0.11275472685E+02  0.88885457120E+02  0.41800000000E+01 0. -1.
        -11    1    1    2    0    0  0.43729716957E+02  0.70368485608E+01  0.12606968388E+03  0.13362398953E+03  0.00000000000E+00 0.  1.
         11    1    1    2    0    0 -0.25658669746E+02 -0.53748862189E+02  0.17883968859E+03  0.18849652977E+03  0.00000000000E+00 0. -1.
</event>
<event>
 6    1  0.6981059E-006  0.6207459E+02  0.7561462E-02  0.1389326E+00
         -4   -1    0    0    0  501 -0.00000000000E+00  0.00000000000E+00  0.77062334419E+02  0.77062334419E+02  0.00000000000E+00 0.  1.
          4   -1    0    0  501    0  0.00000000000E+00 -0.00000000000E+00 -0.22275761731E+03  0.22275761731E+03  0.00000000000E+00 0. -1.
          5    1    1    2  502    0 -0.52416983490E+01 -0.14042745782E+02 -0.58962009663E+02  0.60980858425E+02  0.41800000000E+01 0. -1.
         -5    1    1    2    0  502  0.26743329358E+02  0.17722351868E+02  0.57531076078E+02  0.66004428151E+02  0.41800000000E+01 0. -1.
        -11    1    1    2    0    0 -0.33342639063E+02 -0.31580741156E+02 -0.30568338739E+02  0.55167908469E+02  0.00000000000E+00 0.  1.
         11    1    1    2    0    0  0.11841008054E+02  0.27901135069E+02 -0.11369601057E+03  0.11766675669E+03  0.00000000000E+00 0. -1.
</event>
<event>
 6    1  0.6981059E-006  0.1206378E+03  0.7561462E-02  0.1242049E+00
         -2   -1    0    0    0  501 -0.00000000000E+00  0.00000000000E+00  0.34023812755E+02  0.34023812755E+02  0.00000000000E+00 0.  1.
          2   -1    0    0  501    0  0.00000000000E+00 -0.00000000000E+00 -0.51262583230E+03  0.51262583230E+03  0.00000000000E+00 0. -1.
          5    1    1    2  502    0  0.64364266400E+02  0.49149003649E+02 -0.95887570219E+02  0.12557978289E+03  0.41800000000E+01 0.  1.
         -5    1    1    2    0  502 -0.38574138851E+02  0.20546739283E+02 -0.19238128905E+03  0.19732755880E+03  0.41800000000E+01 0.  1.
        -11    1    1    2    0    0 -0.59121876797E+02 -0.50895652036E+02 -0.14279537020E+03  0.16271533875E+03  0.00000000000E+00 0.  1.
         11    1    1    2    0    0  0.33331749249E+02 -0.18800090896E+02 -0.47537790073E+02  0.61026964620E+02  0.00000000000E+00 0. -1.
</event>
<event>
 6    1  0.6981059E-006  0.1511457E+03  0.7561462E-02  0.1199072E+00
         -1   -1    0    0    0  501 -0.00000000000E+00  0.00000000000E+00  0.49158563141E+03  0.49158563141E+03  0.00000000000E+00 0.  1.
          1   -1    0    0  501    0  0.00000000000E+00 -0.00000000000E+00 -0.50792407382E+02  0.50792407382E+02  0.00000000000E+00 0. -1.
          5    1    1    2  502    0  0.22625134854E+02 -0.36615425911E+02  0.84060100667E+02  0.94531259729E+02  0.41800000000E+01 0.  1.
         -5    1    1    2    0  502 -0.12277475780E+03 -0.20046687067E+02  0.15501448853E+03  0.19880260277E+03  0.41800000000E+01 0.  1.
        -11    1    1    2    0    0  0.35094494962E+02 -0.14667093803E+02  0.10797503322E+03  0.11447862253E+03  0.00000000000E+00 0.  1.
         11    1    1    2    0    0  0.65055127980E+02  0.71329206782E+02  0.93743601612E+02  0.13456555376E+03  0.00000000000E+00 0. -1.
</event>
<event>
 6    1  0.6981059E-006  0.1093464E+03  0.7561462E-02  0.1261785E+00
         -2   -1    0    0    0  501 -0.00000000000E+00  0.00000000000E+00  0.31928248588E+02  0.31928248588E+02  0.00000000000E+00 0.  1.
          2   -1    0    0  501    0  0.00000000000E+00 -0.00000000000E+00 -0.52326358773E+03  0.52326358773E+03  0.00000000000E+00 0. -1.
          5    1    1    2  502    0  0.61926694224E+02  0.53209143711E+01 -0.25557266572E+03  0.26305529353E+03  0.41800000000E+01 0.  1.
         -5    1    1    2    0  502 -0.70573308974E+01 -0.48670524308E+02 -0.33714010783E+02  0.59772341253E+02  0.41800000000E+01 0.  1.
        -11    1    1    2    0    0 -0.12758363017E+02  0.60308363797E+02 -0.72899013839E+02  0.95468009246E+02  0.00000000000E+00 0.  1.
         11    1    1    2    0    0 -0.42111000310E+02 -0.16958753860E+02 -0.12914964880E+03  0.13689619229E+03  0.00000000000E+00 0. -1.
</event>
<event>
 6    1  0.6981059E-006  0.9060833E+02  0.7561462E-02  0.1301385E+00
         -1   -1    0    0    0  501 -0.00000000000E+00  0.00000000000E+00  0.91982371370E+02  0.91982371370E+02  0.00000000000E+00 0.  1.
          1   -1    0    0  501    0  0.00000000000E+00 -0.00000000000E+00 -0.16082511890E+03  0.16082511890E+03  0.00000000000E+00 0. -1.
          5    1    1    2  502    0  0.38631307076E+02  0.85253212593E+01  0.41586170003E+02  0.57549465023E+02  0.41800000000E+01 0.  1.
         -5    1    1    2    0  502 -0.44166680974E+02  0.40585675814E+02 -0.48280283699E+02  0.77112586415E+02  0.41800000000E+01 0.  1.
        -11    1    1    2    0    0 -0.23819768875E+02 -0.45983151379E+02 -0.70490178232E+02  0.87468261828E+02  0.00000000000E+00 0. -1.
         11    1    1    2    0    0  0.29355142773E+02 -0.31278456939E+01  0.83415443989E+01  0.30677177003E+02  0.00000000000E+00 0.  1.
</event>
<event>
 6    1  0.6981059E-006  0.1037799E+03  0.7561462E-02  0.1272542E+00
          2   -1    0    0  501    0  0.00000000000E+00  0.00000000000E+00  0.19622354796E+03  0.19622354796E+03  0.00000000000E+00 0. -1.
         -2   -1    0    0    0  501 -0.00000000000E+00 -0.00000000000E+00 -0.67483913226E+02  0.67483913226E+02  0.00000000000E+00 0.  1.
          5    1    1    2  502    0 -0.46910023444E+02  0.40324627335E+02  0.43742906734E+02  0.75878456486E+02  0.41800000000E+01 0. -1.
         -5    1    1    2    0  502  0.33257608650E+02 -0.40426971722E+02 -0.11512051213E+02  0.53762517602E+02  0.41800000000E+01 0.  1.
        -11    1    1    2    0    0 -0.20152207301E+02  0.37536919017E+02  0.45393078261E+02  0.62254825535E+02  0.00000000000E+00 0.  1.
         11    1    1    2    0    0  0.33804622095E+02 -0.37434574630E+02  0.51115700958E+02  0.71811661568E+02  0.00000000000E+00 0. -1.
</event>
<event>
 6    1  0.6981059E-006  0.8877263E+02  0.7561462E-02  0.1305851E+00
          4   -1    0    0  501    0  0.00000000000E+00  0.00000000000E+00  0.47846451991E+02  0.47846451991E+02  0.00000000000E+00 0. -1.
         -4   -1    0    0    0  501 -0.00000000000E+00 -0.00000000000E+00 -0.28356214184E+03  0.28356214184E+03  0.00000000000E+00 0.  1.
          5    1    1    2  502    0  0.14312010897E+02  0.66009038178E+02 -0.14984917909E+03  0.16442103165E+03  0.41800000000E+01 0. -1.
         -5    1    1    2    0  502 -0.29003863695E+02 -0.36212475496E+02 -0.24251092585E+02  0.52518143364E+02  0.41800000000E+01 0. -1.
        -11    1    1    2    0    0  0.17625170546E+02 -0.44726629770E+02 -0.78305248384E+02  0.91884873466E+02  0.00000000000E+00 0.  1.
         11    1    1    2    0    0 -0.29333177477E+01  0.14930067088E+02  0.16689830207E+02  0.22584545348E+02  0.00000000000E+00 0. -1.
</event>
<event>
 6    1  0.6981059E-006  0.2898558E+03  0.7561462E-02  0.1090424E+00
          3   -1    0    0  501    0  0.00000000000E+00  0.00000000000E+00  0.23136383769E+03  0.23136383769E+03  0.00000000000E+00 0. -1.
         -3   -1    0    0    0  501 -0.00000000000E+00 -0.00000000000E+00 -0.40021410918E+03  0.40021410918E+03  0.00000000000E+00 0.  1.
          5    1    1    2  502    0 -0.35737925308E+02 -0.12031323058E+02 -0.95160595238E+01  0.39114956586E+02  0.41800000000E+01 0. -1.
         -5    1    1    2    0  502  0.16402987009E+02 -0.26424272413E+03 -0.14228705662E+03  0.30059333678E+03  0.41800000000E+01 0. -1.
        -11    1    1    2    0    0  0.15933654072E+02  0.19816934456E+03 -0.53100462581E+02  0.20577810764E+03  0.00000000000E+00 0.  1.
         11    1    1    2    0    0  0.34012842275E+01  0.78104702624E+02  0.36053307238E+02  0.86091545864E+02  0.00000000000E+00 0. -1.
</event>
<event>
 6    1  0.6981059E-006  0.6977596E+02  0.7561462E-02  0.1360857E+00
         -2   -1    0    0    0  501 -0.00000000000E+00  0.00000000000E+00  0.41623895352E+02  0.41623895352E+02  0.00000000000E+00 0.  1.
          2   -1    0    0  501    0  0.00000000000E+00 -0.00000000000E+00 -0.36011167637E+03  0.36011167637E+03  0.00000000000E+00 0. -1.
          5    1    1    2  502    0  0.46226101226E+02  0.42797409715E+02 -0.15455647219E+02  0.64998616476E+02  0.41800000000E+01 0. -1.
         -5    1    1    2    0  502 -0.10037208506E+02  0.26474765995E+01 -0.14993596548E+03  0.15035298744E+03  0.41800000000E+01 0. -1.
        -11    1    1    2    0    0 -0.11802861591E+02 -0.37907993757E+02 -0.98836107827E+01  0.40914658676E+02  0.00000000000E+00 0.  1.
         11    1    1    2    0    0 -0.24386031128E+02 -0.75368925577E+01 -0.14321255754E+03  0.14546930913E+03  0.00000000000E+00 0. -1.
</event>
<event>
 6    1  0.6981059E-006  0.1295974E+03  0.7561462E-02  0.1228054E+00
          1   -1    0    0  501    0  0.00000000000E+00  0.00000000000E+00  0.83514356163E+02  0.83514356163E+02  0.00000000000E+00 0. -1.
         -1   -1    0    0    0  501 -0.00000000000E+00 -0.00000000000E+00 -0.61741560157E+03  0.61741560157E+03  0.00000000000E+00 0.  1.
          5    1    1    2  502    0 -0.43791782151E+02 -0.46676836952E+02 -0.94477087161E+02  0.11419211746E+03  0.41800000000E+01 0. -1.
         -5    1    1    2    0  502 -0.57306325847E+02  0.17673843545E+02 -0.44348005052E+03  0.44753592855E+03  0.41800000000E+01 0.  1.
        -11    1    1    2    0    0  0.15165690065E+02  0.45039055951E+02 -0.14800932554E+02  0.49775318388E+02  0.00000000000E+00 0.  1.
         11    1    1    2    0    0  0.85932417934E+02 -0.16036062545E+02  0.18856824829E+02  0.89426593340E+02  0.00000000000E+00 0. -1.
</event>
<event>
 6    1  0.6981059E-006  0.8365940E+02  0.7561462E-02  0.1318976E+00
         -3   -1    0    0    0  501 -0.00000000000E+00  0.00000000000E+00  0.74616716803E+02  0.74616716803E+02  0.00000000000E+00 0.  1.
          3   -1    0    0  501    0  0.00000000000E+00 -0.00000000000E+00 -0.20275634620E+03  0.20275634620E+03  0.00000000000E+00 0. -1.
          5    1    1    2  502    0  0.62783151752E+02  0.30290297990E+02  0.15862354173E+02  0.71612240407E+02  0.41800000000E+01 0. -1.
         -5    1    1    2    0  502 -0.15504334530E+02 -0.89969497291E+00 -0.76421636499E+02  0.78095664191E+02  0.41800000000E+01 0. -1.
        -11    1    1    2    0    0 -0.22052584046E+02  0.17502790664E+02  0.13055847950E+02  0.31034163591E+02  0.00000000000E+00 0.  1.
         11    1    1    2    0    0 -0.25226233176E+02 -0.46893393681E+02 -0.80636195018E+02  0.96630994811E+02  0.00000000000E+00 0. -1.
</event>
<event>
 6    1  0.6981059E-006  0.3533609E+03  0.7561462E-02  0.1061244E+00
         -1   -1    0    0    0  501 -0.00000000000E+00  0.00000000000E+00  0.55774337300E+02  0.55774337300E+02  0.00000000000E+00 0.  1.
          1   -1    0    0  501    0  0.00000000000E+00 -0.00000000000E+00 -0.24413616398E+04  0.24413616398E+04  0.00000000000E+00 0. -1.
          5    1    1    2  502    0  0.92512183740E+02 -0.15675556818E+03 -0.59319988956E+03  0.62051139689E+03  0.41800000000E+01 0.  1.
         -5    1    1    2    0  502  0.16058575501E+03 -0.78766811715E+02 -0.38663518878E+03  0.42602375162E+03  0.41800000000E+01 0.  1.
        -11    1    1    2    0    0 -0.10994507529E+03  0.10434874911E+03 -0.43588432837E+03  0.46148860087E+03  0.00000000000E+00 0.  1.
         11    1    1    2    0    0 -0.14315286346E+03  0.13117363078E+03 -0.96986789575E+03  0.98911222767E+03  0.00000000000E+00 0. -1.
</event>
<event>
 6    1  0.6981059E-006  0.1121861E+03  0.7561462E-02  0.1256574E+00
         -1   -1    0    0    0  501 -0.00000000000E+00  0.00000000000E+00  0.85373548348E+02  0.85373548348E+02  0.00000000000E+00 0.  1.
          1   -1    0    0  501    0  0.00000000000E+00 -0.00000000000E+00 -0.16061459346E+03  0.16061459346E+03  0.00000000000E+00 0. -1.
          5    1    1    2  502    0 -0.45567244893E+02  0.63264552669E+02  0.63255617232E+01  0.78334300039E+02  0.41800000000E+01 0. -1.
         -5    1    1    2    0  502  0.42336303879E+02 -0.23568477705E+02 -0.23645633709E+02  0.54077945236E+02  0.41800000000E+01 0. -1.
        -11    1    1    2    0    0  0.46214442568E+02 -0.21822532169E+02 -0.31881375419E+02  0.60236365352E+02  0.00000000000E+00 0.  1.
         11    1    1    2    0    0 -0.42983501554E+02 -0.17873542795E+02 -0.26039597706E+02  0.53339531181E+02  0.00000000000E+00 0. -1.
</event>
<event>
 6    1  0.6981059E-006  0.2105286E+03  0.7561462E-02  0.1141148E+00
         -2   -1    0    0    0  501 -0.00000000000E+00  0.00000000000E+00  0.19392511035E+03  0.19392511035E+03  0.00000000000E+00 0.  1.
          2   -1    0    0  501    0  0.00000000000E+00 -0.00000000000E+00 -0.49795400275E+03  0.49795400275E+03  0.00000000000E+00 0. -1.
          5    1    1    2  502    0 -0.14956030078E+03  0.56775933574E+02  0.11229865735E+03  0.19550000267E+03  0.41800000000E+01 0.  1.
         -5    1    1    2    0  502 -0.43078146382E+02 -0.42105922388E+01 -0.31390202663E+02  0.53630896002E+02  0.41800000000E+01 0.  1.
        -11    1    1    2    0    0  0.10524932608E+03  0.16010481016E+02 -0.21158592534E+03  0.23685936744E+03  0.00000000000E+00 0.  1.
         11    1    1    2    0    0  0.87389121078E+02 -0.68575822351E+02 -0.17335142174E+03  0.20588884698E+03  0.00000000000E+00 0. -1.
</event>
<event>
 6    1  0.6981059E-006  0.1579577E+03  0.7561462E-02  0.1191022E+00
         -2   -1    0    0    0  501 -0.00000000000E+00  0.00000000000E+00  0.13607554508E+03  0.13607554508E+03  0.00000000000E+00 0. -1.
          2   -1    0    0  501    0  0.00000000000E+00 -0.00000000000E+00 -0.25724099258E+03  0.25724099258E+03  0.00000000000E+00 0.  1.
          5    1    1    2  502    0  0.22994078500E+02 -0.23804408800E+02 -0.56149567946E+02  0.65311744004E+02  0.41800000000E+01 0. -1.
         -5    1    1    2    0  502  0.12467498683E+03  0.28349157642E+02  0.26175419951E+02  0.13057623095E+03  0.41800000000E+01 0. -1.
        -11    1    1    2    0    0 -0.10219381614E+03  0.18171598549E+02 -0.13622049126E+02  0.10468688205E+03  0.00000000000E+00 0.  1.
         11    1    1    2    0    0 -0.45475249192E+02 -0.22716347391E+02 -0.77569250375E+02  0.92741680660E+02  0.00000000000E+00 0. -1.
</event>
<event>
 6    1  0.6981059E-006  0.1181692E+03  0.7561462E-02  0.1246148E+00
         -2   -1    0    0    0  501 -0.00000000000E+00  0.00000000000E+00  0.13924344513E+03  0.13924344513E+03  0.00000000000E+00 0.  1.
          2   -1    0    0  501    0  0.00000000000E+00 -0.00000000000E+00 -0.13671063057E+03  0.13671063057E+03  0.00000000000E+00 0. -1.
          5    1    1    2  502    0  0.61017645713E+02 -0.68968038152E+02 -0.36650709825E+02  0.99199245489E+02  0.41800000000E+01 0. -1.
         -5    1    1    2    0  502 -0.47933380982E+02  0.14944721386E+02  0.46662243585E+02  0.68671617762E+02  0.41800000000E+01 0.  1.
        -11    1    1    2    0    0  0.29112987834E+02  0.57797456250E+01  0.22577005276E+02  0.37291992268E+02  0.00000000000E+00 0.  1.
         11    1    1    2    0    0 -0.42197252565E+02  0.48243571141E+02 -0.30055724472E+02  0.70791220176E+02  0.00000000000E+00 0. -1.
</event>
<event>
 6    1  0.6981059E-006  0.1362679E+03  0.7561462E-02  0.1218441E+00
          3   -1    0    0  501    0  0.00000000000E+00  0.00000000000E+00  0.12852126489E+03  0.12852126489E+03  0.00000000000E+00 0. -1.
         -3   -1    0    0    0  501 -0.00000000000E+00 -0.00000000000E+00 -0.20251968430E+03  0.20251968430E+03  0.00000000000E+00 0.  1.
          5    1    1    2  502    0  0.60448084572E+02 -0.46978624290E+02 -0.10975576622E+02  0.77452551609E+02  0.41800000000E+01 0. -1.
         -5    1    1    2    0  502 -0.51818667759E+02 -0.55532963963E+02 -0.85299515852E+02  0.11429157545E+03  0.41800000000E+01 0.  1.
        -11    1    1    2    0    0 -0.35002052078E+02  0.66633170930E+02 -0.20017801938E+02  0.77883473936E+02  0.00000000000E+00 0.  1.
         11    1    1    2    0    0  0.26372635266E+02  0.35878417323E+02  0.42294475001E+02  0.61413348192E+02  0.00000000000E+00 0. -1.
</event>
<event>
 6    1  0.6981059E-006  0.9031475E+02  0.7561462E-02  0.1302091E+00
          1   -1    0    0  501    0  0.00000000000E+00  0.00000000000E+00  0.15145268661E+03  0.15145268661E+03  0.00000000000E+00 0. -1.
         -1   -1    0    0    0  501 -0.00000000000E+00 -0.00000000000E+00 -0.11458449544E+03  0.11458449544E+03  0.00000000000E+00 0.  1.
          5    1    1    2  502    0  0.67335546209E+01  0.91026936865E+01  0.44440354765E+02  0.46050160932E+02  0.41800000000E+01 0.  1.
         -5    1    1    2    0  502 -0.60294379863E+02  0.12786494660E+02 -0.71345636146E+02  0.94374672905E+02  0.41800000000E+01 0.  1.
        -11    1    1    2    0    0 -0.63475622750E+01  0.28069023507E+02  0.26656040622E+02  0.39226344835E+02  0.00000000000E+00 0. -1.
         11    1    1    2    0    0  0.59908387517E+02 -0.49958211854E+02  0.37117431929E+02  0.86386003377E+02  0.00000000000E+00 0.  1.
</event>
<event>
 6    1  0.6981059E-006  0.1459971E+03  0.7561462E-02  0.1205480E+00
          2   -1    0    0  501    0  0.00000000000E+00  0.00000000000E+00  0.67777829834E+03  0.67777829834E+03  0.00000000000E+00 0. -1.
         -2   -1    0    0    0  501 -0.00000000000E+00 -0.00000000000E+00 -0.43948024624E+02  0.43948024624E+02  0.00000000000E+00 0.  1.
          5    1    1    2  502    0 -0.96384664837E+01 -0.11365687782E+03  0.24115163842E+03  0.26680024555E+03  0.41800000000E+01 0. -1.
         -5    1    1    2    0  502  0.33510198272E+02 -0.11323391587E+02  0.31949401868E+01  0.35760769400E+02  0.41800000000E+01 0. -1.
        -11    1    1    2    0    0  0.16437249672E+02  0.80693737173E+02  0.13847199414E+03  0.16110914175E+03  0.00000000000E+00 0.  1.
         11    1    1    2    0    0 -0.40308981460E+02  0.44286532230E+02  0.25101170097E+03  0.25805616626E+03  0.00000000000E+00 0. -1.
</event>
<event>
 6    1  0.6981059E-006  0.1095056E+03  0.7561462E-02  0.1261488E+00
         -2   -1    0    0    0  501 -0.00000000000E+00  0.00000000000E+00  0.30859497980E+02  0.30859497980E+02  0.00000000000E+00 0.  1.
          2   -1    0    0  501    0  0.00000000000E+00 -0.00000000000E+00 -0.50707417569E+03  0.50707417569E+03  0.00000000000E+00 0. -1.
          5    1    1    2  502    0  0.71680317873E+02  0.66798232626E+02 -0.16856618645E+03  0.19501821316E+03  0.41800000000E+01 0.  1.
         -5    1    1    2    0  502 -0.26743837422E+02 -0.27021562565E+02 -0.38808296025E+02  0.54488108096E+02  0.41800000000E+01 0.  1.
        -11    1    1    2    0    0  0.38504325237E+01  0.11374206652E+02 -0.17419603493E+01  0.12133953743E+02  0.00000000000E+00 0.  1.
         11    1    1    2    0    0 -0.48786912974E+02 -0.51150876713E+02 -0.26709823489E+03  0.27629339867E+03  0.00000000000E+00 0. -1.
</event>
<event>
 6    1  0.6981059E-006  0.1066522E+03  0.7561462E-02  0.1266898E+00
         -1   -1    0    0    0  501 -0.00000000000E+00  0.00000000000E+00  0.21540070215E+03  0.21540070215E+03  0.00000000000E+00 0.  1.
          1   -1    0    0  501    0  0.00000000000E+00 -0.00000000000E+00 -0.55232682648E+02  0.55232682648E+02  0.00000000000E+00 0. -1.
          5    1    1    2  502    0  0.44109659416E+02 -0.41744119374E+02  0.41392278531E+02  0.73614038594E+02  0.41800000000E+01 0.  1.
         -5    1    1    2    0  502 -0.60610733817E+02  0.26134453520E+02  0.52350870609E+02  0.84349017589E+02  0.41800000000E+01 0.  1.
        -11    1    1    2    0    0 -0.33122500482E+02  0.15732167828E+02  0.46444723946E+02  0.59175277990E+02  0.00000000000E+00 0.  1.
         11    1    1    2    0    0  0.49623574883E+02 -0.12250197469E+00  0.19980146419E+02  0.53495050629E+02  0.00000000000E+00 0. -1.
</event>
<event>
 6    1  0.6981059E-006  0.1046776E+03  0.7561462E-02  0.1270756E+00
          1   -1    0    0  501    0  0.00000000000E+00  0.00000000000E+00  0.43604536979E+03  0.43604536979E+03  0.00000000000E+00 0. -1.
         -1   -1    0    0    0  501 -0.00000000000E+00 -0.00000000000E+00 -0.49662112588E+03  0.49662112588E+03  0.00000000000E+00 0.  1.
          5    1    1    2  502    0 -0.19844695542E+01 -0.17629849417E+02 -0.44123017407E+01  0.18753413463E+02  0.41800000000E+01 0. -1.
         -5    1    1    2    0  502  0.29890960043E+02  0.74964257309E+02 -0.47442895231E+03  0.48126231159E+03  0.41800000000E+01 0.  1.
        -11    1    1    2    0    0  0.29048938339E+02 -0.42468016615E+02  0.17872888141E+03  0.18598759718E+03  0.00000000000E+00 0.  1.
         11    1    1    2    0    0 -0.56955428828E+02 -0.14866391277E+02  0.23953661655E+03  0.24666317344E+03  0.00000000000E+00 0. -1.
</event>
<event>
 6    1  0.6981059E-006  0.1627749E+03  0.7561462E-02  0.1185599E+00
         -2   -1    0    0    0  501 -0.00000000000E+00  0.00000000000E+00  0.15025305137E+03  0.15025305137E+03  0.00000000000E+00 0.  1.
          2   -1    0    0  501    0  0.00000000000E+00 -0.00000000000E+00 -0.20316064490E+03  0.20316064490E+03  0.00000000000E+00 0. -1.
          5    1    1    2  502    0 -0.90117368546E+02 -0.91452596254E+02  0.23951422563E+02  0.13067463609E+03  0.41800000000E+01 0.  1.
         -5    1    1    2    0  502 -0.19732671312E+02  0.40776244841E+02  0.11397417202E+02  0.46898336637E+02  0.41800000000E+01 0.  1.
        -11    1    1    2    0    0  0.27008050242E+02 -0.26888269134E+02 -0.28462960210E+02  0.47566310544E+02  0.00000000000E+00 0.  1.
         11    1    1    2    0    0  0.82841989617E+02  0.77564620546E+02 -0.59793473086E+02  0.12827441299E+03  0.00000000000E+00 0. -1.
</event>
<event>
 6    1  0.6981059E-006  0.2295713E+03  0.7561462E-02  0.1126942E+00
         -2   -1    0    0    0  501 -0.00000000000E+00  0.00000000000E+00  0.14101604862E+03  0.14101604862E+03  0.00000000000E+00 0.  1.
          2   -1    0    0  501    0  0.00000000000E+00 -0.00000000000E+00 -0.42733081394E+03  0.42733081394E+03  0.00000000000E+00 0. -1.
          5    1    1    2  502    0 -0.61193391629E+01 -0.33855530299E+02  0.13227325531E+02  0.37095522429E+02  0.41800000000E+01 0. -1.
         -5    1    1    2    0  502 -0.19938023299E+03  0.36343702971E+01 -0.75238919638E+02  0.21317610885E+03  0.41800000000E+01 0. -1.
        -11    1    1    2    0    0  0.10094386439E+03  0.58560077787E+02 -0.10580217322E+03  0.15752157416E+03  0.00000000000E+00 0. -1.
         11    1    1    2    0    0  0.10455570777E+03 -0.28338917785E+02 -0.11850099800E+03  0.16055365712E+03  0.00000000000E+00 0.  1.
</event>
<event>
 6    1  0.6981059E-006  0.1220911E+03  0.7561462E-02  0.1239687E+00
         -2   -1    0    0    0  501 -0.00000000000E+00  0.00000000000E+00  0.69895440114E+02  0.69895440114E+02  0.00000000000E+00 0.  1.
          2   -1    0    0  501    0  0.00000000000E+00 -0.00000000000E+00 -0.26256705132E+03  0.26256705132E+03  0.00000000000E+00 0. -1.
          5    1    1    2  502    0  0.82868984071E+01  0.44270881579E+02  0.10269868239E+02  0.46384547369E+02  0.41800000000E+01 0. -1.
         -5    1    1    2    0  502 -0.80020901382E+02 -0.12606699141E+02 -0.90909642265E+02  0.12183722329E+03  0.41800000000E+01 0. -1.
        -11    1    1    2    0    0  0.20433743595E+02  0.30825793771E+02 -0.50722607704E+02  0.62773803224E+02  0.00000000000E+00 0. -1.
         11    1    1    2    0    0  0.51300259380E+02 -0.62489976208E+02 -0.61309229470E+02  0.10146691755E+03  0.00000000000E+00 0.  1.
</event>
<event>
 6    1  0.6981059E-006  0.1045473E+03  0.7561462E-02  0.1271014E+00
          1   -1    0    0  501    0  0.00000000000E+00  0.00000000000E+00  0.15147382872E+02  0.15147382872E+02  0.00000000000E+00 0. -1.
         -1   -1    0    0    0  501 -0.00000000000E+00 -0.00000000000E+00 -0.98227011882E+03  0.98227011882E+03  0.00000000000E+00 0.  1.
          5    1    1    2  502    0  0.64892969485E+02 -0.23876286550E+02 -0.23747256053E+03  0.24736989298E+03  0.41800000000E+01 0.  1.
         -5    1    1    2    0  502 -0.48075879205E+02 -0.17090270583E+02 -0.44069085128E+03  0.44365444471E+03  0.41800000000E+01 0.  1.
        -11    1    1    2    0    0  0.27904776398E+02  0.32975492011E+02 -0.66192987887E+02  0.79041579340E+02  0.00000000000E+00 0. -1.
         11    1    1    2    0    0 -0.44721866678E+02  0.79910651222E+01 -0.22276633625E+03  0.22735158466E+03  0.00000000000E+00 0.  1.
</event>
<event>
 6    1  0.6981059E-006  0.9762338E+02  0.7561462E-02  0.1285375E+00
          3   -1    0    0  501    0  0.00000000000E+00  0.00000000000E+00  0.10502278215E+03  0.10502278215E+03  0.00000000000E+00 0. -1.
         -3   -1    0    0    0  501 -0.00000000000E+00 -0.00000000000E+00 -0.15735924122E+03  0.15735924122E+03  0.00000000000E+00 0.  1.
          5    1    1    2  502    0 -0.26542541338E+02  0.78765545454E+02 -0.51221805321E+02  0.97722379175E+02  0.41800000000E+01 0. -1.
         -5    1    1    2    0  502  0.29422278516E+02 -0.37993099013E+02 -0.24385069856E+02  0.54048589968E+02  0.41800000000E+01 0. -1.
        -11    1    1    2    0    0 -0.27561841683E+01  0.11343272417E+02  0.50485258506E+02  0.51817252984E+02  0.00000000000E+00 0. -1.
         11    1    1    2    0    0 -0.12355300981E+00 -0.52115718858E+02 -0.27214842396E+02  0.58793801239E+02  0.00000000000E+00 0.  1.
</event>
<event>
 6    1  0.6981059E-006  0.1204084E+03  0.7561462E-02  0.1242425E+00
         -4   -1    0    0    0  501 -0.00000000000E+00  0.00000000000E+00  0.23514504504E+03  0.23514504504E+03  0.00000000000E+00 0. -1.
          4   -1    0    0  501    0  0.00000000000E+00 -0.00000000000E+00 -0.94524400150E+02  0.94524400150E+02  0.00000000000E+00 0.  1.
          5    1    1    2  502    0 -0.39726120469E+02 -0.17067517505E+02 -0.17547017766E+02  0.46849066521E+02  0.41800000000E+01 0. -1.
         -5    1    1    2    0  502 -0.58744499115E+02  0.38132457428E+02  0.13487599366E+03  0.15203291273E+03  0.41800000000E+01 0. -1.
        -11    1    1    2    0    0  0.10765548174E+03 -0.32590048895E+02  0.26820077971E+02  0.11563360506E+03  0.00000000000E+00 0. -1.
         11    1    1    2    0    0 -0.91848621600E+01  0.11525108973E+02 -0.35284089773E+01  0.15153860883E+02  0.00000000000E+00 0.  1.
</event>
<event>
 6    1  0.6981059E-006  0.9289955E+02  0.7561462E-02  0.1295978E+00
         -2   -1    0    0    0  501 -0.00000000000E+00  0.00000000000E+00  0.62830440645E+02  0.62830440645E+02  0.00000000000E+00 0. -1.
          2   -1    0    0  501    0  0.00000000000E+00 -0.00000000000E+00 -0.22713984924E+03  0.22713984924E+03  0.00000000000E+00 0.  1.
          5    1    1    2  502    0 -0.60776194928E+02  0.18135742781E+02 -0.39135351921E+01  0.63682330311E+02  0.41800000000E+01 0. -1.
         -5    1    1    2    0  502  0.58630049323E+02 -0.16628245531E+02 -0.14491613395E+02  0.62781052013E+02  0.41800000000E+01 0. -1.
        -11    1    1    2    0    0 -0.19950032750E+02 -0.22917298632E+02 -0.26871403655E+02  0.40562035424E+02  0.00000000000E+00 0. -1.
         11    1    1    2    0    0  0.22096178355E+02  0.21409801382E+02 -0.11903285635E+03  0.12294487213E+03  0.00000000000E+00 0.  1.
</event>
<event>
 6    1  0.6981059E-006  0.1037129E+03  0.7561462E-02  0.1272676E+00
          1   -1    0    0  501    0  0.00000000000E+00  0.00000000000E+00  0.49120764554E+03  0.49120764554E+03  0.00000000000E+00 0. -1.
         -1   -1    0    0    0  501 -0.00000000000E+00 -0.00000000000E+00 -0.26864123949E+02  0.26864123949E+02  0.00000000000E+00 0.  1.
          5    1    1    2  502    0  0.36244237700E+02 -0.38927739401E+02  0.10411798317E+03  0.11699162568E+03  0.41800000000E+01 0.  1.
         -5    1    1    2    0  502 -0.67051583617E+02  0.34478042678E+02  0.15611680270E+03  0.17342023751E+03  0.41800000000E+01 0.  1.
        -11    1    1    2    0    0  0.38199189746E+02 -0.26661696373E+02  0.42958554683E+02  0.63367669763E+02  0.00000000000E+00 0.  1.
         11    1    1    2    0    0 -0.73918438296E+01  0.31111393096E+02  0.16115018104E+03  0.16429223653E+03  0.00000000000E+00 0. -1.
</event>
<event>
 6    1  0.6981059E-006  0.7221336E+02  0.7561462E-02  0.1352724E+00
          1   -1    0    0  501    0  0.00000000000E+00  0.00000000000E+00  0.34488970179E+02  0.34488970179E+02  0.00000000000E+00 0. -1.
         -1   -1    0    0    0  501 -0.00000000000E+00 -0.00000000000E+00 -0.47661119146E+03  0.47661119146E+03  0.00000000000E+00 0.  1.
          5    1    1    2  502    0 -0.15743164474E+02 -0.38173798223E+02 -0.25301279007E+03  0.25639428706E+03  0.41800000000E+01 0. -1.
         -5    1    1    2    0  502 -0.46972366842E+01  0.64381165629E+02 -0.11662366106E+03  0.13336247313E+03  0.41800000000E+01 0.  1.
        -11    1    1    2    0    0  0.49983489030E+01 -0.21527117133E+02 -0.92803079359E+02  0.95398175048E+02  0.00000000000E+00 0.  1.
         11    1    1    2    0    0  0.15442052255E+02 -0.46802502731E+01  0.20317309198E+02  0.25945226411E+02  0.00000000000E+00 0. -1.
</event>
<event>
 6    1  0.6981059E-006  0.1437346E+03  0.7561462E-02  0.1208390E+00
          1   -1    0    0  501    0  0.00000000000E+00  0.00000000000E+00  0.10092180350E+04  0.10092180350E+04  0.00000000000E+00 0. -1.
         -1   -1    0    0    0  501 -0.00000000000E+00 -0.00000000000E+00 -0.29717068913E+02  0.29717068913E+02  0.00000000000E+00 0.  1.
          5    1    1    2  502    0 -0.50535632068E+01  0.17094689006E+02  0.96745493577E+02  0.98462834718E+02  0.41800000000E+01 0. -1.
         -5    1    1    2    0  502  0.40085892112E+02 -0.12081901255E+03  0.16423469023E+03  0.20783315042E+03  0.41800000000E+01 0.  1.
        -11    1    1    2    0    0 -0.39695374794E+02  0.17701397852E+01  0.15926485477E+03  0.16414673356E+03  0.00000000000E+00 0.  1.
         11    1    1    2    0    0  0.46630458895E+01  0.10195418376E+03  0.55925592748E+03  0.56849238518E+03  0.00000000000E+00 0. -1.
</event>
<event>
 6    1  0.6981059E-006  0.1085841E+03  0.7561462E-02  0.1263215E+00
          2   -1    0    0  501    0  0.00000000000E+00  0.00000000000E+00  0.51691651665E+02  0.51691651665E+02  0.00000000000E+00 0. -1.
         -2   -1    0    0    0  501 -0.00000000000E+00 -0.00000000000E+00 -0.61004591624E+03  0.61004591624E+03  0.00000000000E+00 0.  1.
          5    1    1    2  502    0 -0.38404047739E+02 -0.69633908795E+02 -0.24248074936E+03  0.25522174348E+03  0.41800000000E+01 0. -1.
         -5    1    1    2    0  502  0.19121275936E+02  0.35646289470E+02 -0.30642812637E+03  0.30911478479E+03  0.41800000000E+01 0. -1.
        -11    1    1    2    0    0 -0.32097370773E+01 -0.29418279727E+02 -0.46162635932E+01  0.29950750971E+02  0.00000000000E+00 0.  1.
         11    1    1    2    0    0  0.22492508880E+02  0.63405899052E+02 -0.48291252602E+01  0.67450288665E+02  0.00000000000E+00 0. -1.
</event>
<event>
 6    1  0.6981059E-006  0.7247225E+02  0.7561462E-02  0.1351882E+00
         -2   -1    0    0    0  501 -0.00000000000E+00  0.00000000000E+00  0.96082890808E+02  0.96082890808E+02  0.00000000000E+00 0. -1.
          2   -1    0    0  501    0  0.00000000000E+00 -0.00000000000E+00 -0.15431742056E+03  0.15431742056E+03  0.00000000000E+00 0.  1.
          5    1    1    2  502    0 -0.25289245201E+02 -0.48355484628E+02 -0.66131540523E+02  0.85840851978E+02  0.41800000000E+01 0. -1.
         -5    1    1    2    0  502 -0.84652728535E+01  0.87923674799E+01  0.49034016704E+02  0.50702798390E+02  0.41800000000E+01 0. -1.
        -11    1    1    2    0    0 -0.15243096163E+02  0.18527388504E+02 -0.53925863653E+02  0.59022155807E+02  0.00000000000E+00 0.  1.
         11    1    1    2    0    0  0.48997614217E+02  0.21035728645E+02  0.12788857715E+02  0.54834505198E+02  0.00000000000E+00 0. -1.
</event>
<event>
 6    1  0.6981059E-006  0.1127875E+03  0.7561462E-02  0.1255493E+00
          2   -1    0    0  501    0  0.00000000000E+00  0.00000000000E+00  0.13427821154E+03  0.13427821154E+03  0.00000000000E+00 0. -1.
         -2   -1    0    0    0  501 -0.00000000000E+00 -0.00000000000E+00 -0.13991832756E+03  0.13991832756E+03  0.00000000000E+00 0.  1.
          5    1    1    2  502    0  0.83687207252E+02 -0.55551298681E+02  0.12144017024E+02  0.10126423353E+03  0.41800000000E+01 0.  1.
         -5    1    1    2    0  502 -0.14050064706E+02  0.11899692793E+02 -0.49531746758E+02  0.53008238451E+02  0.41800000000E+01 0.  1.
        -11    1    1    2    0    0  0.91449065177E+01  0.22949102238E+02 -0.11998457257E+02  0.27463677564E+02  0.00000000000E+00 0.  1.
         11    1    1    2    0    0 -0.78782049063E+02  0.20702503649E+02  0.43746070974E+02  0.92460389560E+02  0.00000000000E+00 0. -1.
</event>
<event>
 6    1  0.6981059E-006  0.1792205E+03  0.7561462E-02  0.1168560E+00
          2   -1    0    0  501    0  0.00000000000E+00  0.00000000000E+00  0.65277119168E+03  0.65277119168E+03  0.00000000000E+00 0.  1.
         -2   -1    0    0    0  501 -0.00000000000E+00 -0.00000000000E+00 -0.51529852495E+02  0.51529852495E+02  0.00000000000E+00 0. -1.
          5    1    1    2  502    0  0.13425662950E+03 -0.55184815618E+02  0.20552966257E+03  0.25165476557E+03  0.41800000000E+01 0.  1.
         -5    1    1    2    0  502  0.12621250188E+02  0.38150151826E+02  0.12581725499E+03  0.13214455756E+03  0.41800000000E+01 0.  1.
        -11    1    1    2    0    0 -0.64919932591E+02 -0.36936389746E+02  0.11956376538E+03  0.14097655311E+03  0.00000000000E+00 0.  1.
         11    1    1    2    0    0 -0.81957947097E+02  0.53971053537E+02  0.15033065624E+03  0.17952516793E+03  0.00000000000E+00 0. -1.
</event>
<event>
 6    1  0.6981059E-006  0.1927194E+03  0.7561462E-02  0.1156031E+00
          2   -1    0    0  501    0  0.00000000000E+00  0.00000000000E+00  0.10452907510E+04  0.10452907510E+04  0.00000000000E+00 0. -1.
         -2   -1    0    0    0  501 -0.00000000000E+00 -0.00000000000E+00 -0.47711752942E+02  0.47711752942E+02  0.00000000000E+00 0.  1.
          5    1    1    2  502    0  0.14143066318E+00 -0.99918418180E+02  0.69474095388E+02  0.12176958826E+03  0.41800000000E+01 0. -1.
         -5    1    1    2    0  502 -0.89275138248E+01 -0.82015250839E+02  0.27797696916E+03  0.28999115445E+03  0.41800000000E+01 0. -1.
        -11    1    1    2    0    0 -0.40001719310E+02  0.96174336705E+02  0.36205965234E+03  0.37674504966E+03  0.00000000000E+00 0.  1.
         11    1    1    2    0    0  0.48787802472E+02  0.85759332315E+02  0.28806828118E+03  0.30449671159E+03  0.00000000000E+00 0. -1.
</event>
<event>
 6    1  0.6981059E-006  0.1400200E+03  0.7561462E-02  0.1213302E+00
          1   -1    0    0  501    0  0.00000000000E+00  0.00000000000E+00  0.78163783891E+03  0.78163783891E+03  0.00000000000E+00 0. -1.
         -1   -1    0    0    0  501 -0.00000000000E+00 -0.00000000000E+00 -0.35528590978E+02  0.35528590978E+02  0.00000000000E+00 0.  1.
          5    1    1    2  502    0 -0.64233875231E+02  0.61595718412E+02  0.29715768308E+03  0.31022602126E+03  0.41800000000E+01 0.  1.
         -5    1    1    2    0  502 -0.50245099553E+02 -0.14817804117E+02  0.28205999993E+02  0.59642167831E+02  0.41800000000E+01 0.  1.
        -11    1    1    2    0    0  0.16087315891E+00 -0.21265449175E+02  0.17985034732E+02  0.27851511326E+02  0.00000000000E+00 0.  1.
         11    1    1    2    0    0  0.11431810163E+03 -0.25512465120E+02  0.40276053012E+03  0.41944672946E+03  0.00000000000E+00 0. -1.
</event>
<event>
 6    1  0.6981059E-006  0.9182340E+02  0.7561462E-02  0.1298495E+00
         -2   -1    0    0    0  501 -0.00000000000E+00  0.00000000000E+00  0.10008708162E+03  0.10008708162E+03  0.00000000000E+00 0.  1.
          2   -1    0    0  501    0  0.00000000000E+00 -0.00000000000E+00 -0.19263180951E+03  0.19263180951E+03  0.00000000000E+00 0. -1.
          5    1    1    2  502    0 -0.56527700267E+01  0.39908486849E+02  0.62681825245E+02  0.74639967494E+02  0.41800000000E+01 0.  1.
         -5    1    1    2    0  502  0.31130910432E+02 -0.40126649128E+02 -0.27320655222E+02  0.57820170843E+02  0.41800000000E+01 0.  1.
        -11    1    1    2    0    0  0.70925238287E+01  0.40072263211E+02 -0.33403003515E+02  0.52648369556E+02  0.00000000000E+00 0.  1.
         11    1    1    2    0    0 -0.32570664234E+02 -0.39854100932E+02 -0.94502894399E+02  0.10761038323E+03  0.00000000000E+00 0. -1.
</event>
<event>
 6    1  0.6981059E-006  0.1163701E+03  0.7561462E-02  0.1249208E+00
          1   -1    0    0  501    0  0.00000000000E+00  0.00000000000E+00  0.34498734347E+02  0.34498734347E+02  0.00000000000E+00 0. -1.
         -1   -1    0    0    0  501 -0.00000000000E+00 -0.00000000000E+00 -0.43881724804E+03  0.43881724804E+03  0.00000000000E+00 0.  1.
          5    1    1    2  502    0  0.32543742596E+02  0.80061954351E+02 -0.17101335784E+03  0.19165607915E+03  0.41800000000E+01 0. -1.
         -5    1    1    2    0  502  0.45038525102E+00 -0.45920412971E+02 -0.12337086228E+03  0.13170698248E+03  0.41800000000E+01 0. -1.
        -11    1    1    2    0    0  0.37741347238E+01  0.27808578694E+02 -0.18776131315E+02  0.33765429792E+02  0.00000000000E+00 0. -1.
         11    1    1    2    0    0 -0.36768262571E+02 -0.61950120074E+02 -0.91158162261E+02  0.11618749096E+03  0.00000000000E+00 0.  1.
</event>
<event>
 6    1  0.6981059E-006  0.2417105E+03  0.7561462E-02  0.1118659E+00
          2   -1    0    0  501    0  0.00000000000E+00  0.00000000000E+00  0.10110291628E+04  0.10110291628E+04  0.00000000000E+00 0. -1.
         -2   -1    0    0    0  501 -0.00000000000E+00 -0.00000000000E+00 -0.11791496769E+03  0.11791496769E+03  0.00000000000E+00 0.  1.
          5    1    1    2  502    0 -0.75023384712E+02 -0.42517109580E+02  0.94762127949E+02  0.12819339357E+03  0.41800000000E+01 0. -1.
         -5    1    1    2    0  502 -0.15331707897E+03  0.16996540529E+02 -0.11534482390E+02  0.15474341918E+03  0.41800000000E+01 0.  1.
        -11    1    1    2    0    0  0.22800022616E+03  0.37263675626E+02  0.74272075507E+03  0.77782183350E+03  0.00000000000E+00 0. -1.
         11    1    1    2    0    0  0.34023752390E+00 -0.11743106575E+02  0.67165794447E+02  0.68185484213E+02  0.00000000000E+00 0.  1.
</event>
<event>
 6    1  0.6981059E-006  0.1079004E+03  0.7561462E-02  0.1264508E+00
         -1   -1    0    0    0  501 -0.00000000000E+00  0.00000000000E+00  0.31786781496E+02  0.31786781496E+02  0.00000000000E+00 0.  1.
          1   -1    0    0  501    0  0.00000000000E+00 -0.00000000000E+00 -0.41499661703E+03  0.41499661703E+03  0.00000000000E+00 0. -1.
          5    1    1    2  502    0  0.57303297682E+02 -0.45617501361E+02 -0.20052009722E+03  0.21351910019E+03  0.41800000000E+01 0. -1.
         -5    1    1    2    0  502 -0.20584467193E+02  0.38917367531E+02 -0.37648104583E+02  0.58078687691E+02  0.41800000000E+01 0. -1.
        -11    1    1    2    0    0 -0.12558965527E+02  0.48409895968E+02 -0.71514835398E+02  0.87267504404E+02  0.00000000000E+00 0. -1.
         11    1    1    2    0    0 -0.24159864962E+02 -0.41709762139E+02 -0.73526798334E+02  0.87918106246E+02  0.00000000000E+00 0.  1.
</event>
<event>
 6    1  0.6981059E-006  0.1130614E+03  0.7561462E-02  0.1255003E+00
         -2   -1    0    0    0  501 -0.00000000000E+00  0.00000000000E+00  0.62874192425E+02  0.62874192425E+02  0.00000000000E+00 0. -1.
          2   -1    0    0  501    0  0.00000000000E+00 -0.00000000000E+00 -0.32134990161E+03  0.32134990161E+03  0.00000000000E+00 0.  1.
          5    1    1    2  502    0  0.71109319538E+02 -0.93644692267E+01 -0.77526751478E+02  0.10569814664E+03  0.41800000000E+01 0.  1.
         -5    1    1    2    0  502 -0.22496410690E+02 -0.40195734763E+02  0.17491670915E+02  0.49449130817E+02  0.41800000000E+01 0.  1.
        -11    1    1    2    0    0 -0.68261159747E+02  0.54973758075E+02 -0.18486395060E+03  0.20458831892E+03  0.00000000000E+00 0. -1.
         11    1    1    2    0    0  0.19648250899E+02 -0.54135540844E+01 -0.13576678019E+02  0.24488497652E+02  0.00000000000E+00 0.  1.
</event>
<event>
 6    1  0.6981059E-006  0.1502674E+03  0.7561462E-02  0.1200145E+00
         -1   -1    0    0    0  501 -0.00000000000E+00  0.00000000000E+00  0.83069335974E+03  0.83069335974E+03  0.00000000000E+00 0.  1.
          1   -1    0    0  501    0  0.00000000000E+00 -0.00000000000E+00 -0.33393046986E+02  0.33393046986E+02  0.00000000000E+00 0. -1.
          5    1    1    2  502    0  0.37310322909E+02  0.45977368285E+02  0.11197846299E+03  0.12673842024E+03  0.41800000000E+01 0.  1.
         -5    1    1    2    0  502 -0.98217458184E+02  0.60742614001E+02  0.30646140190E+03  0.32752465175E+03  0.41800000000E+01 0.  1.
        -11    1    1    2    0    0  0.38913721386E+02 -0.41970220697E+02  0.56990534141E+02  0.80769413265E+02  0.00000000000E+00 0. -1.
         11    1    1    2    0    0  0.21993413890E+02 -0.64749761589E+02  0.32186991372E+03  0.32905392148E+03  0.00000000000E+00 0.  1.
</event>
<event>
 6    1  0.6981059E-006  0.8332255E+02  0.7561462E-02  0.1319878E+00
          4   -1    0    0  501    0  0.00000000000E+00  0.00000000000E+00  0.33190478806E+02  0.33190478806E+02  0.00000000000E+00 0. -1.
         -4   -1    0    0    0  501 -0.00000000000E+00 -0.00000000000E+00 -0.38542236684E+03  0.38542236684E+03  0.00000000000E+00 0.  1.
          5    1    1    2  502    0 -0.41090921298E+02  0.30387774367E+02 -0.16444638371E+03  0.17225552577E+03  0.41800000000E+01 0. -1.
         -5    1    1    2    0  502  0.41633973915E+02 -0.42817827911E+02 -0.11329287825E+03  0.12813860790E+03  0.41800000000E+01 0.  1.
        -11    1    1    2    0    0 -0.11278394300E+02  0.31586701690E+02  0.66192670862E+01  0.34186789823E+02  0.00000000000E+00 0. -1.
         11    1    1    2    0    0  0.10735341683E+02 -0.19156648146E+02 -0.81111893155E+02  0.84031922151E+02  0.00000000000E+00 0.  1.
</event>
<event>
 6    1  0.6981059E-006  0.1149185E+03  0.7561462E-02  0.1251723E+00
          1   -1    0    0  501    0  0.00000000000E+00  0.00000000000E+00  0.13327930873E+03  0.13327930873E+03  0.00000000000E+00 0. -1.
         -1   -1    0    0    0  501 -0.00000000000E+00 -0.00000000000E+00 -0.15265248221E+03  0.15265248221E+03  0.00000000000E+00 0.  1.
          5    1    1    2  502    0 -0.44617578858E+02 -0.67223950970E+02 -0.32027278784E+01  0.80854918175E+02  0.41800000000E+01 0.  1.
         -5    1    1    2    0  502 -0.33627087076E+02  0.37445790760E+02 -0.70543841554E+02  0.86757559971E+02  0.41800000000E+01 0.  1.
        -11    1    1    2    0    0  0.79004381727E+02  0.11018997255E+02  0.25252208102E+02  0.83670691682E+02  0.00000000000E+00 0.  1.
         11    1    1    2    0    0 -0.75971579338E+00  0.18759162955E+02  0.29121187857E+02  0.34648621114E+02  0.00000000000E+00 0. -1.
</event>
<event>
 6    1  0.6981059E-006  0.1269016E+03  0.7561462E-02  0.1232127E+00
         -1   -1    0    0    0  501 -0.00000000000E+00  0.00000000000E+00  0.67933105005E+03  0.67933105005E+03  0.00000000000E+00 0.  1.
          1   -1    0    0  501    0  0.00000000000E+00 -0.00000000000E+00 -0.34853800986E+02  0.34853800986E+02  0.00000000000E+00 0. -1.
          5    1    1    2  502    0  0.30588837979E+02 -0.65095701037E+02  0.13974640547E+03  0.15722486300E+03  0.41800000000E+01 0. -1.
         -5    1    1    2    0  502  0.49979515793E+02  0.33842836368E+02  0.36300818025E+03  0.36801589762E+03  0.41800000000E+01 0. -1.
        -11    1    1    2    0    0 -0.97461376450E+02  0.16547406547E+02  0.94873168059E+02  0.13701625663E+03  0.00000000000E+00 0. -1.
         11    1    1    2    0    0  0.16893022677E+02  0.14705458122E+02  0.46849495277E+02  0.51927833784E+02  0.00000000000E+00 0.  1.
</event>
<event>
 6    1  0.6981059E-006  0.1209569E+03  0.7561462E-02  0.1241527E+00
         -2   -1    0    0    0  501 -0.00000000000E+00  0.00000000000E+00  0.14375223424E+02  0.14375223424E+02  0.00000000000E+00 0.  1.
          2   -1    0    0  501    0  0.00000000000E+00 -0.00000000000E+00 -0.13455687490E+04  0.13455687490E+04  0.00000000000E+00 0. -1.
          5    1    1    2  502    0 -0.21590543341E+02  0.80477433063E+01 -0.41756090957E+03  0.41821705290E+03  0.41800000000E+01 0. -1.
         -5    1    1    2    0  502 -0.33928232847E+02 -0.82535967130E+02 -0.26097537394E+03  0.27584221769E+03  0.41800000000E+01 0.  1.
        -11    1    1    2    0    0 -0.21658142520E+02  0.38122602607E+02 -0.16019091777E+03  0.16608292538E+03  0.00000000000E+00 0. -1.
         11    1    1    2    0    0  0.77176918708E+02  0.36365621217E+02 -0.49246632427E+03  0.49980177644E+03  0.00000000000E+00 0.  1.
</event>
<event>
 6    1  0.6981059E-006  0.1047221E+03  0.7561462E-02  0.1270668E+00
          3   -1    0    0  501    0  0.00000000000E+00  0.00000000000E+00  0.27908988807E+02  0.27908988807E+02  0.00000000000E+00 0. -1.
         -3   -1    0    0    0  501 -0.00000000000E+00 -0.00000000000E+00 -0.50674148999E+03  0.50674148999E+03  0.00000000000E+00 0.  1.
          5    1    1    2  502    0  0.54579077989E+01 -0.60905010490E+02 -0.86239460814E+02  0.10580135189E+03  0.41800000000E+01 0.  1.
         -5    1    1    2    0  502  0.40388359670E+02  0.44582218688E+02 -0.22943127203E+03  0.23722347018E+03  0.41800000000E+01 0.  1.
        -11    1    1    2    0    0 -0.54798063421E+02 -0.13731116953E+02 -0.54374676525E+02  0.78409035032E+02  0.00000000000E+00 0. -1.
         11    1    1    2    0    0  0.89517959523E+01  0.30053908755E+02 -0.10878709182E+03  0.11321662170E+03  0.00000000000E+00 0.  1.
</event>
<event>
 6    1  0.6981059E-006  0.1957492E+03  0.7561462E-02  0.1153376E+00
          2   -1    0    0  501    0  0.00000000000E+00  0.00000000000E+00  0.34781428568E+03  0.34781428568E+03  0.00000000000E+00 0. -1.
         -2   -1    0    0    0  501 -0.00000000000E+00 -0.00000000000E+00 -0.13317719769E+03  0.13317719769E+03  0.00000000000E+00 0.  1.
          5    1    1    2  502    0 -0.43909137866E+02 -0.17893507791E+03  0.48176543611E+02  0.19048418897E+03  0.41800000000E+01 0. -1.
         -5    1    1    2    0  502  0.13895959896E+02 -0.46231573332E+01  0.53521134775E+02  0.55645804449E+02  0.41800000000E+01 0. -1.
        -11    1    1    2    0    0  0.21790040899E+02  0.24825997423E+02 -0.93346745875E+01  0.34325969471E+02  0.00000000000E+00 0. -1.
         11    1    1    2    0    0  0.82231370709E+01  0.15873223782E+03  0.12227408419E+03  0.20053552047E+03  0.00000000000E+00 0.  1.
</event>
<event>
 6    1  0.6981059E-006  0.1743456E+03  0.7561462E-02  0.1173390E+00
          1   -1    0    0  501    0  0.00000000000E+00  0.00000000000E+00  0.12734794551E+04  0.12734794551E+04  0.00000000000E+00 0. -1.
         -1   -1    0    0    0  501 -0.00000000000E+00 -0.00000000000E+00 -0.24441528979E+02  0.24441528979E+02  0.00000000000E+00 0.  1.
          5    1    1    2  502    0 -0.62903631371E+02 -0.87150615323E+02  0.32559370680E+03  0.34290061373E+03  0.41800000000E+01 0.  1.
         -5    1    1    2    0  502 -0.65447811323E+02  0.41209488943E+02  0.23783182553E+03  0.25012614342E+03  0.41800000000E+01 0.  1.
        -11    1    1    2    0    0  0.31022184128E+02  0.57827326830E+02  0.26506780301E+03  0.27307016649E+03  0.00000000000E+00 0.  1.
         11    1    1    2    0    0  0.97329258566E+02 -0.11886200450E+02  0.42054459077E+03  0.43182406042E+03  0.00000000000E+00 0. -1.
</event>
<event>
 6    1  0.6981059E-006  0.8337120E+02  0.7561462E-02  0.1319748E+00
          2   -1    0    0  501    0  0.00000000000E+00  0.00000000000E+00  0.11569771899E+03  0.11569771899E+03  0.00000000000E+00 0. -1.
         -2   -1    0    0    0  501 -0.00000000000E+00 -0.00000000000E+00 -0.11605246176E+03  0.11605246176E+03  0.00000000000E+00 0.  1.
          5    1    1    2  502    0 -0.30757432739E+02 -0.39797627404E+02  0.13878101100E+02  0.52344483051E+02  0.41800000000E+01 0.  1.
         -5    1    1    2    0  502  0.61533998485E+02  0.30665928913E+02 -0.39222417229E+02  0.79263500925E+02  0.41800000000E+01 0.  1.
        -11    1    1    2    0    0 -0.26280000843E+02  0.21676303875E+02 -0.28872801994E+02  0.44655786735E+02  0.00000000000E+00 0.  1.
         11    1    1    2    0    0 -0.44965649028E+01 -0.12544605384E+02  0.53862375355E+02  0.55486410039E+02  0.00000000000E+00 0. -1.
</event>
<event>
 6    1  0.6981059E-006  0.1231730E+03  0.7561462E-02  0.1237952E+00
         -2   -1    0    0    0  501 -0.00000000000E+00  0.00000000000E+00  0.44579484131E+02  0.44579484131E+02  0.00000000000E+00 0.  1.
          2   -1    0    0  501    0  0.00000000000E+00 -0.00000000000E+00 -0.56156371138E+03  0.56156371138E+03  0.00000000000E+00 0. -1.
          5    1    1    2  502    0  0.10727787922E+02 -0.26204432321E+02 -0.19130370968E+03  0.19343303608E+03  0.41800000000E+01 0. -1.
         -5    1    1    2    0  502 -0.21318204860E+02 -0.90566890280E+02 -0.66016157132E+02  0.11415968148E+03  0.41800000000E+01 0.  1.
        -11    1    1    2    0    0 -0.15942058900E+02  0.31829758964E+02 -0.15782907931E+02  0.38940762453E+02  0.00000000000E+00 0.  1.
         11    1    1    2    0    0  0.26532475838E+02  0.84941563637E+02 -0.24388145250E+03  0.25960971550E+03  0.00000000000E+00 0. -1.
</event>
<event>
 6    1  0.6981059E-006  0.1557329E+03  0.7561462E-02  0.1193600E+00
          1   -1    0    0  501    0  0.00000000000E+00  0.00000000000E+00  0.68826934017E+02  0.68826934017E+02  0.00000000000E+00 0. -1.
         -1   -1    0    0    0  501 -0.00000000000E+00 -0.00000000000E+00 -0.49405975136E+03  0.49405975136E+03  0.00000000000E+00 0.  1.
          5    1    1    2  502    0 -0.16534437459E+02 -0.14760976377E+03 -0.27073323368E+03  0.30883002801E+03  0.41800000000E+01 0.  1.
         -5    1    1    2    0  502  0.15943831139E+02  0.16329215675E+01  0.66228901608E+01  0.17838364788E+02  0.41800000000E+01 0.  1.
        -11    1    1    2    0    0  0.44796283360E+01  0.37889560672E+02 -0.11030610314E+03  0.11671813171E+03  0.00000000000E+00 0.  1.
         11    1    1    2    0    0 -0.38890220156E+01  0.10808728153E+03 -0.50816370681E+02  0.11950016088E+03  0.00000000000E+00 0. -1.
</event>
<event>
 6    1  0.6981059E-006  0.1359688E+03  0.7561462E-02  0.1218858E+00
         -1   -1    0    0    0  501 -0.00000000000E+00  0.00000000000E+00  0.96899770913E+03  0.96899770913E+03  0.00000000000E+00 0.  1.
          1   -1    0    0  501    0  0.00000000000E+00 -0.00000000000E+00 -0.28482818896E+02  0.28482818896E+02  0.00000000000E+00 0. -1.
          5    1    1    2  502    0  0.21038838162E+02  0.84284532617E+02  0.18480220622E+03  0.20424456657E+03  0.41800000000E+01 0. -1.
         -5    1    1    2    0  502  0.64373010508E+02 -0.33762042434E+01  0.40245464632E+03  0.40760581201E+03  0.41800000000E+01 0. -1.
        -11    1    1    2    0    0 -0.16206627681E+02 -0.31213773647E+02  0.17600698051E+02  0.39328603051E+02  0.00000000000E+00 0. -1.
         11    1    1    2    0    0 -0.69205220989E+02 -0.49694554726E+02  0.33565733964E+03  0.34630154639E+03  0.00000000000E+00 0.  1.
</event>
<event>
 6    1  0.6981059E-006  0.2281825E+03  0.7561462E-02  0.1127926E+00
         -2   -1    0    0    0  501 -0.00000000000E+00  0.00000000000E+00  0.53027809150E+02  0.53027809150E+02  0.00000000000E+00 0.  1.
          2   -1    0    0  501    0  0.00000000000E+00 -0.00000000000E+00 -0.10351446321E+04  0.10351446321E+04  0.00000000000E+00 0. -1.
          5    1    1    2  502    0  0.19527070216E+03  0.10528180787E+03 -0.40886754204E+03  0.46519355705E+03  0.41800000000E+01 0. -1.
         -5    1    1    2    0  502 -0.11720992854E+02 -0.13107891275E+02 -0.24749341350E+02  0.30646382893E+02  0.41800000000E+01 0. -1.
        -11    1    1    2    0    0 -0.92710814322E+02 -0.84164847443E+02 -0.24089081188E+03  0.27149106778E+03  0.00000000000E+00 0. -1.
         11    1    1    2    0    0 -0.90838894985E+02 -0.80090691509E+01 -0.30760912768E+03  0.32084143352E+03  0.00000000000E+00 0.  1.
</event>
<event>
 6    1  0.6981059E-006  0.1221923E+03  0.7561462E-02  0.1239524E+00
         -2   -1    0    0    0  501 -0.00000000000E+00  0.00000000000E+00  0.29269645585E+03  0.29269645585E+03  0.00000000000E+00 0.  1.
          2   -1    0    0  501    0  0.00000000000E+00 -0.00000000000E+00 -0.18190712414E+03  0.18190712414E+03  0.00000000000E+00 0. -1.
          5    1    1    2  502    0 -0.58130044659E+02 -0.66618061020E+02  0.22655476596E+03  0.24323158209E+03  0.41800000000E+01 0. -1.
         -5    1    1    2    0  502 -0.36072397405E+02  0.23760401776E+02  0.11466022568E+02  0.44885594801E+02  0.41800000000E+01 0. -1.
        -11    1    1    2    0    0  0.56076540035E+02  0.13186893831E+01 -0.11620574148E+03  0.12903523409E+03  0.00000000000E+00 0. -1.
         11    1    1    2    0    0  0.38125902029E+02  0.41538969861E+02 -0.11025715332E+02  0.57451169015E+02  0.00000000000E+00 0.  1.
</event>
<event>
 6    1  0.6981059E-006  0.2623916E+03  0.7561462E-02  0.1105715E+00
         -2   -1    0    0    0  501 -0.00000000000E+00  0.00000000000E+00  0.25385453948E+03  0.25385453948E+03  0.00000000000E+00 0.  1.
          2   -1    0    0  501    0  0.00000000000E+00 -0.00000000000E+00 -0.29644286988E+03  0.29644286988E+03  0.00000000000E+00 0. -1.
          5    1    1    2  502    0  0.17359721751E+03  0.18634209280E+03 -0.84991043999E+02  0.26851502647E+03  0.41800000000E+01 0.  1.
         -5    1    1    2    0  502 -0.45903407623E+01 -0.64151348658E+01  0.14530069356E+02  0.17053460034E+02  0.41800000000E+01 0.  1.
        -11    1    1    2    0    0 -0.11163855146E+03 -0.56682511295E+02  0.30087618580E+02  0.12876854449E+03  0.00000000000E+00 0.  1.
         11    1    1    2    0    0 -0.57368325293E+02 -0.12324444664E+03 -0.22149743290E+01  0.13596037837E+03  0.00000000000E+00 0. -1.
</event>
<event>
 6    1  0.6981059E-006  0.1373853E+03  0.7561462E-02  0.1216891E+00
          1   -1    0    0  501    0  0.00000000000E+00  0.00000000000E+00  0.23008417241E+02  0.23008417241E+02  0.00000000000E+00 0. -1.
         -1   -1    0    0    0  501 -0.00000000000E+00 -0.00000000000E+00 -0.12802668492E+04  0.12802668492E+04  0.00000000000E+00 0.  1.
          5    1    1    2  502    0  0.53078844427E+02 -0.56184910803E+02 -0.72965507384E+03  0.73374934896E+03  0.41800000000E+01 0.  1.
         -5    1    1    2    0  502  0.57068133673E+02  0.22861963137E+02 -0.14975611163E+03  0.16193766273E+03  0.41800000000E+01 0.  1.
        -11    1    1    2    0    0 -0.86749887941E+02  0.55925770707E+02 -0.34955504035E+03  0.36447491151E+03  0.00000000000E+00 0.  1.
         11    1    1    2    0    0 -0.23397090158E+02 -0.22602823041E+02 -0.28292206158E+02  0.43113343254E+02  0.00000000000E+00 0. -1.
</event>
<event>
 6    1  0.6981059E-006  0.1378754E+03  0.7561462E-02  0.1216217E+00
          2   -1    0    0  501    0  0.00000000000E+00  0.00000000000E+00  0.25185901827E+02  0.25185901827E+02  0.00000000000E+00 0. -1.
         -2   -1    0    0    0  501 -0.00000000000E+00 -0.00000000000E+00 -0.90761048459E+03  0.90761048459E+03  0.00000000000E+00 0.  1.
          5    1    1    2  502    0  0.24419682413E+02 -0.29578157116E+02 -0.18497742212E+03  0.18895848052E+03  0.41800000000E+01 0. -1.
         -5    1    1    2    0  502 -0.11253485741E+03  0.18934601830E+02 -0.44395297965E+03  0.45840411627E+03  0.41800000000E+01 0. -1.
        -11    1    1    2    0    0 -0.12665011926E+02  0.17906763474E+02 -0.15436701708E+02  0.26820635057E+02  0.00000000000E+00 0. -1.
         11    1    1    2    0    0  0.10078018692E+03 -0.72632081879E+01 -0.23805747929E+03  0.25861315457E+03  0.00000000000E+00 0.  1.
</event>
<event>
 6    1  0.6981059E-006  0.9374943E+02  0.7561462E-02  0.1294018E+00
          2   -1    0    0  501    0  0.00000000000E+00  0.00000000000E+00  0.13224561254E+03  0.13224561254E+03  0.00000000000E+00 0. -1.
         -2   -1    0    0    0  501 -0.00000000000E+00 -0.00000000000E+00 -0.10951566812E+03  0.10951566812E+03  0.00000000000E+00 0.  1.
          5    1    1    2  502    0 -0.53872175235E+02  0.17502304207E+02 -0.52683059081E+02  0.77469471608E+02  0.41800000000E+01 0. -1.
         -5    1    1    2    0  502  0.29664263047E+02  0.11285571395E+02  0.42887009333E+02  0.53517292470E+02  0.41800000000E+01 0. -1.
        -11    1    1    2    0    0 -0.19795503306E+02 -0.47050813049E+02 -0.33189287503E+01  0.51153262337E+02  0.00000000000E+00 0.  1.
         11    1    1    2    0    0  0.44003415493E+02  0.18262937446E+02  0.35844922910E+02  0.59621254245E+02  0.00000000000E+00 0. -1.
</event>
<event>
 6    1  0.6981059E-006  0.9855390E+02  0.7561462E-02  0.1283367E+00
          1   -1    0    0  501    0  0.00000000000E+00  0.00000000000E+00  0.60216951997E+02  0.60216951997E+02  0.00000000000E+00 0. -1.
         -1   -1    0    0    0  501 -0.00000000000E+00 -0.00000000000E+00 -0.23642432023E+03  0.23642432023E+03  0.00000000000E+00 0.  1.
          5    1    1    2  502    0 -0.20036442178E+02  0.56817069460E+02 -0.36495171785E+02  0.70562088694E+02  0.41800000000E+01 0. -1.
         -5    1    1    2    0  502  0.42481743791E+02 -0.39288146862E+02 -0.10850848910E+03  0.12304398257E+03  0.41800000000E+01 0. -1.
        -11    1    1    2    0    0  0.19637122568E+01 -0.43219583136E+02 -0.47309883721E+02  0.64109388002E+02  0.00000000000E+00 0.  1.
         11    1    1    2    0    0 -0.24409013870E+02  0.25690660538E+02  0.16106176378E+02  0.38925812959E+02  0.00000000000E+00 0. -1.
</event>
<event>
 6    1  0.6981059E-006  0.9674211E+02  0.7561462E-02  0.1287300E+00
         -2   -1    0    0    0  501 -0.00000000000E+00  0.00000000000E+00  0.59631566637E+03  0.59631566637E+03  0.00000000000E+00 0.  1.
          2   -1    0    0  501    0  0.00000000000E+00 -0.00000000000E+00 -0.31387053309E+02  0.31387053309E+02  0.00000000000E+00 0. -1.
          5    1    1    2  502    0 -0.33266922021E+02 -0.56971249904E+01  0.48158038974E+02  0.58956038298E+02  0.41800000000E+01 0.  1.
         -5    1    1    2    0  502  0.78862702820E+02  0.37185283316E+02  0.41019906340E+03  0.41938385186E+03  0.41800000000E+01 0.  1.
        -11    1    1    2    0    0 -0.43776101927E+02 -0.42506460631E+02  0.11833651096E+03  0.13314156421E+03  0.00000000000E+00 0.  1.
         11    1    1    2    0    0 -0.18196788730E+01  0.11018302305E+02 -0.11765000268E+02  0.16221265308E+02  0.00000000000E+00 0. -1.
</event>
<event>
 6    1  0.6981059E-006  0.1041226E+03  0.7561462E-02  0.1271858E+00
          1   -1    0    0  501    0  0.00000000000E+00  0.00000000000E+00  0.23034488802E+03  0.23034488802E+03  0.00000000000E+00 0. -1.
         -1   -1    0    0    0  501 -0.00000000000E+00 -0.00000000000E+00 -0.87173858797E+02  0.87173858797E+02  0.00000000000E+00 0.  1.
          5    1    1    2  502    0  0.54686822678E+02 -0.74444555943E+00 -0.26403861575E+02  0.60875603322E+02  0.41800000000E+01 0.  1.
         -5    1    1    2    0  502 -0.22650552139E+01  0.57153743019E+02  0.73827398277E+02  0.93486030788E+02  0.41800000000E+01 0.  1.
        -11    1    1    2    0    0 -0.76584603816E+01 -0.50282113599E+02  0.10533368602E+03  0.11697063039E+03  0.00000000000E+00 0. -1.
         11    1    1    2    0    0 -0.44763307082E+02 -0.61271838607E+01 -0.95861934991E+01  0.46186482317E+02  0.00000000000E+00 0.  1.
</event>
<event>
 6    1  0.6981059E-006  0.1598848E+03  0.7561462E-02  0.1188827E+00
          1   -1    0    0  501    0  0.00000000000E+00  0.00000000000E+00  0.19511121900E+04  0.19511121900E+04  0.00000000000E+00 0. -1.
         -1   -1    0    0    0  501 -0.00000000000E+00 -0.00000000000E+00 -0.16320391397E+02  0.16320391397E+02  0.00000000000E+00 0.  1.
          5    1    1    2  502    0 -0.11095400371E+03  0.34371699631E+01  0.10311712528E+04  0.10371375175E+04  0.41800000000E+01 0. -1.
         -5    1    1    2    0  502 -0.26693608807E+02 -0.33110804107E+02  0.88657958438E+02  0.98420425188E+02  0.41800000000E+01 0. -1.
        -11    1    1    2    0    0  0.58980776421E+02  0.57629354617E+02  0.36091985591E+03  0.37022022755E+03  0.00000000000E+00 0.  1.
         11    1    1    2    0    0  0.78666836093E+02 -0.27955720473E+02  0.45404273145E+03  0.46165441121E+03  0.00000000000E+00 0. -1.
</event>
<event>
 6    1  0.6981059E-006  0.2151896E+03  0.7561462E-02  0.1137521E+00
          3   -1    0    0  501    0  0.00000000000E+00  0.00000000000E+00  0.42013516142E+03  0.42013516142E+03  0.00000000000E+00 0. -1.
         -3   -1    0    0    0  501 -0.00000000000E+00 -0.00000000000E+00 -0.13269186059E+03  0.13269186059E+03  0.00000000000E+00 0.  1.
          5    1    1    2  502    0 -0.11636176859E+03  0.32223610313E+02  0.78242503693E+01  0.12106656658E+03  0.41800000000E+01 0. -1.
         -5    1    1    2    0  502 -0.65325748333E+02 -0.79800136653E+02  0.33539701345E+02  0.10852602993E+03  0.41800000000E+01 0. -1.
        -11    1    1    2    0    0  0.85321074383E+02  0.66462810113E+02  0.15703261076E+03  0.19067310168E+03  0.00000000000E+00 0. -1.
         11    1    1    2    0    0  0.96366442537E+02 -0.18886283774E+02  0.89046738350E+02  0.13256132382E+03  0.00000000000E+00 0.  1.
</event>
<event>
 6    1  0.6981059E-006  0.1030812E+03  0.7561462E-02  0.1273947E+00
         -1   -1    0    0    0  501 -0.00000000000E+00  0.00000000000E+00  0.22544266174E+03  0.22544266174E+03  0.00000000000E+00 0.  1.
          1   -1    0    0  501    0  0.00000000000E+00 -0.00000000000E+00 -0.56628663598E+02  0.56628663598E+02  0.00000000000E+00 0. -1.
          5    1    1    2  502    0  0.67257134595E+02  0.15735566164E+02  0.44869849699E+02  0.82473668577E+02  0.41800000000E+01 0. -1.
         -5    1    1    2    0  502 -0.43847925354E+02 -0.36784116913E+02  0.67513495182E+02  0.88607314860E+02  0.41800000000E+01 0. -1.
        -11    1    1    2    0    0 -0.49390527995E+02  0.65483517862E+01  0.30974263513E+01  0.49918926438E+02  0.00000000000E+00 0. -1.
         11    1    1    2    0    0  0.25981318754E+02  0.14500198962E+02  0.53333226909E+02  0.61071415463E+02  0.00000000000E+00 0.  1.
</event>
<event>
 6    1  0.6981059E-006  0.1204024E+03  0.7561462E-02  0.1242435E+00
         -2   -1    0    0    0  501 -0.00000000000E+00  0.00000000000E+00  0.12452628024E+03  0.12452628024E+03  0.00000000000E+00 0.  1.
          2   -1    0    0  501    0  0.00000000000E+00 -0.00000000000E+00 -0.13127439016E+03  0.13127439016E+03  0.00000000000E+00 0. -1.
          5    1    1    2  502    0  0.24657937842E+02  0.25994383772E+02  0.27038529053E+02  0.45080775722E+02  0.41800000000E+01 0.  1.
         -5    1    1    2    0  502 -0.16009709748E+02 -0.92354850259E+02 -0.23892114309E+02  0.96819598733E+02  0.41800000000E+01 0.  1.
        -11    1    1    2    0    0  0.40104270360E+02  0.29273032371E+02 -0.16424145273E+02  0.52297375396E+02  0.00000000000E+00 0.  1.
         11    1    1    2    0    0 -0.48752498454E+02  0.37087434116E+02  0.65296206060E+01  0.61602920549E+02  0.00000000000E+00 0. -1.
</event>
<event>
 6    1  0.6981059E-006  0.2449417E+03  0.7561462E-02  0.1116544E+00
         -2   -1    0    0    0  501 -0.00000000000E+00  0.00000000000E+00  0.16230452306E+03  0.16230452306E+03  0.00000000000E+00 0.  1.
          2   -1    0    0  501    0  0.00000000000E+00 -0.00000000000E+00 -0.41397417220E+03  0.41397417220E+03  0.00000000000E+00 0. -1.
          5    1    1    2  502    0 -0.19414086405E+03  0.48501079579E+02 -0.20744885408E+02  0.20122338951E+03  0.41800000000E+01 0. -1.
         -5    1    1    2    0  502 -0.27733661224E+02 -0.44753607704E+02 -0.21338955781E+02  0.56963714777E+02  0.41800000000E+01 0. -1.
        -11    1    1    2    0    0  0.12659293496E+03 -0.43240885157E+02 -0.95948612840E+02  0.16462588386E+03  0.00000000000E+00 0. -1.
         11    1    1    2    0    0  0.95281590314E+02  0.39493413281E+02 -0.11363719511E+03  0.15346570711E+03  0.00000000000E+00 0.  1.
</event>
<event>
 6    1  0.6981059E-006  0.1389862E+03  0.7561462E-02  0.1214700E+00
          1   -1    0    0  501    0  0.00000000000E+00  0.00000000000E+00  0.55669937020E+03  0.55669937020E+03  0.00000000000E+00 0. -1.
         -1   -1    0    0    0  501 -0.00000000000E+00 -0.00000000000E+00 -0.64688319227E+02  0.64688319227E+02  0.00000000000E+00 0.  1.
          5    1    1    2  502    0 -0.34915150192E+02 -0.53796592827E+02 -0.65282669314E+01  0.64600555584E+02  0.41800000000E+01 0.  1.
         -5    1    1    2    0  502  0.38847038968E+02 -0.75029912884E+02  0.12366547264E+03  0.14983057694E+03  0.41800000000E+01 0.  1.
        -11    1    1    2    0    0 -0.55034108212E+01  0.56920289385E+02  0.55879689698E+02  0.79954653367E+02  0.00000000000E+00 0.  1.
         11    1    1    2    0    0  0.15715220447E+01  0.71906216326E+02  0.31899415557E+03  0.32700190354E+03  0.00000000000E+00 0. -1.
</event>
<event>
 6    1  0.6981059E-006  0.1520993E+03  0.7561462E-02  0.1197917E+00
         -2   -1    0    0    0  501 -0.00000000000E+00  0.00000000000E+00  0.10765718866E+04  0.10765718866E+04  0.00000000000E+00 0.  1.
          2   -1    0    0  501    0  0.00000000000E+00 -0.00000000000E+00 -0.28639061547E+02  0.28639061547E+02  0.00000000000E+00 0. -1.
          5    1    1    2  502    0  0.12798655839E+02  0.24553346888E+02  0.23116420595E+03  0.23285410657E+03  0.41800000000E+01 0. -1.
         -5    1    1    2    0  502  0.11963627279E+03 -0.53498636756E+02  0.24683238099E+03  0.27949711735E+03  0.41800000000E+01 0. -1.
        -11    1    1    2    0    0 -0.61672244294E+02  0.39923981253E+02  0.42381040268E+03  0.43013096542E+03  0.00000000000E+00 0.  1.
         11    1    1    2    0    0 -0.70762684340E+02 -0.10978691385E+02  0.14612583542E+03  0.16272875879E+03  0.00000000000E+00 0. -1.
</event>
<event>
 6    1  0.6981059E-006  0.9520450E+02  0.7561462E-02  0.1290716E+00
         -1   -1    0    0    0  501 -0.00000000000E+00  0.00000000000E+00  0.47825214036E+03  0.47825214036E+03  0.00000000000E+00 0.  1.
          1   -1    0    0  501    0  0.00000000000E+00 -0.00000000000E+00 -0.32824317282E+02  0.32824317282E+02  0.00000000000E+00 0. -1.
          5    1    1    2  502    0  0.43644544639E+02  0.32609564695E+02  0.22937968688E+03  0.23579809826E+03  0.41800000000E+01 0.  1.
         -5    1    1    2    0  502 -0.30156084609E+02 -0.58947642106E+02  0.13143592358E+03  0.14723141091E+03  0.41800000000E+01 0.  1.
        -11    1    1    2    0    0 -0.37930387199E+02  0.77472809741E+01  0.73008880343E+00  0.38720377907E+02  0.00000000000E+00 0. -1.
         11    1    1    2    0    0  0.24441927169E+02  0.18590796438E+02  0.83882123806E+02  0.89326570572E+02  0.00000000000E+00 0.  1.
</event>
<event>
 6    1  0.6981059E-006  0.9700701E+02  0.7561462E-02  0.1286719E+00
          2   -1    0    0  501    0  0.00000000000E+00  0.00000000000E+00  0.74112734360E+03  0.74112734360E+03  0.00000000000E+00 0. -1.
         -2   -1    0    0    0  501 -0.00000000000E+00 -0.00000000000E+00 -0.20739830782E+02  0.20739830782E+02  0.00000000000E+00 0.  1.
          5    1    1    2  502    0 -0.46122858835E+01  0.27538865266E+02  0.33230218082E+03  0.33349943637E+03  0.41800000000E+01 0.  1.
         -5    1    1    2    0  502  0.63528460938E+02 -0.16122731315E+02  0.92930961537E+02  0.11379562306E+03  0.41800000000E+01 0.  1.
        -11    1    1    2    0    0 -0.38636576146E+01  0.30604867037E+02  0.41975876719E+02  0.52091841614E+02  0.00000000000E+00 0.  1.
         11    1    1    2    0    0 -0.55052517440E+02 -0.42021000988E+02  0.25317849375E+03  0.26248027335E+03  0.00000000000E+00 0. -1.
</event>
<event>
 6    1  0.6981059E-006  0.8847206E+02  0.7561462E-02  0.1306595E+00
         -4   -1    0    0    0  501 -0.00000000000E+00  0.00000000000E+00  0.32986841105E+02  0.32986841105E+02  0.00000000000E+00 0.  1.
          4   -1    0    0  501    0  0.00000000000E+00 -0.00000000000E+00 -0.42882776607E+03  0.42882776607E+03  0.00000000000E+00 0. -1.
          5    1    1    2  502    0  0.10850846349E+02  0.14753644457E+02  0.99735792048E+01  0.21268652365E+02  0.41800000000E+01 0.  1.
         -5    1    1    2    0  502 -0.56351763061E+02 -0.27522789721E+02 -0.21106583545E+03  0.22022553088E+03  0.41800000000E+01 0.  1.
        -11    1    1    2    0    0 -0.16073529853E+02  0.27628491190E+02 -0.30090934338E+02  0.43899387430E+02  0.00000000000E+00 0.  1.
         11    1    1    2    0    0  0.61574446565E+02 -0.14859345927E+02 -0.16465773438E+03  0.17642103651E+03  0.00000000000E+00 0. -1.
</event>
<event>
 6    1  0.6981059E-006  0.6623429E+02  0.7561462E-02  0.1373388E+00
         -2   -1    0    0    0  501 -0.00000000000E+00  0.00000000000E+00  0.59053116289E+03  0.59053116289E+03  0.00000000000E+00 0.  1.
          2   -1    0    0  501    0  0.00000000000E+00 -0.00000000000E+00 -0.25798756424E+02  0.25798756424E+02  0.00000000000E+00 0. -1.
          5    1    1    2  502    0  0.20774693752E+02 -0.30631438038E+02  0.38532864411E+02  0.53592228322E+02  0.41800000000E+01 0. -1.
         -5    1    1    2    0  502 -0.30777247169E+02  0.31064515914E+02  0.40425759478E+03  0.40663733034E+03  0.41800000000E+01 0. -1.
        -11    1    1    2    0    0  0.20738866118E+02  0.19618518615E+02 -0.33652377482E+01  0.28745637332E+02  0.00000000000E+00 0. -1.
         11    1    1    2    0    0 -0.10736312701E+02 -0.20051596492E+02  0.12530718503E+03  0.12735472332E+03  0.00000000000E+00 0.  1.
</event>
<event>
 6    1  0.6981059E-006  0.1493839E+03  0.7561462E-02  0.1201232E+00
          1   -1    0    0  501    0  0.00000000000E+00  0.00000000000E+00  0.55729686563E+03  0.55729686563E+03  0.00000000000E+00 0. -1.
         -1   -1    0    0    0  501 -0.00000000000E+00 -0.00000000000E+00 -0.49903300726E+02  0.49903300726E+02  0.00000000000E+00 0.  1.
          5    1    1    2  502    0 -0.37192670801E+02 -0.22341236365E+00  0.75859723974E+01  0.38188532986E+02  0.41800000000E+01 0. -1.
         -5    1    1    2    0  502 -0.28133645036E+02  0.10889076188E+03  0.25929214025E+03  0.28266338001E+03  0.41800000000E+01 0. -1.
        -11    1    1    2    0    0 -0.78069508979E+01 -0.61005369622E+02  0.60439444695E+02  0.86229519772E+02  0.00000000000E+00 0. -1.
         11    1    1    2    0    0  0.73133266736E+02 -0.47661979896E+02  0.18007600757E+03  0.20011873359E+03  0.00000000000E+00 0.  1.
</event>
<event>
 6    1  0.6981059E-006  0.9963945E+02  0.7561462E-02  0.1281056E+00
         -1   -1    0    0    0  501 -0.00000000000E+00  0.00000000000E+00  0.28699673139E+02  0.28699673139E+02  0.00000000000E+00 0.  1.
          1   -1    0    0  501    0  0.00000000000E+00 -0.00000000000E+00 -0.47437144498E+03  0.47437144498E+03  0.00000000000E+00 0. -1.
          5    1    1    2  502    0 -0.28712998448E+02 -0.38929773768E+02 -0.12978938838E+03  0.13857388391E+03  0.41800000000E+01 0. -1.
         -5    1    1    2    0  502  0.49073380295E+02  0.34712020254E+02 -0.36138277766E+02  0.70260718211E+02  0.41800000000E+01 0. -1.
        -11    1    1    2    0    0  0.23440795152E+02  0.31201213054E+02 -0.10252434469E+03  0.10970062820E+03  0.00000000000E+00 0. -1.
         11    1    1    2    0    0 -0.43801176998E+02 -0.26983459540E+02 -0.17721976101E+03  0.18453588780E+03  0.00000000000E+00 0.  1.
</event>
<event>
 6    1  0.6981059E-006  0.1081570E+03  0.7561462E-02  0.1264021E+00
          3   -1    0    0  501    0  0.00000000000E+00  0.00000000000E+00  0.10407155776E+03  0.10407155776E+03  0.00000000000E+00 0. -1.
         -3   -1    0    0    0  501 -0.00000000000E+00 -0.00000000000E+00 -0.19357335974E+03  0.19357335974E+03  0.00000000000E+00 0.  1.
          5    1    1    2  502    0  0.79063370891E+02  0.62813933193E+02 -0.11107501889E+02  0.10167327976E+03  0.41800000000E+01 0.  1.
         -5    1    1    2    0  502  0.23690876040E+01 -0.20078744232E+02 -0.71037426026E+02  0.73976731764E+02  0.41800000000E+01 0.  1.
        -11    1    1    2    0    0 -0.67864458679E+02 -0.25109635533E+02 -0.39857428858E+02  0.82611701251E+02  0.00000000000E+00 0.  1.
         11    1    1    2    0    0 -0.13567999816E+02 -0.17625553429E+02  0.32500554792E+02  0.39383204726E+02  0.00000000000E+00 0. -1.
</event>
<event>
 6    1  0.6981059E-006  0.1102680E+03  0.7561462E-02  0.1260074E+00
          1   -1    0    0  501    0  0.00000000000E+00  0.00000000000E+00  0.10185427183E+03  0.10185427183E+03  0.00000000000E+00 0. -1.
         -1   -1    0    0    0  501 -0.00000000000E+00 -0.00000000000E+00 -0.13203918475E+03  0.13203918475E+03  0.00000000000E+00 0.  1.
          5    1    1    2  502    0  0.16791093358E+02 -0.40728735761E+02 -0.25337398903E+02  0.50992420182E+02  0.41800000000E+01 0.  1.
         -5    1    1    2    0  502 -0.42484907602E+02  0.67573056849E+02  0.93715959924E+01  0.80475987707E+02  0.41800000000E+01 0.  1.
        -11    1    1    2    0    0  0.57035676195E+02 -0.30707122720E+02  0.57993327712E+01  0.65035590298E+02  0.00000000000E+00 0. -1.
         11    1    1    2    0    0 -0.31341861951E+02  0.38628016315E+01 -0.20018442786E+02  0.37389458389E+02  0.00000000000E+00 0.  1.
</event>
<event>
 6    1  0.6981059E-006  0.1026069E+03  0.7561462E-02  0.1274907E+00
         -2   -1    0    0    0  501 -0.00000000000E+00  0.00000000000E+00  0.23087668728E+03  0.23087668728E+03  0.00000000000E+00 0.  1.
          2   -1    0    0  501    0  0.00000000000E+00 -0.00000000000E+00 -0.64235696416E+02  0.64235696416E+02  0.00000000000E+00 0. -1.
          5    1    1    2  502    0  0.69429788970E+02  0.56676643706E+02  0.68367907811E+02  0.11280239695E+03  0.41800000000E+01 0. -1.
         -5    1    1    2    0  502 -0.43365760247E+02 -0.10649585408E+02  0.52039336855E+02  0.68699110703E+02  0.41800000000E+01 0. -1.
        -11    1    1    2    0    0  0.96473983934E+01 -0.29973138076E+02  0.63454346398E+02  0.70837245702E+02  0.00000000000E+00 0.  1.
         11    1    1    2    0    0 -0.35711427117E+02 -0.16053920222E+02 -0.17220600203E+02  0.42773630341E+02  0.00000000000E+00 0. -1.
</event>
<event>
 6    1  0.6981059E-006  0.1211204E+03  0.7561462E-02  0.1241260E+00
         -1   -1    0    0    0  501 -0.00000000000E+00  0.00000000000E+00  0.42512429445E+03  0.42512429445E+03  0.00000000000E+00 0.  1.
          1   -1    0    0  501    0  0.00000000000E+00 -0.00000000000E+00 -0.46256945868E+02  0.46256945868E+02  0.00000000000E+00 0. -1.
          5    1    1    2  502    0 -0.55017688021E+02  0.37905352956E+02  0.14342343941E+03  0.15827671070E+03  0.41800000000E+01 0. -1.
         -5    1    1    2    0  502 -0.12859128304E+02 -0.77541125007E+02  0.11431119795E+03  0.13878942908E+03  0.41800000000E+01 0. -1.
        -11    1    1    2    0    0  0.23063976992E+02 -0.13777396357E+02 -0.75948733625E+01  0.27918556310E+02  0.00000000000E+00 0. -1.
         11    1    1    2    0    0  0.44812839333E+02  0.53413168407E+02  0.12872758459E+03  0.14639654423E+03  0.00000000000E+00 0.  1.
</event>
<event>
 6    1  0.6981059E-006  0.1453520E+03  0.7561462E-02  0.1206304E+00
          1   -1    0    0  501    0  0.00000000000E+00  0.00000000000E+00  0.26858433924E+03  0.26858433924E+03  0.00000000000E+00 0. -1.
         -1   -1    0    0    0  501 -0.00000000000E+00 -0.00000000000E+00 -0.11461318124E+03  0.11461318124E+03  0.00000000000E+00 0.  1.
          5    1    1    2  502    0 -0.69279399970E+02 -0.43174580928E+02 -0.36197437415E+02  0.89394667480E+02  0.41800000000E+01 0. -1.
         -5    1    1    2    0  502  0.15994642425E+02 -0.68982895709E+02  0.51230438845E+02  0.87501421423E+02  0.41800000000E+01 0. -1.
        -11    1    1    2    0    0 -0.11551289562E+02  0.37046600491E+02  0.42891610055E+01  0.39042026083E+02  0.00000000000E+00 0. -1.
         11    1    1    2    0    0  0.64836047106E+02  0.75110876146E+02  0.13464899556E+03  0.16725940549E+03  0.00000000000E+00 0.  1.
</event>
<event>
 6    1  0.6981059E-006  0.1201889E+03  0.7561462E-02  0.1242786E+00
          1   -1    0    0  501    0  0.00000000000E+00  0.00000000000E+00  0.31198980086E+03  0.31198980086E+03  0.00000000000E+00 0. -1.
         -1   -1    0    0    0  501 -0.00000000000E+00 -0.00000000000E+00 -0.14628904824E+03  0.14628904824E+03  0.00000000000E+00 0.  1.
          5    1    1    2  502    0 -0.23457620530E+02 -0.17886662240E+02  0.48238846909E+01  0.30181698271E+02  0.41800000000E+01 0. -1.
         -5    1    1    2    0  502  0.72135633966E+02  0.74096173168E+02 -0.98562025780E+02  0.14291864081E+03  0.41800000000E+01 0. -1.
        -11    1    1    2    0    0 -0.68693787371E+02 -0.32304127474E+02  0.23035682493E+03  0.24254207855E+03  0.00000000000E+00 0. -1.
         11    1    1    2    0    0  0.20015773935E+02 -0.23905383453E+02  0.29082068778E+02  0.42636431472E+02  0.00000000000E+00 0.  1.
</event>
<event>
 6    1  0.6981059E-006  0.1121586E+03  0.7561462E-02  0.1256624E+00
          2   -1    0    0  501    0  0.00000000000E+00  0.00000000000E+00  0.40770084473E+03  0.40770084473E+03  0.00000000000E+00 0. -1.
         -2   -1    0    0    0  501 -0.00000000000E+00 -0.00000000000E+00 -0.72911913139E+02  0.72911913139E+02  0.00000000000E+00 0.  1.
          5    1    1    2  502    0  0.10589306200E+02  0.27834090115E+02  0.57131646511E+02  0.64562895005E+02  0.41800000000E+01 0.  1.
         -5    1    1    2    0  502  0.68683255051E+02 -0.49599075567E+02 -0.25211943572E+02  0.88490521075E+02  0.41800000000E+01 0.  1.
        -11    1    1    2    0    0 -0.46860443764E+01  0.33580054285E+02  0.32962957679E+02  0.47287795853E+02  0.00000000000E+00 0.  1.
         11    1    1    2    0    0 -0.74586516874E+02 -0.11815068833E+02  0.26990627097E+03  0.28027154594E+03  0.00000000000E+00 0. -1.
</event>
<event>
 6    1  0.6981059E-006  0.9741150E+02  0.7561462E-02  0.1285835E+00
         -2   -1    0    0    0  501 -0.00000000000E+00  0.00000000000E+00  0.38705181422E+02  0.38705181422E+02  0.00000000000E+00 0.  1.
          2   -1    0    0  501    0  0.00000000000E+00 -0.00000000000E+00 -0.34066754000E+03  0.34066754000E+03  0.00000000000E+00 0. -1.
          5    1    1    2  502    0 -0.43394899270E+02  0.23720188144E+02 -0.74113196220E+01  0.50181317906E+02  0.41800000000E+01 0.  1.
         -5    1    1    2    0  502  0.39502290711E+02 -0.36462711778E+02 -0.10720214041E+03  0.11999888178E+03  0.41800000000E+01 0.  1.
        -11    1    1    2    0    0  0.45106055922E+02 -0.68752716324E+01 -0.73197115390E+02  0.86253367136E+02  0.00000000000E+00 0.  1.
         11    1    1    2    0    0 -0.41213447362E+02  0.19617795266E+02 -0.11415178316E+03  0.12293915459E+03  0.00000000000E+00 0. -1.
</event>
<event>
 6    1  0.6981059E-006  0.1194035E+03  0.7561462E-02  0.1244084E+00
         -1   -1    0    0    0  501 -0.00000000000E+00  0.00000000000E+00  0.23153880576E+03  0.23153880576E+03  0.00000000000E+00 0.  1.
          1   -1    0    0  501    0  0.00000000000E+00 -0.00000000000E+00 -0.16707993844E+03  0.16707993844E+03  0.00000000000E+00 0. -1.
          5    1    1    2  502    0 -0.70064483891E+01 -0.41404243625E+02  0.72364435089E+02  0.83770433776E+02  0.41800000000E+01 0.  1.
         -5    1    1    2    0  502 -0.85229347888E+01  0.92354825695E+02  0.11755882883E+03  0.14979854767E+03  0.41800000000E+01 0.  1.
        -11    1    1    2    0    0  0.62712524628E+01  0.25752658952E+02 -0.52355514963E+02  0.58682433467E+02  0.00000000000E+00 0. -1.
         11    1    1    2    0    0  0.92581307150E+01 -0.76703241022E+02 -0.73108881632E+02  0.10636732929E+03  0.00000000000E+00 0.  1.
</event>
<event>
 6    1  0.6981059E-006  0.1227446E+03  0.7561462E-02  0.1238637E+00
          1   -1    0    0  501    0  0.00000000000E+00  0.00000000000E+00  0.49524026054E+03  0.49524026054E+03  0.00000000000E+00 0. -1.
         -1   -1    0    0    0  501 -0.00000000000E+00 -0.00000000000E+00 -0.58281851162E+02  0.58281851162E+02  0.00000000000E+00 0.  1.
          5    1    1    2  502    0 -0.90050849069E+02 -0.26204209652E+02  0.12685086518E+03  0.15781137608E+03  0.41800000000E+01 0. -1.
         -5    1    1    2    0  502 -0.10593189468E+02  0.16665831029E+02 -0.25316085269E+02  0.32378112365E+02  0.41800000000E+01 0. -1.
        -11    1    1    2    0    0  0.67338698364E+02  0.46376253136E+02  0.26376835536E+03  0.27615032580E+03  0.00000000000E+00 0. -1.
         11    1    1    2    0    0  0.33305340174E+02 -0.36837874512E+02  0.71655274102E+02  0.87182297454E+02  0.00000000000E+00 0.  1.
</event>
<event>
 6    1  0.6981059E-006  0.1300881E+03  0.7561462E-02  0.1227325E+00
          1   -1    0    0  501    0  0.00000000000E+00  0.00000000000E+00  0.42912275574E+03  0.42912275574E+03  0.00000000000E+00 0. -1.
         -1   -1    0    0    0  501 -0.00000000000E+00 -0.00000000000E+00 -0.49445788651E+02  0.49445788651E+02  0.00000000000E+00 0.  1.
          5    1    1    2  502    0 -0.29275071868E+02  0.96545141043E+02  0.98344188629E+02  0.14095050879E+03  0.41800000000E+01 0. -1.
         -5    1    1    2    0  502  0.41903903172E+02 -0.16837308733E+02  0.21645529854E+02  0.50253690701E+02  0.41800000000E+01 0. -1.
        -11    1    1    2    0    0  0.31876949108E+02 -0.53284827912E+02  0.19424626607E+03  0.20392896963E+03  0.00000000000E+00 0. -1.
         11    1    1    2    0    0 -0.44505780412E+02 -0.26423004398E+02  0.65440982529E+02  0.83435375266E+02  0.00000000000E+00 0.  1.
</event>
<event>
 6    1  0.6981059E-006  0.1063186E+03  0.7561462E-02  0.1267543E+00
          2   -1    0    0  501    0  0.00000000000E+00  0.00000000000E+00  0.28229481442E+03  0.28229481442E+03  0.00000000000E+00 0. -1.
         -2   -1    0    0    0  501 -0.00000000000E+00 -0.00000000000E+00 -0.54795673445E+02  0.54795673445E+02  0.00000000000E+00 0.  1.
          5    1    1    2  502    0 -0.16868610452E+02 -0.26776155333E+02 -0.10326042803E+01  0.31938240161E+02  0.41800000000E+01 0.  1.
         -5    1    1    2    0  502  0.27955317556E+02  0.86176611749E+02  0.12376887611E+03  0.15344091790E+03  0.41800000000E+01 0.  1.
        -11    1    1    2    0    0 -0.30110865002E+02 -0.27196119104E+01 -0.96554684348E+00  0.30248847264E+02  0.00000000000E+00 0.  1.
         11    1    1    2    0    0  0.19024157899E+02 -0.56680844505E+02  0.10572841599E+03  0.12146248255E+03  0.00000000000E+00 0. -1.
</event>
<event>
 6    1  0.6981059E-006  0.2325868E+03  0.7561462E-02  0.1124832E+00
          2   -1    0    0  501    0  0.00000000000E+00  0.00000000000E+00  0.86053462535E+02  0.86053462535E+02  0.00000000000E+00 0. -1.
         -2   -1    0    0    0  501 -0.00000000000E+00 -0.00000000000E+00 -0.82784153247E+03  0.82784153247E+03  0.00000000000E+00 0.  1.
          5    1    1    2  502    0 -0.66271429317E+02 -0.42647763274E+02 -0.26394071277E+03  0.27548667176E+03  0.41800000000E+01 0. -1.
         -5    1    1    2    0  502 -0.65000620119E+01 -0.16500025859E+03 -0.29521152310E+03  0.33828191189E+03  0.41800000000E+01 0. -1.
        -11    1    1    2    0    0  0.19656391191E+02  0.87951844803E+02 -0.13177339889E+03  0.15964375770E+03  0.00000000000E+00 0.  1.
         11    1    1    2    0    0  0.53115100138E+02  0.11969617706E+03 -0.50862435173E+02  0.14048265365E+03  0.00000000000E+00 0. -1.
</event>
<event>
 6    1  0.6981059E-006  0.1159993E+03  0.7561462E-02  0.1249847E+00
         -1   -1    0    0    0  501 -0.00000000000E+00  0.00000000000E+00  0.39864363443E+03  0.39864363443E+03  0.00000000000E+00 0.  1.
          1   -1    0    0  501    0  0.00000000000E+00 -0.00000000000E+00 -0.52099115602E+02  0.52099115602E+02  0.00000000000E+00 0. -1.
          5    1    1    2  502    0  0.75423247456E+02 -0.58142463078E+02  0.23781114458E+03  0.25620465483E+03  0.41800000000E+01 0.  1.
         -5    1    1    2    0  502 -0.38115516892E+01  0.40981564867E+02  0.41646770121E+02  0.58702150273E+02  0.41800000000E+01 0.  1.
        -11    1    1    2    0    0 -0.49587303979E+02 -0.18885596250E+02 -0.39281826984E+01  0.53207114947E+02  0.00000000000E+00 0. -1.
         11    1    1    2    0    0 -0.22024391787E+02  0.36046494461E+02  0.71014786833E+02  0.82628829990E+02  0.00000000000E+00 0.  1.
</event>
<event>
 6    1  0.6981059E-006  0.1700996E+03  0.7561462E-02  0.1177744E+00
         -2   -1    0    0    0  501 -0.00000000000E+00  0.00000000000E+00  0.47718897914E+02  0.47718897914E+02  0.00000000000E+00 0. -1.
          2   -1    0    0  501    0  0.00000000000E+00 -0.00000000000E+00 -0.76534972337E+03  0.76534972337E+03  0.00000000000E+00 0.  1.
          5    1    1    2  502    0 -0.14416902445E+03 -0.13176583445E+02 -0.15096293244E+03  0.20920231675E+03  0.41800000000E+01 0.  1.
         -5    1    1    2    0  502  0.20517224157E+02 -0.29346662430E+02 -0.41051868391E+02  0.54634342508E+02  0.41800000000E+01 0.  1.
        -11    1    1    2    0    0  0.34946329222E+02  0.59499268115E+02 -0.22956107435E+03  0.23970752113E+03  0.00000000000E+00 0. -1.
         11    1    1    2    0    0  0.88705471068E+02 -0.16976022239E+02 -0.29605495028E+03  0.30952444090E+03  0.00000000000E+00 0.  1.
</event>
<event>
 6    1  0.6981059E-006  0.9595490E+02  0.7561462E-02  0.1289040E+00
          4   -1    0    0  501    0  0.00000000000E+00  0.00000000000E+00  0.20765429714E+03  0.20765429714E+03  0.00000000000E+00 0. -1.
         -4   -1    0    0    0  501 -0.00000000000E+00 -0.00000000000E+00 -0.18641642339E+03  0.18641642339E+03  0.00000000000E+00 0.  1.
          5    1    1    2  502    0  0.76830750514E+02  0.49126328258E+02 -0.23191785673E+02  0.94189658007E+02  0.41800000000E+01 0.  1.
         -5    1    1    2    0  502  0.16174648853E+01 -0.93840939781E+01 -0.10452283374E+03  0.10503890986E+03  0.41800000000E+01 0.  1.
        -11    1    1    2    0    0 -0.27541732395E+02 -0.35719160865E+01  0.12485413260E+03  0.12790566850E+03  0.00000000000E+00 0. -1.
         11    1    1    2    0    0 -0.50906483005E+02 -0.36170318193E+02  0.24098360569E+02  0.66936484164E+02  0.00000000000E+00 0.  1.
</event>
<event>
 6    1  0.6981059E-006  0.1027561E+03  0.7561462E-02  0.1274605E+00
          2   -1    0    0  501    0  0.00000000000E+00  0.00000000000E+00  0.58885677429E+03  0.58885677429E+03  0.00000000000E+00 0. -1.
         -2   -1    0    0    0  501 -0.00000000000E+00 -0.00000000000E+00 -0.29274459888E+02  0.29274459888E+02  0.00000000000E+00 0.  1.
          5    1    1    2  502    0  0.65178323697E+02 -0.36195809492E+01  0.34416664665E+02  0.73914101854E+02  0.41800000000E+01 0. -1.
         -5    1    1    2    0  502 -0.39326085285E+02  0.16933854626E+02  0.11684595284E+03  0.12451403741E+03  0.41800000000E+01 0. -1.
        -11    1    1    2    0    0  0.26611610794E+02  0.21418280867E+02  0.14130698738E+03  0.14537738912E+03  0.00000000000E+00 0.  1.
         11    1    1    2    0    0 -0.52463849206E+02 -0.34732554544E+02  0.26701270952E+03  0.27432570580E+03  0.00000000000E+00 0. -1.
</event>
<event>
 6    1  0.6981059E-006  0.1046521E+03  0.7561462E-02  0.1270807E+00
          1   -1    0    0  501    0  0.00000000000E+00  0.00000000000E+00  0.40538182091E+03  0.40538182091E+03  0.00000000000E+00 0. -1.
         -1   -1    0    0    0  501 -0.00000000000E+00 -0.00000000000E+00 -0.67483719389E+02  0.67483719389E+02  0.00000000000E+00 0.  1.
          5    1    1    2  502    0  0.31629398562E+02  0.20440332810E+02  0.10422708809E+03  0.11090078607E+03  0.41800000000E+01 0.  1.
         -5    1    1    2    0  502  0.50318959340E+02  0.42761466687E+02 -0.23771609224E+02  0.70307200964E+02  0.41800000000E+01 0.  1.
        -11    1    1    2    0    0 -0.35777688802E+01 -0.97448198158E+01 -0.57660793676E+01  0.11874746931E+02  0.00000000000E+00 0.  1.
         11    1    1    2    0    0 -0.78370589022E+02 -0.53456979681E+02  0.26320870202E+03  0.27978280633E+03  0.00000000000E+00 0. -1.
</event>
<event>
 6    1  0.7927836E-006  0.1516596E+03  0.7561462E-02  0.1198448E+00
         -3   -1    0    0    0  501 -0.00000000000E+00  0.00000000000E+00  0.51561506789E+03  0.51561506789E+03  0.00000000000E+00 0.  1.
          3   -1    0    0  501    0  0.00000000000E+00 -0.00000000000E+00 -0.57191138920E+02  0.57191138920E+02  0.00000000000E+00 0. -1.
          5    1    1    2  502    0  0.92724798537E+01 -0.25979009354E+02  0.11126679206E+03  0.11471119921E+03  0.41800000000E+01 0. -1.
         -5    1    1    2    0  502 -0.13823156017E+03  0.88289390842E-02  0.15727491720E+03  0.20942978844E+03  0.41800000000E+01 0. -1.
        -11    1    1    2    0    0  0.74297235229E+02  0.34299710327E+02  0.17213095830E+03  0.19059280179E+03  0.00000000000E+00 0.  1.
         11    1    1    2    0    0  0.54661845089E+02 -0.83295299120E+01  0.17751261418E+02  0.58072417368E+02  0.00000000000E+00 0. -1.
</event>
<event>
 6    1  0.6981059E-006  0.1326380E+03  0.7561462E-02  0.1223593E+00
          1   -1    0    0  501    0  0.00000000000E+00  0.00000000000E+00  0.50541363488E+03  0.50541363488E+03  0.00000000000E+00 0. -1.
         -1   -1    0    0    0  501 -0.00000000000E+00 -0.00000000000E+00 -0.41384186529E+02  0.41384186529E+02  0.00000000000E+00 0.  1.
          5    1    1    2  502    0 -0.19395795680E+02  0.14949720774E+02  0.59035352313E+01  0.25534587710E+02  0.41800000000E+01 0.  1.
         -5    1    1    2    0  502  0.76254654781E+02 -0.92329875202E+02  0.21079572389E+03  0.24247038549E+03  0.41800000000E+01 0.  1.
        -11    1    1    2    0    0 -0.50327299187E+02  0.80402464718E+01  0.15484252747E+03  0.16301438869E+03  0.00000000000E+00 0. -1.
         11    1    1    2    0    0 -0.65315599139E+01  0.69339907956E+02  0.92487661759E+02  0.11577845952E+03  0.00000000000E+00 0.  1.
</event>
<event>
 6    1  0.6981059E-006  0.3339489E+03  0.7561462E-02  0.1069403E+00
          1   -1    0    0  501    0  0.00000000000E+00  0.00000000000E+00  0.66112374343E+03  0.66112374343E+03  0.00000000000E+00 0. -1.
         -1   -1    0    0    0  501 -0.00000000000E+00 -0.00000000000E+00 -0.20833170221E+03  0.20833170221E+03  0.00000000000E+00 0.  1.
          5    1    1    2  502    0 -0.87243239366E+00 -0.14216001700E+03 -0.25634532039E+02  0.14451585797E+03  0.41800000000E+01 0. -1.
         -5    1    1    2    0  502 -0.16171955511E+02 -0.19052255754E+03  0.11203966536E+03  0.22165454223E+03  0.41800000000E+01 0. -1.
        -11    1    1    2    0    0  0.25078268954E+02  0.21360825387E+03  0.17291968465E+03  0.27596851819E+03  0.00000000000E+00 0.  1.
         11    1    1    2    0    0 -0.80338810496E+01  0.11907432067E+03  0.19346722325E+03  0.22731652725E+03  0.00000000000E+00 0. -1.
</event>
<event>
 6    1  0.6981059E-006  0.1233305E+03  0.7561462E-02  0.1237702E+00
          1   -1    0    0  501    0  0.00000000000E+00  0.00000000000E+00  0.10035719297E+04  0.10035719297E+04  0.00000000000E+00 0. -1.
         -1   -1    0    0    0  501 -0.00000000000E+00 -0.00000000000E+00 -0.17961720232E+02  0.17961720232E+02  0.00000000000E+00 0.  1.
          5    1    1    2  502    0 -0.53095882318E-01  0.36648932260E+02  0.26222861261E+03  0.26481024286E+03  0.41800000000E+01 0. -1.
         -5    1    1    2    0  502  0.83746212362E+02 -0.30891954996E+02  0.19070533649E+03  0.21060327332E+03  0.41800000000E+01 0.  1.
        -11    1    1    2    0    0 -0.70500211768E+02  0.34184218537E+02  0.35066480956E+03  0.35931135429E+03  0.00000000000E+00 0. -1.
         11    1    1    2    0    0 -0.13192904712E+02 -0.39941195802E+02  0.18201145086E+03  0.18680877951E+03  0.00000000000E+00 0.  1.
</event>
<event>
 6    1  0.6981059E-006  0.1621467E+03  0.7561462E-02  0.1186294E+00
         -4   -1    0    0    0  501 -0.00000000000E+00  0.00000000000E+00  0.11398330696E+04  0.11398330696E+04  0.00000000000E+00 0.  1.
          4   -1    0    0  501    0  0.00000000000E+00 -0.00000000000E+00 -0.27284995366E+02  0.27284995366E+02  0.00000000000E+00 0. -1.
          5    1    1    2  502    0 -0.10682465726E+03  0.13661382813E+02  0.34713223996E+03  0.36347820457E+03  0.41800000000E+01 0. -1.
         -5    1    1    2    0  502 -0.16203033740E+02 -0.75964386963E+02  0.29711638998E+03  0.30712985525E+03  0.41800000000E+01 0. -1.
        -11    1    1    2    0    0  0.56684237000E+02  0.20297678647E+02  0.78773142446E+02  0.99147901912E+02  0.00000000000E+00 0. -1.
         11    1    1    2    0    0  0.66343453996E+02  0.42005325503E+02  0.38952630190E+03  0.39736210328E+03  0.00000000000E+00 0.  1.
</event>
<event>
 6    1  0.6981059E-006  0.1904810E+03  0.7561462E-02  0.1158028E+00
          1   -1    0    0  501    0  0.00000000000E+00  0.00000000000E+00  0.30676399574E+03  0.30676399574E+03  0.00000000000E+00 0. -1.
         -1   -1    0    0    0  501 -0.00000000000E+00 -0.00000000000E+00 -0.17811390398E+03  0.17811390398E+03  0.00000000000E+00 0.  1.
          5    1    1    2  502    0 -0.50840039013E+02 -0.47123457554E+02 -0.17728235437E+01  0.69469022752E+02  0.41800000000E+01 0.  1.
         -5    1    1    2    0  502  0.63135296987E+02 -0.11460540254E+03 -0.63559482407E+02  0.14552575106E+03  0.41800000000E+01 0.  1.
        -11    1    1    2    0    0 -0.43993984793E+02  0.12254872394E+03  0.10357414827E+03  0.16637687527E+03  0.00000000000E+00 0.  1.
         11    1    1    2    0    0  0.31698726819E+02  0.39180136161E+02  0.90408249450E+02  0.10350625063E+03  0.00000000000E+00 0. -1.
</event>
<event>
 6    1  0.6981059E-006  0.1197695E+03  0.7561462E-02  0.1243478E+00
          2   -1    0    0  501    0  0.00000000000E+00  0.00000000000E+00  0.29006892737E+03  0.29006892737E+03  0.00000000000E+00 0. -1.
         -2   -1    0    0    0  501 -0.00000000000E+00 -0.00000000000E+00 -0.84489086892E+02  0.84489086892E+02  0.00000000000E+00 0.  1.
          5    1    1    2  502    0 -0.41642485306E+01  0.38835608382E+02 -0.27344975585E+02  0.47861942438E+02  0.41800000000E+01 0.  1.
         -5    1    1    2    0  502 -0.26726695430E+02  0.68846164736E+02  0.12822104883E+03  0.14802776905E+03  0.41800000000E+01 0.  1.
        -11    1    1    2    0    0 -0.15178935087E+02 -0.96950764215E+01 -0.10271782031E+02  0.20734128467E+02  0.00000000000E+00 0.  1.
         11    1    1    2    0    0  0.46069879047E+02 -0.97986696696E+02  0.11497554927E+03  0.15793417431E+03  0.00000000000E+00 0. -1.
</event>
<event>
 6    1  0.6981059E-006  0.1317617E+03  0.7561462E-02  0.1224865E+00
          2   -1    0    0  501    0  0.00000000000E+00  0.00000000000E+00  0.15292160473E+03  0.15292160473E+03  0.00000000000E+00 0. -1.
         -2   -1    0    0    0  501 -0.00000000000E+00 -0.00000000000E+00 -0.11686075790E+03  0.11686075790E+03  0.00000000000E+00 0.  1.
          5    1    1    2  502    0  0.20667586823E+02 -0.37432964979E+02 -0.61197536040E+01  0.43397002159E+02  0.41800000000E+01 0.  1.
         -5    1    1    2    0  502 -0.11155748061E+03  0.13905459797E+02  0.11731716269E+02  0.11310852690E+03  0.41800000000E+01 0.  1.
        -11    1    1    2    0    0  0.77905381046E+02  0.39605887894E+02  0.30636684052E+02  0.92609293062E+02  0.00000000000E+00 0. -1.
         11    1    1    2    0    0  0.12984512739E+02 -0.16078382713E+02 -0.18779988481E+00  0.20667540505E+02  0.00000000000E+00 0.  1.
</event>
<event>
 6    1  0.6981059E-006  0.2101664E+03  0.7561462E-02  0.1141434E+00
          1   -1    0    0  501    0  0.00000000000E+00  0.00000000000E+00  0.43800192239E+03  0.43800192239E+03  0.00000000000E+00 0. -1.
         -1   -1    0    0    0  501 -0.00000000000E+00 -0.00000000000E+00 -0.15705496231E+03  0.15705496231E+03  0.00000000000E+00 0.  1.
          5    1    1    2  502    0  0.35054828438E+02 -0.75901304758E+01 -0.14725811444E+02  0.38997089637E+02  0.41800000000E+01 0. -1.
         -5    1    1    2    0  502  0.23970923031E+02  0.18607954995E+03 -0.59657561629E+01  0.18775853298E+03  0.41800000000E+01 0. -1.
        -11    1    1    2    0    0 -0.14807271661E+01 -0.95831933316E+02  0.79967614855E+02  0.12482296031E+03  0.00000000000E+00 0.  1.
         11    1    1    2    0    0 -0.57545024303E+02 -0.82657486157E+02  0.22167091283E+03  0.24347830177E+03  0.00000000000E+00 0. -1.
</event>
<event>
 6    1  0.6981059E-006  0.1006693E+03  0.7561462E-02  0.1278895E+00
         -1   -1    0    0    0  501 -0.00000000000E+00  0.00000000000E+00  0.23209341810E+02  0.23209341810E+02  0.00000000000E+00 0.  1.
          1   -1    0    0  501    0  0.00000000000E+00 -0.00000000000E+00 -0.54285540240E+03  0.54285540240E+03  0.00000000000E+00 0. -1.
          5    1    1    2  502    0 -0.38340325157E+02  0.31540877956E+02 -0.15226259635E+03  0.16020667328E+03  0.41800000000E+01 0. -1.
         -5    1    1    2    0  502  0.62991511943E+02 -0.53361689331E+01 -0.78216034902E+02  0.10065597743E+03  0.41800000000E+01 0.  1.
        -11    1    1    2    0    0 -0.35140987954E+02 -0.50600265800E+02 -0.25263535218E+03  0.26003826085E+03  0.00000000000E+00 0. -1.
         11    1    1    2    0    0  0.10489801168E+02  0.24395556778E+02 -0.36532077163E+02  0.45163832664E+02  0.00000000000E+00 0.  1.
</event>
<event>
 6    1  0.6981059E-006  0.1238568E+03  0.7561462E-02  0.1236867E+00
          1   -1    0    0  501    0  0.00000000000E+00  0.00000000000E+00  0.10337022144E+03  0.10337022144E+03  0.00000000000E+00 0. -1.
         -1   -1    0    0    0  501 -0.00000000000E+00 -0.00000000000E+00 -0.16070179725E+03  0.16070179725E+03  0.00000000000E+00 0.  1.
          5    1    1    2  502    0 -0.16836026498E+02 -0.41943657231E+02 -0.19674161778E+02  0.49469861652E+02  0.41800000000E+01 0. -1.
         -5    1    1    2    0  502  0.75180042161E+02  0.54844144137E+02 -0.48124682482E+02  0.10484930305E+03  0.41800000000E+01 0. -1.
        -11    1    1    2    0    0  0.24395954013E+02  0.40042921937E+01  0.41430055728E+01  0.25067138316E+02  0.00000000000E+00 0.  1.
         11    1    1    2    0    0 -0.82739969675E+02 -0.16904779099E+02  0.63242628751E+01  0.84685715673E+02  0.00000000000E+00 0. -1.
</event>
<event>
 6    1  0.6981059E-006  0.1109770E+03  0.7561462E-02  0.1258771E+00
         -3   -1    0    0    0  501 -0.00000000000E+00  0.00000000000E+00  0.45860372363E+02  0.45860372363E+02  0.00000000000E+00 0.  1.
          3   -1    0    0  501    0  0.00000000000E+00 -0.00000000000E+00 -0.37516398919E+03  0.37516398919E+03  0.00000000000E+00 0. -1.
          5    1    1    2  502    0 -0.49591613491E+02  0.47584361110E+01 -0.12478598180E+03  0.13442836195E+03  0.41800000000E+01 0. -1.
         -5    1    1    2    0  502  0.23735444527E+02  0.55963368120E+02 -0.11554772071E+02  0.62018183268E+02  0.41800000000E+01 0. -1.
        -11    1    1    2    0    0 -0.32842105722E+02 -0.31298641282E+02 -0.10844489133E+03  0.11755213018E+03  0.00000000000E+00 0. -1.
         11    1    1    2    0    0  0.58698274686E+02 -0.29423162949E+02 -0.84517971623E+02  0.10702568615E+03  0.00000000000E+00 0.  1.
</event>
<event>
 6    1  0.6981059E-006  0.7524905E+02  0.7561462E-02  0.1343102E+00
         -2   -1    0    0    0  501 -0.00000000000E+00  0.00000000000E+00  0.41099217687E+03  0.41099217687E+03  0.00000000000E+00 0.  1.
          2   -1    0    0  501    0  0.00000000000E+00 -0.00000000000E+00 -0.12959778294E+03  0.12959778294E+03  0.00000000000E+00 0. -1.
          5    1    1    2  502    0  0.69499806690E+00  0.43526824839E+02  0.34521450491E+02  0.55715980175E+02  0.41800000000E+01 0.  1.
         -5    1    1    2    0  502  0.46890778859E+02 -0.10494808761E+02  0.33931976079E+03  0.34273059189E+03  0.41800000000E+01 0.  1.
        -11    1    1    2    0    0 -0.27356741012E+02 -0.13881403793E+02  0.12823796207E+02  0.33249577429E+02  0.00000000000E+00 0.  1.
         11    1    1    2    0    0 -0.20229035913E+02 -0.19150612286E+02 -0.10527061356E+03  0.10889381032E+03  0.00000000000E+00 0. -1.
</event>
<event>
 6    1  0.6981059E-006  0.1368945E+03  0.7561462E-02  0.1217570E+00
         -1   -1    0    0    0  501 -0.00000000000E+00  0.00000000000E+00  0.80389955428E+02  0.80389955428E+02  0.00000000000E+00 0.  1.
          1   -1    0    0  501    0  0.00000000000E+00 -0.00000000000E+00 -0.51715596929E+03  0.51715596929E+03  0.00000000000E+00 0. -1.
          5    1    1    2  502    0  0.90543870715E+02 -0.69134046331E+02 -0.57781680127E+01  0.11414275497E+03  0.41800000000E+01 0. -1.
         -5    1    1    2    0  502  0.78875359562E+00  0.42036104227E+02 -0.13070161377E+02  0.44226210659E+02  0.41800000000E+01 0. -1.
        -11    1    1    2    0    0 -0.90044599725E+02 -0.36840603387E+00 -0.38895028654E+03  0.39923738685E+03  0.00000000000E+00 0. -1.
         11    1    1    2    0    0 -0.12880245858E+01  0.27466348137E+02 -0.28967397929E+02  0.39939572233E+02  0.00000000000E+00 0.  1.
</event>
<event>
 6    1  0.6981059E-006  0.9212762E+02  0.7561462E-02  0.1297780E+00
          2   -1    0    0  501    0  0.00000000000E+00  0.00000000000E+00  0.14486856015E+03  0.14486856015E+03  0.00000000000E+00 0. -1.
         -2   -1    0    0    0  501 -0.00000000000E+00 -0.00000000000E+00 -0.15292876194E+03  0.15292876194E+03  0.00000000000E+00 0.  1.
          5    1    1    2  502    0  0.40365448895E+02  0.68304860867E+02  0.70528832153E+01  0.79763018023E+02  0.41800000000E+01 0.  1.
         -5    1    1    2    0  502 -0.60178864931E+01 -0.90538869811E+01 -0.79207028640E+02  0.80058813464E+02  0.41800000000E+01 0.  1.
        -11    1    1    2    0    0 -0.29049032435E+02 -0.72922233455E+02  0.82875607810E+02  0.11414843314E+03  0.00000000000E+00 0. -1.
         11    1    1    2    0    0 -0.52985299663E+01  0.13671259570E+02 -0.18781664181E+02  0.23827057465E+02  0.00000000000E+00 0.  1.
</event>
<event>
 6    1  0.6981059E-006  0.1197946E+03  0.7561462E-02  0.1243436E+00
         -4   -1    0    0    0  501 -0.00000000000E+00  0.00000000000E+00  0.42391408976E+02  0.42391408976E+02  0.00000000000E+00 0.  1.
          4   -1    0    0  501    0  0.00000000000E+00 -0.00000000000E+00 -0.60867117329E+03  0.60867117329E+03  0.00000000000E+00 0. -1.
          5    1    1    2  502    0 -0.11555963640E+02  0.74082560987E+01  0.17684145835E+02  0.22773317018E+02  0.41800000000E+01 0. -1.
         -5    1    1    2    0  502 -0.48148555942E+02 -0.81386998091E+02 -0.17855659444E+03  0.20209417784E+03  0.41800000000E+01 0. -1.
        -11    1    1    2    0    0  0.81723410620E+02  0.71204905915E+02 -0.35344102016E+03  0.36968825949E+03  0.00000000000E+00 0.  1.
         11    1    1    2    0    0 -0.22018891038E+02  0.27738360770E+01 -0.51966295549E+02  0.56506827926E+02  0.00000000000E+00 0. -1.
</event>
<event>
 6    1  0.6981059E-006  0.1024889E+03  0.7561462E-02  0.1275148E+00
         -2   -1    0    0    0  501 -0.00000000000E+00  0.00000000000E+00  0.45674726952E+02  0.45674726952E+02  0.00000000000E+00 0.  1.
          2   -1    0    0  501    0  0.00000000000E+00 -0.00000000000E+00 -0.30244617797E+03  0.30244617797E+03  0.00000000000E+00 0. -1.
          5    1    1    2  502    0 -0.16018798771E+02 -0.61792350227E+02 -0.25827090568E+02  0.68988458946E+02  0.41800000000E+01 0. -1.
         -5    1    1    2    0  502  0.71101491631E+01  0.52128414056E+02 -0.77625143077E+02  0.93867252068E+02  0.41800000000E+01 0. -1.
        -11    1    1    2    0    0 -0.23363987387E+02 -0.29403578653E+02 -0.19804657591E+02  0.42457870961E+02  0.00000000000E+00 0.  1.
         11    1    1    2    0    0  0.32272636995E+02  0.39067514824E+02 -0.13351455979E+03  0.14280732295E+03  0.00000000000E+00 0. -1.
</event>
<event>
 6    1  0.6981059E-006  0.8374635E+02  0.7561462E-02  0.1318744E+00
         -1   -1    0    0    0  501 -0.00000000000E+00  0.00000000000E+00  0.38518801225E+02  0.38518801225E+02  0.00000000000E+00 0.  1.
          1   -1    0    0  501    0  0.00000000000E+00 -0.00000000000E+00 -0.57455092546E+03  0.57455092546E+03  0.00000000000E+00 0. -1.
          5    1    1    2  502    0  0.16496502497E+02 -0.44687165645E+02 -0.10849658505E+03  0.11856668476E+03  0.41800000000E+01 0. -1.
         -5    1    1    2    0  502 -0.29834516506E+01  0.26874480165E+02  0.22030976125E+02  0.35127979972E+02  0.41800000000E+01 0. -1.
        -11    1    1    2    0    0  0.26533227338E+02  0.38874962855E+02 -0.27726402347E+03  0.28123053462E+03  0.00000000000E+00 0. -1.
         11    1    1    2    0    0 -0.40046278185E+02 -0.21062277374E+02 -0.17230249184E+03  0.17814452733E+03  0.00000000000E+00 0.  1.
</event>
<event>
 6    1  0.6981059E-006  0.9521686E+02  0.7561462E-02  0.1290688E+00
          3   -1    0    0  501    0  0.00000000000E+00  0.00000000000E+00  0.68307663333E+03  0.68307663333E+03  0.00000000000E+00 0. -1.
         -3   -1    0    0    0  501 -0.00000000000E+00 -0.00000000000E+00 -0.25289933834E+02  0.25289933834E+02  0.00000000000E+00 0.  1.
          5    1    1    2  502    0  0.17088667516E+02  0.25929846409E+02 -0.15395623012E+00  0.31334894204E+02  0.41800000000E+01 0. -1.
         -5    1    1    2    0  502 -0.56046725898E+02  0.38126177347E+01  0.21336799667E+03  0.22067882985E+03  0.41800000000E+01 0. -1.
        -11    1    1    2    0    0 -0.19074554657E+02 -0.39552500129E+02  0.17433575195E+03  0.17978095925E+03  0.00000000000E+00 0. -1.
         11    1    1    2    0    0  0.58032613039E+02  0.98100359856E+01  0.27023690710E+03  0.27657188386E+03  0.00000000000E+00 0.  1.
</event>
<event>
 6    1  0.6981059E-006  0.9210543E+02  0.7561462E-02  0.1297832E+00
          3   -1    0    0  501    0  0.00000000000E+00  0.00000000000E+00  0.57705168653E+02  0.57705168653E+02  0.00000000000E+00 0. -1.
         -3   -1    0    0    0  501 -0.00000000000E+00 -0.00000000000E+00 -0.20748305887E+03  0.20748305887E+03  0.00000000000E+00 0.  1.
          5    1    1    2  502    0  0.20001948431E+02 -0.62307724717E+02 -0.56078405083E+02  0.86282039946E+02  0.41800000000E+01 0. -1.
         -5    1    1    2    0  502 -0.17377799878E+02  0.54775615415E+02 -0.23731261735E+02  0.62313731683E+02  0.41800000000E+01 0. -1.
        -11    1    1    2    0    0 -0.20802043771E+02  0.27197080250E+02 -0.80761069519E+02  0.87719761451E+02  0.00000000000E+00 0.  1.
         11    1    1    2    0    0  0.18177895218E+02 -0.19664970948E+02  0.10792846122E+02  0.28872694442E+02  0.00000000000E+00 0. -1.
</event>
<event>
 6    1  0.6981059E-006  0.1026108E+03  0.7561462E-02  0.1274900E+00
         -1   -1    0    0    0  501 -0.00000000000E+00  0.00000000000E+00  0.15168466399E+03  0.15168466399E+03  0.00000000000E+00 0.  1.
          1   -1    0    0  501    0  0.00000000000E+00 -0.00000000000E+00 -0.94172658469E+02  0.94172658469E+02  0.00000000000E+00 0. -1.
          5    1    1    2  502    0 -0.33965481879E+02  0.16793761468E+02 -0.32274448195E+01  0.38256675020E+02  0.41800000000E+01 0. -1.
         -5    1    1    2    0  502  0.66625833658E+02 -0.47680234986E+02  0.66200732669E+02  0.10541544443E+03  0.41800000000E+01 0.  1.
        -11    1    1    2    0    0 -0.10421143785E+02  0.52815065791E+02 -0.30751647290E+02  0.61997542075E+02  0.00000000000E+00 0. -1.
         11    1    1    2    0    0 -0.22239207994E+02 -0.21928592273E+02  0.25290364960E+02  0.40187660931E+02  0.00000000000E+00 0.  1.
</event>
<event>
 6    1  0.6981059E-006  0.1029661E+03  0.7561462E-02  0.1274179E+00
         -3   -1    0    0    0  501 -0.00000000000E+00  0.00000000000E+00  0.70776609644E+03  0.70776609644E+03  0.00000000000E+00 0.  1.
          3   -1    0    0  501    0  0.00000000000E+00 -0.00000000000E+00 -0.16711772520E+02  0.16711772520E+02  0.00000000000E+00 0. -1.
          5    1    1    2  502    0 -0.65741938890E+02 -0.29581303471E+02  0.17061486301E+03  0.18526726620E+03  0.41800000000E+01 0. -1.
         -5    1    1    2    0  502  0.35136742529E+02  0.31066249462E+02  0.25868226674E+03  0.26293286226E+03  0.41800000000E+01 0. -1.
        -11    1    1    2    0    0 -0.14130901574E+02  0.29163017998E+02  0.72666082747E+02  0.79564587474E+02  0.00000000000E+00 0. -1.
         11    1    1    2    0    0  0.44736097935E+02 -0.30647963989E+02  0.18909111142E+03  0.19671315303E+03  0.00000000000E+00 0.  1.
</event>
<event>
 6    1  0.6981059E-006  0.2501706E+03  0.7561462E-02  0.1113197E+00
          1   -1    0    0  501    0  0.00000000000E+00  0.00000000000E+00  0.49976806692E+03  0.49976806692E+03  0.00000000000E+00 0. -1.
         -1   -1    0    0    0  501 -0.00000000000E+00 -0.00000000000E+00 -0.15422608564E+03  0.15422608564E+03  0.00000000000E+00 0.  1.
          5    1    1    2  502    0 -0.40834469878E+02  0.35370871309E+02  0.54167216991E+02  0.76616657875E+02  0.41800000000E+01 0.  1.
         -5    1    1    2    0  502 -0.19884690319E+03 -0.39195125472E+02  0.19621965768E+02  0.20366355273E+03  0.41800000000E+01 0.  1.
        -11    1    1    2    0    0  0.67724913816E+02 -0.18073140198E+02  0.30020747509E+02  0.76253181107E+02  0.00000000000E+00 0. -1.
         11    1    1    2    0    0  0.17195645925E+03  0.21897394361E+02  0.24173205101E+03  0.29746076085E+03  0.00000000000E+00 0.  1.
</event>
<event>
 6    1  0.6981059E-006  0.8666045E+02  0.7561462E-02  0.1311147E+00
          1   -1    0    0  501    0  0.00000000000E+00  0.00000000000E+00  0.28558035743E+02  0.28558035743E+02  0.00000000000E+00 0.  1.
         -1   -1    0    0    0  501 -0.00000000000E+00 -0.00000000000E+00 -0.39900768356E+03  0.39900768356E+03  0.00000000000E+00 0. -1.
          5    1    1    2  502    0 -0.58976730801E+02 -0.27414453248E+02 -0.52152506194E+02  0.83469535312E+02  0.41800000000E+01 0. -1.
         -5    1    1    2    0  502  0.12086013690E+02  0.49851017484E+02 -0.16153840672E+03  0.16953856468E+03  0.41800000000E+01 0. -1.
        -11    1    1    2    0    0  0.26185582059E+02 -0.42782390720E-01 -0.16341509289E+02  0.30866348406E+02  0.00000000000E+00 0.  1.
         11    1    1    2    0    0  0.20705135052E+02 -0.22393781846E+02 -0.14041722561E+03  0.14369127090E+03  0.00000000000E+00 0. -1.
</event>
<event>
 6    1  0.6981059E-006  0.1642243E+03  0.7561462E-02  0.1184008E+00
          2   -1    0    0  501    0  0.00000000000E+00  0.00000000000E+00  0.21064977226E+03  0.21064977226E+03  0.00000000000E+00 0. -1.
         -2   -1    0    0    0  501 -0.00000000000E+00 -0.00000000000E+00 -0.16897355840E+03  0.16897355840E+03  0.00000000000E+00 0.  1.
          5    1    1    2  502    0 -0.13095153177E+03 -0.68048229518E+02 -0.58289648572E+02  0.15872624466E+03  0.41800000000E+01 0.  1.
         -5    1    1    2    0  502  0.12924976362E+02 -0.15963217901E+02  0.28090017951E+02  0.35048549872E+02  0.41800000000E+01 0.  1.
        -11    1    1    2    0    0  0.23378510780E+02  0.56718121871E+02 -0.40463973908E+01  0.61480675392E+02  0.00000000000E+00 0.  1.
         11    1    1    2    0    0  0.94648044629E+02  0.27293325549E+02  0.75922241870E+02  0.12436786073E+03  0.00000000000E+00 0. -1.
</event>
<event>
 6    1  0.6981059E-006  0.8063129E+02  0.7561462E-02  0.1327269E+00
         -1   -1    0    0    0  501 -0.00000000000E+00  0.00000000000E+00  0.90493543932E+02  0.90493543932E+02  0.00000000000E+00 0.  1.
          1   -1    0    0  501    0  0.00000000000E+00 -0.00000000000E+00 -0.16003437683E+03  0.16003437683E+03  0.00000000000E+00 0. -1.
          5    1    1    2  502    0 -0.21512531440E+02  0.19970501104E+02  0.34912872989E+02  0.45803831976E+02  0.41800000000E+01 0.  1.
         -5    1    1    2    0  502  0.67062492510E+02  0.91052839031E+00 -0.62438226567E+02  0.91729011226E+02  0.41800000000E+01 0.  1.
        -11    1    1    2    0    0 -0.41355786375E+02  0.17551272504E+01  0.20633159008E+02  0.46250500419E+02  0.00000000000E+00 0.  1.
         11    1    1    2    0    0 -0.41941746947E+01 -0.22636156745E+02 -0.62648638327E+02  0.66744577141E+02  0.00000000000E+00 0. -1.
</event>
<event>
 6    1  0.6981059E-006  0.1008103E+03  0.7561462E-02  0.1278601E+00
          2   -1    0    0  501    0  0.00000000000E+00  0.00000000000E+00  0.19559173545E+02  0.19559173545E+02  0.00000000000E+00 0. -1.
         -2   -1    0    0    0  501 -0.00000000000E+00 -0.00000000000E+00 -0.10013534469E+04  0.10013534469E+04  0.00000000000E+00 0.  1.
          5    1    1    2  502    0 -0.43236994036E+02 -0.54473575487E+02 -0.73653603442E+03  0.73982404021E+03  0.41800000000E+01 0. -1.
         -5    1    1    2    0  502  0.24350865487E+02 -0.68454146110E+01 -0.29843409580E+02  0.39343688776E+02  0.41800000000E+01 0. -1.
        -11    1    1    2    0    0  0.42036562434E+02  0.69944845207E+02 -0.18737509718E+03  0.20437412017E+03  0.00000000000E+00 0.  1.
         11    1    1    2    0    0 -0.23150433884E+02 -0.86258551088E+01 -0.28039732144E+02  0.37370771253E+02  0.00000000000E+00 0. -1.
</event>
<event>
 6    1  0.6981059E-006  0.1131572E+03  0.7561462E-02  0.1254832E+00
          2   -1    0    0  501    0  0.00000000000E+00  0.00000000000E+00  0.63507348146E+02  0.63507348146E+02  0.00000000000E+00 0.  1.
         -2   -1    0    0    0  501 -0.00000000000E+00 -0.00000000000E+00 -0.43155097554E+03  0.43155097554E+03  0.00000000000E+00 0. -1.
          5    1    1    2  502    0  0.36782684197E+02 -0.42731325355E+02 -0.10236320598E+03  0.11693857517E+03  0.41800000000E+01 0. -1.
         -5    1    1    2    0  502 -0.87707037214E+02 -0.17128200228E+02 -0.23235240938E+03  0.24897994731E+03  0.41800000000E+01 0. -1.
        -11    1    1    2    0    0  0.30546071189E+02  0.23141287458E+02  0.33042108844E+02  0.50600025763E+02  0.00000000000E+00 0.  1.
         11    1    1    2    0    0  0.20378281828E+02  0.36718238125E+02 -0.66370120883E+02  0.78539775447E+02  0.00000000000E+00 0. -1.
</event>
<event>
 6    1  0.6981059E-006  0.1006645E+03  0.7561462E-02  0.1278905E+00
         -4   -1    0    0    0  501 -0.00000000000E+00  0.00000000000E+00  0.51674429987E+03  0.51674429987E+03  0.00000000000E+00 0. -1.
          4   -1    0    0  501    0  0.00000000000E+00 -0.00000000000E+00 -0.22553784282E+02  0.22553784282E+02  0.00000000000E+00 0.  1.
          5    1    1    2  502    0 -0.51968331134E+02  0.20144998715E+02  0.88731692870E+02  0.10486807967E+03  0.41800000000E+01 0. -1.
         -5    1    1    2    0  502  0.60859081766E+02 -0.20535602438E+02  0.19465676291E+03  0.20502260009E+03  0.41800000000E+01 0. -1.
        -11    1    1    2    0    0 -0.23631371926E+02 -0.35285991980E+02  0.58500654453E+02  0.72290175961E+02  0.00000000000E+00 0. -1.
         11    1    1    2    0    0  0.14740621293E+02  0.35676595703E+02  0.15230140536E+03  0.15711722843E+03  0.00000000000E+00 0.  1.
</event>
<event>
 6    1  0.6981059E-006  0.1160429E+03  0.7561462E-02  0.1249771E+00
          1   -1    0    0  501    0  0.00000000000E+00  0.00000000000E+00  0.82111809141E+02  0.82111809141E+02  0.00000000000E+00 0. -1.
         -1   -1    0    0    0  501 -0.00000000000E+00 -0.00000000000E+00 -0.23061231788E+03  0.23061231788E+03  0.00000000000E+00 0.  1.
          5    1    1    2  502    0  0.48632743413E+02  0.61598833964E+02 -0.10347815684E+03  0.12994137686E+03  0.41800000000E+01 0. -1.
         -5    1    1    2    0  502  0.27338626595E+02 -0.50375337171E+02 -0.16936983233E+02  0.59911675825E+02  0.41800000000E+01 0. -1.
        -11    1    1    2    0    0 -0.12568005468E+02 -0.27783331132E+02 -0.45768763324E+02  0.54996799420E+02  0.00000000000E+00 0.  1.
         11    1    1    2    0    0 -0.63403364540E+02  0.16559834339E+02  0.17683394659E+02  0.67874274913E+02  0.00000000000E+00 0. -1.
</event>
<event>
 6    1  0.6981059E-006  0.7885952E+02  0.7561462E-02  0.1332319E+00
         -1   -1    0    0    0  501 -0.00000000000E+00  0.00000000000E+00  0.36392252868E+02  0.36392252868E+02  0.00000000000E+00 0.  1.
          1   -1    0    0  501    0  0.00000000000E+00 -0.00000000000E+00 -0.42065109625E+03  0.42065109625E+03  0.00000000000E+00 0. -1.
          5    1    1    2  502    0  0.15332975527E+02  0.21694054126E+02  0.19034140275E+02  0.32946972834E+02  0.41800000000E+01 0.  1.
         -5    1    1    2    0  502  0.51278932960E+02  0.14256693697E+01 -0.16079994226E+03  0.16883617897E+03  0.41800000000E+01 0.  1.
        -11    1    1    2    0    0 -0.29834769054E+02  0.83206847352E+01 -0.83064886436E+02  0.88651692581E+02  0.00000000000E+00 0.  1.
         11    1    1    2    0    0 -0.36777139432E+02 -0.31440408231E+02 -0.15942815495E+03  0.16660850473E+03  0.00000000000E+00 0. -1.
</event>
<event>
 6    1  0.6981059E-006  0.2536587E+03  0.7561462E-02  0.1111014E+00
         -2   -1    0    0    0  501 -0.00000000000E+00  0.00000000000E+00  0.18279916234E+04  0.18279916234E+04  0.00000000000E+00 0.  1.
          2   -1    0    0  501    0  0.00000000000E+00 -0.00000000000E+00 -0.40689995413E+02  0.40689995413E+02  0.00000000000E+00 0. -1.
          5    1    1    2  502    0  0.14928059902E+03  0.30481607869E+01  0.48606689369E+03  0.50850023212E+03  0.41800000000E+01 0. -1.
         -5    1    1    2    0  502  0.80103853232E+02 -0.81305783083E+02  0.64121859231E+03  0.65131099575E+03  0.41800000000E+01 0. -1.
        -11    1    1    2    0    0 -0.72073816628E+02  0.12121289763E+02  0.10296438229E+03  0.12626648300E+03  0.00000000000E+00 0. -1.
         11    1    1    2    0    0 -0.15731063562E+03  0.66136332534E+02  0.55705175970E+03  0.58260390794E+03  0.00000000000E+00 0.  1.
</event>
<event>
 6    1  0.6981059E-006  0.1002346E+03  0.7561462E-02  0.1279803E+00
         -3   -1    0    0    0  501 -0.00000000000E+00  0.00000000000E+00  0.96279915543E+02  0.96279915543E+02  0.00000000000E+00 0.  1.
          3   -1    0    0  501    0  0.00000000000E+00 -0.00000000000E+00 -0.15790659907E+03  0.15790659907E+03  0.00000000000E+00 0. -1.
          5    1    1    2  502    0  0.41655087143E+02  0.32930871671E+02  0.11595851786E+02  0.54511693906E+02  0.41800000000E+01 0.  1.
         -5    1    1    2    0  502 -0.78599354217E+02 -0.62123875222E+00 -0.13563872205E+02  0.79872995751E+02  0.41800000000E+01 0.  1.
        -11    1    1    2    0    0  0.17772816784E+02 -0.43009510989E+02  0.92784798295E+01  0.47452937105E+02  0.00000000000E+00 0.  1.
         11    1    1    2    0    0  0.19171450290E+02  0.10699878071E+02 -0.68937142936E+02  0.72348887850E+02  0.00000000000E+00 0. -1.
</event>
<event>
 6    1  0.6981059E-006  0.1412753E+03  0.7561462E-02  0.1211623E+00
         -1   -1    0    0    0  501 -0.00000000000E+00  0.00000000000E+00  0.32144089659E+03  0.32144089659E+03  0.00000000000E+00 0.  1.
          1   -1    0    0  501    0  0.00000000000E+00 -0.00000000000E+00 -0.11605925899E+03  0.11605925899E+03  0.00000000000E+00 0. -1.
          5    1    1    2  502    0 -0.97809122889E+02 -0.15970535129E+02  0.21677297086E+03  0.23838975609E+03  0.41800000000E+01 0.  1.
         -5    1    1    2    0  502 -0.31828342184E+02  0.24944340462E+02 -0.36464838170E+01  0.40817064219E+02  0.41800000000E+01 0.  1.
        -11    1    1    2    0    0  0.99387489908E+02  0.19361671727E+02  0.26344987330E+02  0.10462698428E+03  0.00000000000E+00 0.  1.
         11    1    1    2    0    0  0.30249975165E+02 -0.28335477059E+02 -0.34089836767E+02  0.53666350989E+02  0.00000000000E+00 0. -1.
</event>
<event>
 6    1  0.6981059E-006  0.8336998E+02  0.7561462E-02  0.1319751E+00
          1   -1    0    0  501    0  0.00000000000E+00  0.00000000000E+00  0.36361643846E+03  0.36361643846E+03  0.00000000000E+00 0. -1.
         -1   -1    0    0    0  501 -0.00000000000E+00 -0.00000000000E+00 -0.41440568315E+02  0.41440568315E+02  0.00000000000E+00 0.  1.
          5    1    1    2  502    0  0.17520161674E+02 -0.40541687228E+02  0.12674148211E+03  0.13428127254E+03  0.41800000000E+01 0.  1.
         -5    1    1    2    0  502 -0.24930311847E+02  0.57989085748E+01 -0.21018762552E+02  0.33382758554E+02  0.41800000000E+01 0.  1.
        -11    1    1    2    0    0 -0.36516622368E+02 -0.54270045070E+01  0.66549617489E+02  0.76103664005E+02  0.00000000000E+00 0.  1.
         11    1    1    2    0    0  0.43926772541E+02  0.40169783160E+02  0.14990353310E+03  0.16128931168E+03  0.00000000000E+00 0. -1.
</event>
<event>
 6    1  0.6981059E-006  0.1684078E+03  0.7561462E-02  0.1179518E+00
          1   -1    0    0  501    0  0.00000000000E+00  0.00000000000E+00  0.26964085491E+03  0.26964085491E+03  0.00000000000E+00 0. -1.
         -1   -1    0    0    0  501 -0.00000000000E+00 -0.00000000000E+00 -0.22858872653E+03  0.22858872653E+03  0.00000000000E+00 0.  1.
          5    1    1    2  502    0 -0.16170025921E+02  0.15953418841E+02 -0.44518384366E+00  0.23100906901E+02  0.41800000000E+01 0. -1.
         -5    1    1    2    0  502  0.10401751621E+02 -0.16448050142E+03 -0.14540271978E+03  0.21982141639E+03  0.41800000000E+01 0. -1.
        -11    1    1    2    0    0 -0.18241681904E+01  0.51889356530E+02  0.89771823724E+01  0.52691770838E+02  0.00000000000E+00 0.  1.
         11    1    1    2    0    0  0.75924424906E+01  0.96637726052E+02  0.17792284963E+03  0.20261548731E+03  0.00000000000E+00 0. -1.
</event>
<event>
 6    1  0.6981059E-006  0.2616482E+03  0.7561462E-02  0.1106157E+00
          2   -1    0    0  501    0  0.00000000000E+00  0.00000000000E+00  0.80183915835E+02  0.80183915835E+02  0.00000000000E+00 0. -1.
         -2   -1    0    0    0  501 -0.00000000000E+00 -0.00000000000E+00 -0.96274430184E+03  0.96274430184E+03  0.00000000000E+00 0.  1.
          5    1    1    2  502    0 -0.75266396680E+02  0.84660359734E+02 -0.10228399115E+03  0.15268233108E+03  0.41800000000E+01 0.  1.
         -5    1    1    2    0  502 -0.33041911536E+02  0.14695840364E+03 -0.35922680644E+03  0.38955090962E+03  0.41800000000E+01 0.  1.
        -11    1    1    2    0    0  0.47048171234E+02 -0.55352726510E+02 -0.59793323440E+02  0.94088768068E+02  0.00000000000E+00 0.  1.
         11    1    1    2    0    0  0.61260136982E+02 -0.17626603687E+03 -0.36125626498E+03  0.40660620891E+03  0.00000000000E+00 0. -1.
</event>
<event>
 6    1  0.6981059E-006  0.1077128E+03  0.7561462E-02  0.1264865E+00
          2   -1    0    0  501    0  0.00000000000E+00  0.00000000000E+00  0.20804361551E+03  0.20804361551E+03  0.00000000000E+00 0. -1.
         -2   -1    0    0    0  501 -0.00000000000E+00 -0.00000000000E+00 -0.90695908211E+02  0.90695908211E+02  0.00000000000E+00 0.  1.
          5    1    1    2  502    0  0.12965110965E+02  0.49638491091E+02  0.16290598660E+02  0.53990090802E+02  0.41800000000E+01 0.  1.
         -5    1    1    2    0  502 -0.20338324780E+02 -0.59792522458E+02 -0.37334491668E+02  0.73485575896E+02  0.41800000000E+01 0.  1.
        -11    1    1    2    0    0  0.35902721932E+01  0.55267997279E+02  0.81922106319E+02  0.98887173493E+02  0.00000000000E+00 0.  1.
         11    1    1    2    0    0  0.37829416215E+01 -0.45113965912E+02  0.56469493991E+02  0.72376683533E+02  0.00000000000E+00 0. -1.
</event>
<event>
 6    1  0.6981059E-006  0.1580766E+03  0.7561462E-02  0.1190885E+00
         -2   -1    0    0    0  501 -0.00000000000E+00  0.00000000000E+00  0.10048247672E+03  0.10048247672E+03  0.00000000000E+00 0. -1.
          2   -1    0    0  501    0  0.00000000000E+00 -0.00000000000E+00 -0.33577530731E+03  0.33577530731E+03  0.00000000000E+00 0.  1.
          5    1    1    2  502    0  0.10437103702E+03  0.23691479658E+02 -0.27667632950E+02  0.11062355034E+03  0.41800000000E+01 0.  1.
         -5    1    1    2    0  502  0.39955726430E+02 -0.13905611091E+02 -0.13146012363E+03  0.13816317382E+03  0.41800000000E+01 0.  1.
        -11    1    1    2    0    0 -0.11288845337E+03 -0.42999119412E+02 -0.74048183421E+02  0.14168931026E+03  0.00000000000E+00 0.  1.
         11    1    1    2    0    0 -0.31438310076E+02  0.33213250845E+02 -0.21168905943E+01  0.45781749616E+02  0.00000000000E+00 0. -1.
</event>
<event>
 6    1  0.6981059E-006  0.1864234E+03  0.7561462E-02  0.1161727E+00
          2   -1    0    0  501    0  0.00000000000E+00  0.00000000000E+00  0.65500794669E+02  0.65500794669E+02  0.00000000000E+00 0. -1.
         -2   -1    0    0    0  501 -0.00000000000E+00 -0.00000000000E+00 -0.56841626628E+03  0.56841626628E+03  0.00000000000E+00 0.  1.
          5    1    1    2  502    0  0.17568207048E+02  0.13157798225E+02 -0.25257721719E+02  0.33722313969E+02  0.41800000000E+01 0.  1.
         -5    1    1    2    0  502 -0.14791320777E+03 -0.94632578625E+02 -0.16353636262E+03  0.23999011702E+03  0.41800000000E+01 0.  1.
        -11    1    1    2    0    0  0.15057320500E+01  0.39246121662E+02 -0.91075345242E+02  0.99182880607E+02  0.00000000000E+00 0.  1.
         11    1    1    2    0    0  0.12883926867E+03  0.42228658738E+02 -0.22304604203E+03  0.26102174935E+03  0.00000000000E+00 0. -1.
</event>
<event>
 6    1  0.6981059E-006  0.1048421E+03  0.7561462E-02  0.1270431E+00
         -1   -1    0    0    0  501 -0.00000000000E+00  0.00000000000E+00  0.84987762836E+02  0.84987762836E+02  0.00000000000E+00 0.  1.
          1   -1    0    0  501    0  0.00000000000E+00 -0.00000000000E+00 -0.16611162068E+03  0.16611162068E+03  0.00000000000E+00 0. -1.
          5    1    1    2  502    0 -0.78761496668E+01  0.23576110335E+02  0.25327584147E+02  0.35732696943E+02  0.41800000000E+01 0. -1.
         -5    1    1    2    0  502  0.13821140224E+02 -0.80108677063E+02 -0.50725569741E+02  0.95911312593E+02  0.41800000000E+01 0.  1.
        -11    1    1    2    0    0  0.25419745537E+02  0.65663257314E+02 -0.49831097384E+02  0.86261028806E+02  0.00000000000E+00 0. -1.
         11    1    1    2    0    0 -0.31364736094E+02 -0.91306905862E+01 -0.58947748688E+01  0.33194345175E+02  0.00000000000E+00 0.  1.
</event>
<event>
 6    1  0.6981059E-006  0.1370690E+03  0.7561462E-02  0.1217328E+00
         -3   -1    0    0    0  501 -0.00000000000E+00  0.00000000000E+00  0.17590824838E+03  0.17590824838E+03  0.00000000000E+00 0.  1.
          3   -1    0    0  501    0  0.00000000000E+00 -0.00000000000E+00 -0.15174680434E+03  0.15174680434E+03  0.00000000000E+00 0. -1.
          5    1    1    2  502    0 -0.24906600217E+02  0.11309483737E+03  0.84719216948E+02  0.14354650499E+03  0.41800000000E+01 0.  1.
         -5    1    1    2    0  502 -0.17040038246E+02 -0.73142823733E+01 -0.28851999071E+02  0.34551004045E+02  0.41800000000E+01 0.  1.
        -11    1    1    2    0    0  0.59023867333E+02 -0.40032105428E+02  0.65104522826E+01  0.71615447837E+02  0.00000000000E+00 0.  1.
         11    1    1    2    0    0 -0.17077228869E+02 -0.65748449568E+02 -0.38216226116E+02  0.77942095847E+02  0.00000000000E+00 0. -1.
</event>
<event>
 6    1  0.6981059E-006  0.1501928E+03  0.7561462E-02  0.1200236E+00
         -2   -1    0    0    0  501 -0.00000000000E+00  0.00000000000E+00  0.63429217561E+02  0.63429217561E+02  0.00000000000E+00 0.  1.
          2   -1    0    0  501    0  0.00000000000E+00 -0.00000000000E+00 -0.59280637185E+03  0.59280637185E+03  0.00000000000E+00 0. -1.
          5    1    1    2  502    0  0.19929534818E+02  0.12688115725E+03 -0.10178831748E+03  0.16393397573E+03  0.41800000000E+01 0.  1.
         -5    1    1    2    0  502 -0.43465796262E+02 -0.42201662534E+01 -0.92974258767E+01  0.44844172150E+02  0.41800000000E+01 0.  1.
        -11    1    1    2    0    0  0.25971650682E+02 -0.60959300292E+02 -0.81428761394E+02  0.10498193232E+03  0.00000000000E+00 0.  1.
         11    1    1    2    0    0 -0.24353892382E+01 -0.61701690704E+02 -0.33686264954E+03  0.34247550921E+03  0.00000000000E+00 0. -1.
</event>
<event>
 6    1  0.6981059E-006  0.1283386E+03  0.7561462E-02  0.1229942E+00
          1   -1    0    0  501    0  0.00000000000E+00  0.00000000000E+00  0.62993129850E+02  0.62993129850E+02  0.00000000000E+00 0. -1.
         -1   -1    0    0    0  501 -0.00000000000E+00 -0.00000000000E+00 -0.33612602719E+03  0.33612602719E+03  0.00000000000E+00 0.  1.
          5    1    1    2  502    0 -0.29894076781E+02  0.90740429821E+01 -0.72471188983E+02  0.79028727152E+02  0.41800000000E+01 0. -1.
         -5    1    1    2    0  502  0.25713000403E+02 -0.10254556260E+03 -0.38511717044E+02  0.11259385218E+03  0.41800000000E+01 0. -1.
        -11    1    1    2    0    0  0.38950131375E+02  0.42434696939E+02 -0.38498253733E+02  0.69281539957E+02  0.00000000000E+00 0. -1.
         11    1    1    2    0    0 -0.34769054996E+02  0.51036822678E+02 -0.12365173758E+03  0.13821503775E+03  0.00000000000E+00 0.  1.
</event>
<event>
 6    1  0.6981059E-006  0.1034947E+03  0.7561462E-02  0.1273114E+00
         -1   -1    0    0    0  501 -0.00000000000E+00  0.00000000000E+00  0.64656877182E+02  0.64656877182E+02  0.00000000000E+00 0.  1.
          1   -1    0    0  501    0  0.00000000000E+00 -0.00000000000E+00 -0.20291400841E+03  0.20291400841E+03  0.00000000000E+00 0. -1.
          5    1    1    2  502    0 -0.51323262896E+02  0.52067448089E+02 -0.81472204718E+02  0.10954583062E+03  0.41800000000E+01 0. -1.
         -5    1    1    2    0  502  0.25290996201E+02 -0.28968064288E+02  0.82077820172E+01  0.39542677238E+02  0.41800000000E+01 0. -1.
        -11    1    1    2    0    0 -0.32107438428E+02 -0.17765200445E+02 -0.94336254779E+01  0.37887771628E+02  0.00000000000E+00 0.  1.
         11    1    1    2    0    0  0.58139705123E+02 -0.53341833553E+01 -0.55559083045E+02  0.80594606102E+02  0.00000000000E+00 0. -1.
</event>
<event>
 6    1  0.6981059E-006  0.8487072E+02  0.7561462E-02  0.1315771E+00
          2   -1    0    0  501    0  0.00000000000E+00  0.00000000000E+00  0.14986560490E+03  0.14986560490E+03  0.00000000000E+00 0. -1.
         -2   -1    0    0    0  501 -0.00000000000E+00 -0.00000000000E+00 -0.61186015880E+02  0.61186015880E+02  0.00000000000E+00 0.  1.
          5    1    1    2  502    0  0.57639640076E+02 -0.16432293976E+02  0.15732097679E+02  0.62107323970E+02  0.41800000000E+01 0.  1.
         -5    1    1    2    0  502 -0.55536377242E+02  0.35803046501E+02  0.27127767061E+02  0.71550929286E+02  0.41800000000E+01 0.  1.
        -11    1    1    2    0    0  0.49680156261E+01  0.11104875893E+02 -0.84078947387E+01  0.14788243364E+02  0.00000000000E+00 0.  1.
         11    1    1    2    0    0 -0.70712784600E+01 -0.30475628419E+02  0.54227619017E+02  0.62605124158E+02  0.00000000000E+00 0. -1.
</event>
<event>
 6    1  0.6981059E-006  0.6312046E+02  0.7561462E-02  0.1385184E+00
          2   -1    0    0  501    0  0.00000000000E+00  0.00000000000E+00  0.10118735124E+03  0.10118735124E+03  0.00000000000E+00 0. -1.
         -2   -1    0    0    0  501 -0.00000000000E+00 -0.00000000000E+00 -0.13183251227E+03  0.13183251227E+03  0.00000000000E+00 0.  1.
          5    1    1    2  502    0 -0.21976035430E+02 -0.17915304425E+02  0.35630737198E+02  0.45726645395E+02  0.41800000000E+01 0.  1.
         -5    1    1    2    0  502  0.29753811921E+02  0.45226196499E+02 -0.67163524538E+02  0.86366136894E+02  0.41800000000E+01 0.  1.
        -11    1    1    2    0    0 -0.11423209679E+02  0.37401282222E+01 -0.44342795722E+02  0.45943027881E+02  0.00000000000E+00 0.  1.
         11    1    1    2    0    0  0.36454331879E+01 -0.31051020296E+02  0.45230422032E+02  0.54984053341E+02  0.00000000000E+00 0. -1.
</event>
<event>
 6    1  0.6981059E-006  0.1658400E+03  0.7561462E-02  0.1182257E+00
          2   -1    0    0  501    0  0.00000000000E+00  0.00000000000E+00  0.59841564611E+03  0.59841564611E+03  0.00000000000E+00 0. -1.
         -2   -1    0    0    0  501 -0.00000000000E+00 -0.00000000000E+00 -0.63571196729E+02  0.63571196729E+02  0.00000000000E+00 0.  1.
          5    1    1    2  502    0 -0.97923615180E+02 -0.11530569634E+03  0.93552348916E+02  0.17791557662E+03  0.41800000000E+01 0.  1.
         -5    1    1    2    0  502  0.27513989347E+02 -0.15448845326E+02  0.66474337273E+02  0.73702078313E+02  0.41800000000E+01 0.  1.
        -11    1    1    2    0    0  0.39186711824E+02  0.71033736240E+02  0.10743158257E+03  0.13462145075E+03  0.00000000000E+00 0.  1.
         11    1    1    2    0    0  0.31222914008E+02  0.59720805421E+02  0.26738618062E+03  0.27574773715E+03  0.00000000000E+00 0. -1.
</event>
<event>
 6    1  0.6981059E-006  0.1262508E+03  0.7561462E-02  0.1233127E+00
          2   -1    0    0  501    0  0.00000000000E+00  0.00000000000E+00  0.34826679923E+02  0.34826679923E+02  0.00000000000E+00 0. -1.
         -2   -1    0    0    0  501 -0.00000000000E+00 -0.00000000000E+00 -0.73815094309E+03  0.73815094309E+03  0.00000000000E+00 0.  1.
          5    1    1    2  502    0  0.61013554340E+02 -0.30900392160E+02 -0.44457749798E+03  0.44982675794E+03  0.41800000000E+01 0. -1.
         -5    1    1    2    0  502  0.12875729910E+02 -0.47610180233E+02 -0.45161852715E+02  0.67004320929E+02  0.41800000000E+01 0. -1.
        -11    1    1    2    0    0 -0.67876261945E+02  0.13511731884E+02 -0.14915096415E+03  0.16442555745E+03  0.00000000000E+00 0. -1.
         11    1    1    2    0    0 -0.60130223041E+01  0.64998840508E+02 -0.64433948320E+02  0.91720986697E+02  0.00000000000E+00 0.  1.
</event>
<event>
 6    1  0.6981059E-006  0.1051443E+03  0.7561462E-02  0.1269836E+00
         -2   -1    0    0    0  501 -0.00000000000E+00  0.00000000000E+00  0.25722143942E+02  0.25722143942E+02  0.00000000000E+00 0.  1.
          2   -1    0    0  501    0  0.00000000000E+00 -0.00000000000E+00 -0.50219068885E+03  0.50219068885E+03  0.00000000000E+00 0. -1.
          5    1    1    2  502    0 -0.59516020967E+02  0.19823151048E+02 -0.90709088289E+02  0.11036632261E+03  0.41800000000E+01 0. -1.
         -5    1    1    2    0  502  0.64992248317E+02  0.11272581460E+02 -0.10196120357E+03  0.12150976449E+03  0.41800000000E+01 0. -1.
        -11    1    1    2    0    0 -0.26370720754E+02 -0.47787622959E+02 -0.22360371765E+03  0.23016883883E+03  0.00000000000E+00 0. -1.
         11    1    1    2    0    0  0.20894493405E+02  0.16691890451E+02 -0.60194535403E+02  0.65867906858E+02  0.00000000000E+00 0.  1.
</event>
<event>
 6    1  0.6981059E-006  0.1110219E+03  0.7561462E-02  0.1258689E+00
         -2   -1    0    0    0  501 -0.00000000000E+00  0.00000000000E+00  0.62982211317E+03  0.62982211317E+03  0.00000000000E+00 0.  1.
          2   -1    0    0  501    0  0.00000000000E+00 -0.00000000000E+00 -0.33943829574E+02  0.33943829574E+02  0.00000000000E+00 0. -1.
          5    1    1    2  502    0  0.39984199265E+01 -0.26454404057E+02  0.23050672977E+02  0.35561619488E+02  0.41800000000E+01 0. -1.
         -5    1    1    2    0  502 -0.86290457540E+02  0.24089871199E+02  0.43307690050E+03  0.44226625363E+03  0.41800000000E+01 0.  1.
        -11    1    1    2    0    0  0.50133389434E+02 -0.30994835637E+02  0.12348420436E+03  0.13682976759E+03  0.00000000000E+00 0. -1.
         11    1    1    2    0    0  0.32158648180E+02  0.33359368495E+02  0.16266505762E+02  0.49108302036E+02  0.00000000000E+00 0.  1.
</event>
<event>
 6    1  0.6981059E-006  0.1174391E+03  0.7561462E-02  0.1247383E+00
          1   -1    0    0  501    0  0.00000000000E+00  0.00000000000E+00  0.68258218378E+02  0.68258218378E+02  0.00000000000E+00 0. -1.
         -1   -1    0    0    0  501 -0.00000000000E+00 -0.00000000000E+00 -0.29103742057E+03  0.29103742057E+03  0.00000000000E+00 0.  1.
          5    1    1    2  502    0  0.38385639474E+02 -0.17489207323E-01 -0.18117031055E+02  0.42651574859E+02  0.41800000000E+01 0. -1.
         -5    1    1    2    0  502 -0.63154994936E+02  0.58896284416E+02 -0.18609085524E+03  0.20519406548E+03  0.41800000000E+01 0. -1.
        -11    1    1    2    0    0 -0.17002643165E+01 -0.77453411848E+02 -0.15072260349E+02  0.78924615537E+02  0.00000000000E+00 0.  1.
         11    1    1    2    0    0  0.26469619779E+02  0.18574616639E+02 -0.34990555500E+01  0.32525383076E+02  0.00000000000E+00 0. -1.
</event>
<event>
 6    1  0.6981059E-006  0.2635139E+03  0.7561462E-02  0.1105050E+00
         -2   -1    0    0    0  501 -0.00000000000E+00  0.00000000000E+00  0.12026389859E+03  0.12026389859E+03  0.00000000000E+00 0.  1.
          2   -1    0    0  501    0  0.00000000000E+00 -0.00000000000E+00 -0.66385385450E+03  0.66385385450E+03  0.00000000000E+00 0. -1.
          5    1    1    2  502    0  0.43519943300E+02 -0.14086403207E+03 -0.16394467612E+03  0.22052662021E+03  0.41800000000E+01 0.  1.
         -5    1    1    2    0  502  0.10256116201E+03 -0.68487679860E+02 -0.41372477012E+02  0.13014802534E+03  0.41800000000E+01 0.  1.
        -11    1    1    2    0    0 -0.94835361875E+02  0.11791414109E+03 -0.26631337505E+03  0.30630100271E+03  0.00000000000E+00 0. -1.
         11    1    1    2    0    0 -0.51245743435E+02  0.91437570833E+02 -0.71959427741E+02  0.12714210483E+03  0.00000000000E+00 0.  1.
</event>
<event>
 6    1  0.6981059E-006  0.1983314E+03  0.7561462E-02  0.1151154E+00
         -2   -1    0    0    0  501 -0.00000000000E+00  0.00000000000E+00  0.21210410744E+03  0.21210410744E+03  0.00000000000E+00 0.  1.
          2   -1    0    0  501    0  0.00000000000E+00 -0.00000000000E+00 -0.58628497240E+03  0.58628497240E+03  0.00000000000E+00 0. -1.
          5    1    1    2  502    0 -0.19076383053E+02  0.25064538857E+01  0.72810135601E+02  0.75425320336E+02  0.41800000000E+01 0. -1.
         -5    1    1    2    0  502 -0.12997079507E+03 -0.11710632309E+03  0.51806697620E+02  0.18250398570E+03  0.41800000000E+01 0. -1.
        -11    1    1    2    0    0  0.71918847261E+02  0.10048175560E+03 -0.23851353918E+03  0.26862168969E+03  0.00000000000E+00 0. -1.
         11    1    1    2    0    0  0.77128330858E+02  0.14118113596E+02 -0.26028415900E+03  0.27183808412E+03  0.00000000000E+00 0.  1.
</event>
<event>
 6    1  0.6981059E-006  0.1024305E+03  0.7561462E-02  0.1275266E+00
         -2   -1    0    0    0  501 -0.00000000000E+00  0.00000000000E+00  0.11439063419E+03  0.11439063419E+03  0.00000000000E+00 0.  1.
          2   -1    0    0  501    0  0.00000000000E+00 -0.00000000000E+00 -0.20843115605E+03  0.20843115605E+03  0.00000000000E+00 0. -1.
          5    1    1    2  502    0 -0.24502357789E+02 -0.39201734107E+02  0.34956969723E+02  0.58108550372E+02  0.41800000000E+01 0. -1.
         -5    1    1    2    0  502  0.17819276762E+02  0.80260490212E+02  0.19990671089E+02  0.84713471443E+02  0.41800000000E+01 0. -1.
        -11    1    1    2    0    0  0.90971387989E+01  0.16324494653E+02 -0.10758990648E+03  0.10920089302E+03  0.00000000000E+00 0. -1.
         11    1    1    2    0    0 -0.24140577722E+01 -0.57383250758E+02 -0.41398256187E+02  0.70798875400E+02  0.00000000000E+00 0.  1.
</event>
<event>
 6    1  0.6981059E-006  0.1108211E+03  0.7561462E-02  0.1259057E+00
         -1   -1    0    0    0  501 -0.00000000000E+00  0.00000000000E+00  0.95395307349E+01  0.95395307349E+01  0.00000000000E+00 0.  1.
          1   -1    0    0  501    0  0.00000000000E+00 -0.00000000000E+00 -0.13979220034E+04  0.13979220034E+04  0.00000000000E+00 0. -1.
          5    1    1    2  502    0  0.20390125154E+02 -0.40573468405E+02 -0.47968396342E+03  0.48184659458E+03  0.41800000000E+01 0. -1.
         -5    1    1    2    0  502 -0.45316175837E+02  0.60513605804E+02 -0.37918252093E+03  0.38666821548E+03  0.41800000000E+01 0. -1.
        -11    1    1    2    0    0 -0.12864685011E+02 -0.50256657624E+02 -0.26480948449E+03  0.26984309298E+03  0.00000000000E+00 0.  1.
         11    1    1    2    0    0  0.37790735694E+02  0.30316520225E+02 -0.26470650381E+03  0.26910363108E+03  0.00000000000E+00 0. -1.
</event>
<event>
 6    1  0.6981059E-006  0.1102461E+03  0.7561462E-02  0.1260115E+00
         -4   -1    0    0    0  501 -0.00000000000E+00  0.00000000000E+00  0.14257335221E+03  0.14257335221E+03  0.00000000000E+00 0.  1.
          4   -1    0    0  501    0  0.00000000000E+00 -0.00000000000E+00 -0.10916756255E+03  0.10916756255E+03  0.00000000000E+00 0. -1.
          5    1    1    2  502    0 -0.17063436296E+02  0.39640524136E+02 -0.14482918847E+02  0.45713885750E+02  0.41800000000E+01 0. -1.
         -5    1    1    2    0  502 -0.27198885319E+02 -0.75033542765E+02  0.56580212093E+02  0.97921421063E+02  0.41800000000E+01 0. -1.
        -11    1    1    2    0    0  0.56467599047E+02  0.51891844471E+02  0.13510950704E+02  0.77871041174E+02  0.00000000000E+00 0.  1.
         11    1    1    2    0    0 -0.12205277432E+02 -0.16498825842E+02 -0.22202454285E+02  0.30234566768E+02  0.00000000000E+00 0. -1.
</event>
<event>
 6    1  0.6981059E-006  0.1354826E+03  0.7561462E-02  0.1219540E+00
         -2   -1    0    0    0  501 -0.00000000000E+00  0.00000000000E+00  0.16067960852E+03  0.16067960852E+03  0.00000000000E+00 0.  1.
          2   -1    0    0  501    0  0.00000000000E+00 -0.00000000000E+00 -0.12990915622E+03  0.12990915622E+03  0.00000000000E+00 0. -1.
          5    1    1    2  502    0 -0.37176333445E+02  0.24053261125E+01 -0.75316444664E+00  0.37495399968E+02  0.41800000000E+01 0.  1.
         -5    1    1    2    0  502  0.86796857004E+02  0.65934327613E+02  0.61304543228E+02  0.12512693301E+03  0.41800000000E+01 0.  1.
        -11    1    1    2    0    0 -0.27399498837E+01  0.22238127029E+02 -0.39005960901E+01  0.22743268652E+02  0.00000000000E+00 0. -1.
         11    1    1    2    0    0 -0.46880573675E+02 -0.90577780754E+02 -0.25880330388E+02  0.10522316311E+03  0.00000000000E+00 0.  1.
</event>
<event>
 6    1  0.6981059E-006  0.6488584E+02  0.7561462E-02  0.1378401E+00
         -3   -1    0    0    0  501 -0.00000000000E+00  0.00000000000E+00  0.69512993940E+03  0.69512993940E+03  0.00000000000E+00 0.  1.
          3   -1    0    0  501    0  0.00000000000E+00 -0.00000000000E+00 -0.20278862664E+02  0.20278862664E+02  0.00000000000E+00 0. -1.
          5    1    1    2  502    0  0.15933260891E+02  0.74746027464E+01  0.10444869108E+01  0.18119101571E+02  0.41800000000E+01 0.  1.
         -5    1    1    2    0  502  0.15524715628E+02  0.13131288724E+02  0.47695633589E+03  0.47740786156E+03  0.41800000000E+01 0.  1.
        -11    1    1    2    0    0 -0.58803998112E+02 -0.23706727337E+02  0.93787791378E+02  0.11320807801E+03  0.00000000000E+00 0. -1.
         11    1    1    2    0    0  0.27346021593E+02  0.31008358670E+01  0.10306246256E+03  0.10667376092E+03  0.00000000000E+00 0.  1.
</event>
<event>
 6    1  0.6981059E-006  0.1996323E+03  0.7561462E-02  0.1150050E+00
          4   -1    0    0  501    0  0.00000000000E+00  0.00000000000E+00  0.66974798417E+02  0.66974798417E+02  0.00000000000E+00 0. -1.
         -4   -1    0    0    0  501 -0.00000000000E+00 -0.00000000000E+00 -0.69559867389E+03  0.69559867389E+03  0.00000000000E+00 0.  1.
          5    1    1    2  502    0 -0.29415971602E+02  0.80874319030E+02 -0.27029083672E+03  0.28369096510E+03  0.41800000000E+01 0.  1.
         -5    1    1    2    0  502  0.75747858441E+02  0.82654030630E+02 -0.15820752879E+03  0.19394979093E+03  0.41800000000E+01 0.  1.
        -11    1    1    2    0    0 -0.66887911579E+02 -0.44999873032E+02 -0.61555125016E+02  0.10142985115E+03  0.00000000000E+00 0. -1.
         11    1    1    2    0    0  0.20556024740E+02 -0.11852847663E+03 -0.13857038496E+03  0.18350286513E+03  0.00000000000E+00 0.  1.
</event>
<event>
 6    1  0.6981059E-006  0.2425914E+03  0.7561462E-02  0.1118078E+00
          2   -1    0    0  501    0  0.00000000000E+00  0.00000000000E+00  0.89588030256E+03  0.89588030256E+03  0.00000000000E+00 0. -1.
         -2   -1    0    0    0  501 -0.00000000000E+00 -0.00000000000E+00 -0.92303481667E+02  0.92303481667E+02  0.00000000000E+00 0.  1.
          5    1    1    2  502    0 -0.17426440802E+01 -0.22603089592E+02 -0.46536908780E+01  0.23517349049E+02  0.41800000000E+01 0.  1.
         -5    1    1    2    0  502 -0.22815119956E+03  0.18149797656E+02  0.18559945088E+03  0.29469817370E+03  0.41800000000E+01 0.  1.
        -11    1    1    2    0    0  0.15635029353E+03 -0.15224170276E+02  0.51287432029E+03  0.53639282067E+03  0.00000000000E+00 0. -1.
         11    1    1    2    0    0  0.73543550110E+02  0.19677462212E+02  0.10975674060E+03  0.13357544081E+03  0.00000000000E+00 0.  1.
</event>
<event>
 6    1  0.6981059E-006  0.1010738E+03  0.7561462E-02  0.1278054E+00
         -2   -1    0    0    0  501 -0.00000000000E+00  0.00000000000E+00  0.12198629106E+04  0.12198629106E+04  0.00000000000E+00 0. -1.
          2   -1    0    0  501    0  0.00000000000E+00 -0.00000000000E+00 -0.13577604657E+02  0.13577604657E+02  0.00000000000E+00 0.  1.
          5    1    1    2  502    0  0.49195238521E+02  0.24958860939E+01  0.63739771844E+03  0.63931191512E+03  0.41800000000E+01 0.  1.
         -5    1    1    2    0  502 -0.22256170992E+02  0.55306733915E+02  0.16988883745E+03  0.18009403503E+03  0.41800000000E+01 0.  1.
        -11    1    1    2    0    0 -0.23447306302E+02 -0.73354027652E+02  0.38559242627E+03  0.39320746272E+03  0.00000000000E+00 0.  1.
         11    1    1    2    0    0 -0.34917612279E+01  0.15551407643E+02  0.13406323775E+02  0.20827102375E+02  0.00000000000E+00 0. -1.
</event>
<event>
 6    1  0.6981059E-006  0.1016127E+03  0.7561462E-02  0.1276941E+00
         -2   -1    0    0    0  501 -0.00000000000E+00  0.00000000000E+00  0.16466277071E+03  0.16466277071E+03  0.00000000000E+00 0.  1.
          2   -1    0    0  501    0  0.00000000000E+00 -0.00000000000E+00 -0.95655345207E+02  0.95655345207E+02  0.00000000000E+00 0. -1.
          5    1    1    2  502    0  0.80129843704E+02 -0.18957406847E+02  0.29546098144E+02  0.87582072606E+02  0.41800000000E+01 0. -1.
         -5    1    1    2    0  502 -0.47798589963E+02  0.98939488734E+00  0.16450919058E+02  0.50732526475E+02  0.41800000000E+01 0. -1.
        -11    1    1    2    0    0  0.16856940172E+02 -0.62260616112E+01 -0.36751163291E+02  0.40909268857E+02  0.00000000000E+00 0. -1.
         11    1    1    2    0    0 -0.49188193913E+02  0.24194073571E+02  0.59761571592E+02  0.81094247981E+02  0.00000000000E+00 0.  1.
</event>
<event>
 6    1  0.6981059E-006  0.7440500E+02  0.7561462E-02  0.1345724E+00
         -1   -1    0    0    0  501 -0.00000000000E+00  0.00000000000E+00  0.19596216221E+02  0.19596216221E+02  0.00000000000E+00 0.  1.
          1   -1    0    0  501    0  0.00000000000E+00 -0.00000000000E+00 -0.69384486804E+03  0.69384486804E+03  0.00000000000E+00 0. -1.
          5    1    1    2  502    0 -0.23036231481E+02  0.24919028822E+02 -0.40540919827E+03  0.40684851776E+03  0.41800000000E+01 0.  1.
         -5    1    1    2    0  502 -0.14592418059E+02 -0.49495127780E+01  0.33920121984E+01  0.16322208438E+02  0.41800000000E+01 0.  1.
        -11    1    1    2    0    0  0.78986729703E+01 -0.53361566919E+02 -0.17755230627E+03  0.18556580321E+03  0.00000000000E+00 0.  1.
         11    1    1    2    0    0  0.29729976570E+02  0.33392050875E+02 -0.94679159478E+02  0.10470455486E+03  0.00000000000E+00 0. -1.
</event>
<event>
 6    1  0.6981059E-006  0.1740037E+03  0.7561462E-02  0.1173736E+00
          2   -1    0    0  501    0  0.00000000000E+00  0.00000000000E+00  0.76631640059E+03  0.76631640059E+03  0.00000000000E+00 0. -1.
         -2   -1    0    0    0  501 -0.00000000000E+00 -0.00000000000E+00 -0.39828920516E+02  0.39828920516E+02  0.00000000000E+00 0.  1.
          5    1    1    2  502    0  0.15956536002E+01  0.34153673818E+02  0.65733027139E+02  0.74211338773E+02  0.41800000000E+01 0. -1.
         -5    1    1    2    0  502  0.12601858986E+03 -0.82216850801E+02  0.31179815481E+03  0.34623093057E+03  0.41800000000E+01 0. -1.
        -11    1    1    2    0    0 -0.52668610802E+02 -0.25061694717E+02  0.14855208488E+03  0.15959258450E+03  0.00000000000E+00 0.  1.
         11    1    1    2    0    0 -0.74945632655E+02  0.73124871700E+02  0.20040421325E+03  0.22611046725E+03  0.00000000000E+00 0. -1.
</event>
<event>
 6    1  0.6981059E-006  0.1115172E+03  0.7561462E-02  0.1257786E+00
          1   -1    0    0  501    0  0.00000000000E+00  0.00000000000E+00  0.92905474488E+03  0.92905474488E+03  0.00000000000E+00 0. -1.
         -1   -1    0    0    0  501 -0.00000000000E+00 -0.00000000000E+00 -0.25512884609E+02  0.25512884609E+02  0.00000000000E+00 0.  1.
          5    1    1    2  502    0  0.21271900653E+02  0.33589226676E+02  0.31995010058E+03  0.32243800826E+03  0.41800000000E+01 0.  1.
         -5    1    1    2    0  502  0.58521249129E+02  0.30674166262E+02  0.55651769916E+02  0.86488340083E+02  0.41800000000E+01 0.  1.
        -11    1    1    2    0    0 -0.10456294567E+02  0.10546370031E+02  0.10363454654E+02  0.18109699315E+02  0.00000000000E+00 0.  1.
         11    1    1    2    0    0 -0.69336855215E+02 -0.74809762968E+02  0.51757653512E+03  0.52753158183E+03  0.00000000000E+00 0. -1.
</event>
<event>
 6    1  0.6981059E-006  0.6542964E+02  0.7561462E-02  0.1376363E+00
          3   -1    0    0  501    0  0.00000000000E+00  0.00000000000E+00  0.20568478254E+03  0.20568478254E+03  0.00000000000E+00 0. -1.
         -3   -1    0    0    0  501 -0.00000000000E+00 -0.00000000000E+00 -0.65457258523E+02  0.65457258523E+02  0.00000000000E+00 0.  1.
          5    1    1    2  502    0 -0.42476146561E+02  0.31662101386E+02 -0.91717218039E+01  0.53928698962E+02  0.41800000000E+01 0. -1.
         -5    1    1    2    0  502  0.48060421062E+01 -0.24721844221E+02  0.10546244043E+03  0.10850837001E+03  0.41800000000E+01 0. -1.
        -11    1    1    2    0    0  0.27749235371E+02 -0.21126335107E+02  0.69541859058E+02  0.77797250980E+02  0.00000000000E+00 0. -1.
         11    1    1    2    0    0  0.99208690839E+01  0.14186077942E+02 -0.25605053665E+02  0.30907721106E+02  0.00000000000E+00 0.  1.
</event>
<event>
 6    1  0.6981059E-006  0.1560387E+03  0.7561462E-02  0.1193243E+00
          1   -1    0    0  501    0  0.00000000000E+00  0.00000000000E+00  0.20859353874E+03  0.20859353874E+03  0.00000000000E+00 0. -1.
         -1   -1    0    0    0  501 -0.00000000000E+00 -0.00000000000E+00 -0.16992553807E+03  0.16992553807E+03  0.00000000000E+00 0.  1.
          5    1    1    2  502    0  0.25137072797E+02 -0.83119028036E+02  0.46155103884E+02  0.98429727547E+02  0.41800000000E+01 0.  1.
         -5    1    1    2    0  502  0.21043463983E+02 -0.55967984571E+02 -0.75610458478E+02  0.96486561264E+02  0.41800000000E+01 0.  1.
        -11    1    1    2    0    0 -0.37306773198E+02  0.14074135626E+02 -0.21257769178E+01  0.39929882890E+02  0.00000000000E+00 0.  1.
         11    1    1    2    0    0 -0.88737635813E+01  0.12501287698E+03  0.70249132184E+02  0.14367290511E+03  0.00000000000E+00 0. -1.
</event>
<event>
 6    1  0.6981059E-006  0.1563245E+03  0.7561462E-02  0.1192910E+00
          2   -1    0    0  501    0  0.00000000000E+00  0.00000000000E+00  0.75245471498E+02  0.75245471498E+02  0.00000000000E+00 0. -1.
         -2   -1    0    0    0  501 -0.00000000000E+00 -0.00000000000E+00 -0.45517648012E+03  0.45517648012E+03  0.00000000000E+00 0.  1.
          5    1    1    2  502    0 -0.16031790992E+02 -0.10548926117E+03 -0.23524562675E+03  0.25834662732E+03  0.41800000000E+01 0. -1.
         -5    1    1    2    0  502  0.41803668509E+02 -0.37412534660E+02 -0.17634371723E+02  0.58954965157E+02  0.41800000000E+01 0. -1.
        -11    1    1    2    0    0  0.60334423224E+01  0.67586955427E+02 -0.74730691260E+01  0.68265992502E+02  0.00000000000E+00 0. -1.
         11    1    1    2    0    0 -0.31805319839E+02  0.75314840399E+02 -0.11957794102E+03  0.14485436664E+03  0.00000000000E+00 0.  1.
</event>
<event>
 6    1  0.6981059E-006  0.1159675E+03  0.7561462E-02  0.1249902E+00
          2   -1    0    0  501    0  0.00000000000E+00  0.00000000000E+00  0.40419172479E+03  0.40419172479E+03  0.00000000000E+00 0. -1.
         -2   -1    0    0    0  501 -0.00000000000E+00 -0.00000000000E+00 -0.54818762262E+02  0.54818762262E+02  0.00000000000E+00 0.  1.
          5    1    1    2  502    0 -0.29191627848E+02  0.18166574549E+02 -0.20174920382E+02  0.40083355394E+02  0.41800000000E+01 0. -1.
         -5    1    1    2    0  502 -0.27199548106E+02  0.78077339480E+02  0.15225738586E+03  0.17330802147E+03  0.41800000000E+01 0. -1.
        -11    1    1    2    0    0  0.61546496666E+01 -0.33872717108E+02  0.64968838885E+02  0.73526802615E+02  0.00000000000E+00 0.  1.
         11    1    1    2    0    0  0.50236526287E+02 -0.62371196921E+02  0.15232165817E+03  0.17209230758E+03  0.00000000000E+00 0. -1.
</event>
<event>
 6    1  0.1552516E-005  0.2967441E+03  0.7561462E-02  0.1086880E+00
         -1   -1    0    0    0  501 -0.00000000000E+00  0.00000000000E+00  0.30863881833E+02  0.30863881833E+02  0.00000000000E+00 0.  1.
          1   -1    0    0  501    0  0.00000000000E+00 -0.00000000000E+00 -0.28996300719E+04  0.28996300719E+04  0.00000000000E+00 0. -1.
          5    1    1    2  502    0 -0.13592538652E+03 -0.18454659826E+03 -0.10733014639E+04  0.10975092994E+04  0.41800000000E+01 0. -1.
         -5    1    1    2    0  502  0.25135568082E+02 -0.69095519604E+02 -0.28811011249E+03  0.29737332922E+03  0.41800000000E+01 0. -1.
        -11    1    1    2    0    0  0.19289011322E+02  0.15446958563E+03 -0.70422389038E+03  0.72122410291E+03  0.00000000000E+00 0.  1.
         11    1    1    2    0    0  0.91500807112E+02  0.99172532234E+02 -0.80313072329E+03  0.81438722212E+03  0.00000000000E+00 0. -1.
</event>
<event>
 6    1  0.6981059E-006  0.8163416E+02  0.7561462E-02  0.1324477E+00
         -2   -1    0    0    0  501 -0.00000000000E+00  0.00000000000E+00  0.78329001548E+02  0.78329001548E+02  0.00000000000E+00 0.  1.
          2   -1    0    0  501    0  0.00000000000E+00 -0.00000000000E+00 -0.19201083937E+03  0.19201083937E+03  0.00000000000E+00 0. -1.
          5    1    1    2  502    0 -0.32767524938E+02 -0.70804640382E+02 -0.93810523165E+02  0.12208560295E+03  0.41800000000E+01 0. -1.
         -5    1    1    2    0  502  0.18595529731E+02  0.17812860270E+02  0.20274867100E+02  0.33039890328E+02  0.41800000000E+01 0. -1.
        -11    1    1    2    0    0 -0.59374802023E+01  0.12583529731E+02  0.29273227963E+02  0.32411738106E+02  0.00000000000E+00 0.  1.
         11    1    1    2    0    0  0.20109475409E+02  0.40408250381E+02 -0.69419409717E+02  0.82802609533E+02  0.00000000000E+00 0. -1.
</event>
<event>
 6    1  0.6981059E-006  0.1072728E+03  0.7561462E-02  0.1265705E+00
         -2   -1    0    0    0  501 -0.00000000000E+00  0.00000000000E+00  0.37168798125E+02  0.37168798125E+02  0.00000000000E+00 0.  1.
          2   -1    0    0  501    0  0.00000000000E+00 -0.00000000000E+00 -0.38212420851E+03  0.38212420851E+03  0.00000000000E+00 0. -1.
          5    1    1    2  502    0  0.17322644775E+02  0.42081779050E+02 -0.99494720689E+02  0.10948799932E+03  0.41800000000E+01 0. -1.
         -5    1    1    2    0  502  0.10274737963E+02 -0.83204491834E+02 -0.91941059139E+02  0.12449573670E+03  0.41800000000E+01 0. -1.
        -11    1    1    2    0    0  0.18550486815E+02  0.33273383417E+02 -0.18390542075E+02  0.42301898810E+02  0.00000000000E+00 0.  1.
         11    1    1    2    0    0 -0.46147869553E+02  0.78493293669E+01 -0.13512908849E+03  0.14300737181E+03  0.00000000000E+00 0. -1.
</event>
<event>
 6    1  0.6981059E-006  0.1437454E+03  0.7561462E-02  0.1208376E+00
         -1   -1    0    0    0  501 -0.00000000000E+00  0.00000000000E+00  0.52765341331E+02  0.52765341331E+02  0.00000000000E+00 0.  1.
          1   -1    0    0  501    0  0.00000000000E+00 -0.00000000000E+00 -0.50992112980E+03  0.50992112980E+03  0.00000000000E+00 0. -1.
          5    1    1    2  502    0 -0.18038552789E+02 -0.10564084208E+03 -0.52494787053E+02  0.11940917875E+03  0.41800000000E+01 0.  1.
         -5    1    1    2    0  502 -0.37886808059E+02  0.17597729013E+02 -0.81172371652E+02  0.91386632562E+02  0.41800000000E+01 0.  1.
        -11    1    1    2    0    0  0.76645459802E+02  0.41158364739E+02 -0.19333996063E+03  0.21201150410E+03  0.00000000000E+00 0.  1.
         11    1    1    2    0    0 -0.20720098953E+02  0.46884748327E+02 -0.13014866914E+03  0.13987915572E+03  0.00000000000E+00 0. -1.
</event>
<event>
 6    1  0.6981059E-006  0.1488962E+03  0.7561462E-02  0.1201836E+00
         -2   -1    0    0    0  501 -0.00000000000E+00  0.00000000000E+00  0.32293834618E+03  0.32293834618E+03  0.00000000000E+00 0.  1.
          2   -1    0    0  501    0  0.00000000000E+00 -0.00000000000E+00 -0.69073566569E+02  0.69073566569E+02  0.00000000000E+00 0. -1.
          5    1    1    2  502    0  0.57086779478E+02  0.25471088069E+02  0.53550902692E+02  0.82418737540E+02  0.41800000000E+01 0. -1.
         -5    1    1    2    0  502  0.14160902283E+02 -0.98223606423E+02  0.86167235826E+02  0.13149400345E+03  0.41800000000E+01 0.  1.
        -11    1    1    2    0    0  0.46353287650E+01 -0.17382522504E+02  0.87121852703E+01  0.19988510038E+02  0.00000000000E+00 0. -1.
         11    1    1    2    0    0 -0.75883010526E+02  0.90135040858E+02  0.10543445582E+03  0.15811066173E+03  0.00000000000E+00 0.  1.
</event>
<event>
 6    1  0.6981059E-006  0.9217374E+02  0.7561462E-02  0.1297671E+00
          1   -1    0    0  501    0  0.00000000000E+00  0.00000000000E+00  0.35023393369E+03  0.35023393369E+03  0.00000000000E+00 0. -1.
         -1   -1    0    0    0  501 -0.00000000000E+00 -0.00000000000E+00 -0.30253781671E+02  0.30253781671E+02  0.00000000000E+00 0.  1.
          5    1    1    2  502    0  0.66159754577E+01  0.37900813787E+02  0.30800078601E+02  0.49460692057E+02  0.41800000000E+01 0. -1.
         -5    1    1    2    0  502  0.27652657527E+01 -0.89588909384E+02  0.10286626130E+03  0.13650186626E+03  0.41800000000E+01 0.  1.
        -11    1    1    2    0    0  0.57788415117E+01  0.98750631149E+01  0.38970462773E+02  0.40615377008E+02  0.00000000000E+00 0.  1.
         11    1    1    2    0    0 -0.15160082722E+02  0.41813032483E+02  0.14734334934E+03  0.15390978003E+03  0.00000000000E+00 0. -1.
</event>
<event>
 6    1  0.6981059E-006  0.1251640E+03  0.7561462E-02  0.1234813E+00
          3   -1    0    0  501    0  0.00000000000E+00  0.00000000000E+00  0.36714235335E+02  0.36714235335E+02  0.00000000000E+00 0. -1.
         -3   -1    0    0    0  501 -0.00000000000E+00 -0.00000000000E+00 -0.75793172111E+03  0.75793172111E+03  0.00000000000E+00 0.  1.
          5    1    1    2  502    0  0.31006762605E+02 -0.24602147092E+02 -0.16812094648E+03  0.17276808158E+03  0.41800000000E+01 0.  1.
         -5    1    1    2    0  502 -0.98514521165E+02  0.27062303501E+02 -0.47290694740E+03  0.48383461270E+03  0.41800000000E+01 0.  1.
        -11    1    1    2    0    0  0.49495067827E+02  0.39038480090E+02 -0.28002833264E+02  0.68977701743E+02  0.00000000000E+00 0. -1.
         11    1    1    2    0    0  0.18012690732E+02 -0.41498636500E+02 -0.52186758631E+02  0.69065560413E+02  0.00000000000E+00 0.  1.
</event>
<event>
 6    1  0.6981059E-006  0.1390382E+03  0.7561462E-02  0.1214629E+00
         -2   -1    0    0    0  501 -0.00000000000E+00  0.00000000000E+00  0.11114261989E+03  0.11114261989E+03  0.00000000000E+00 0.  1.
          2   -1    0    0  501    0  0.00000000000E+00 -0.00000000000E+00 -0.27227734118E+03  0.27227734118E+03  0.00000000000E+00 0. -1.
          5    1    1    2  502    0 -0.48003359311E+02 -0.18146375491E+02  0.27079846181E+01  0.51559858701E+02  0.41800000000E+01 0. -1.
         -5    1    1    2    0  502  0.73424596702E+02 -0.86605842994E+02  0.23293751238E+01  0.11364260570E+03  0.41800000000E+01 0. -1.
        -11    1    1    2    0    0  0.69242277706E+01  0.39919391520E+02 -0.13206009585E+03  0.13813533822E+03  0.00000000000E+00 0. -1.
         11    1    1    2    0    0 -0.32345465162E+02  0.64832826965E+02 -0.34111985178E+02  0.80082158447E+02  0.00000000000E+00 0.  1.
</event>
<event>
 6    1  0.6981059E-006  0.2125018E+03  0.7561462E-02  0.1139600E+00
          2   -1    0    0  501    0  0.00000000000E+00  0.00000000000E+00  0.50170286180E+03  0.50170286180E+03  0.00000000000E+00 0. -1.
         -2   -1    0    0    0  501 -0.00000000000E+00 -0.00000000000E+00 -0.10678998084E+03  0.10678998084E+03  0.00000000000E+00 0.  1.
          5    1    1    2  502    0 -0.63731833054E+02 -0.25672822098E+02  0.19039717908E+02  0.71420050384E+02  0.41800000000E+01 0. -1.
         -5    1    1    2    0  502  0.10365522932E+02 -0.15790508661E+03  0.82397522579E+02  0.17846087686E+03  0.41800000000E+01 0. -1.
        -11    1    1    2    0    0  0.13672441062E+02  0.13238474733E+03  0.24074915161E+03  0.27508691531E+03  0.00000000000E+00 0. -1.
         11    1    1    2    0    0  0.39693869060E+02  0.51193161374E+02  0.52726488858E+02  0.83525000088E+02  0.00000000000E+00 0.  1.
</event>
<event>
 6    1  0.6981059E-006  0.8921573E+02  0.7561462E-02  0.1304762E+00
          1   -1    0    0  501    0  0.00000000000E+00  0.00000000000E+00  0.10656766973E+03  0.10656766973E+03  0.00000000000E+00 0. -1.
         -1   -1    0    0    0  501 -0.00000000000E+00 -0.00000000000E+00 -0.14530651507E+03  0.14530651507E+03  0.00000000000E+00 0.  1.
          5    1    1    2  502    0  0.20122177696E+01 -0.41917149008E+02  0.17606187996E+02  0.45700619876E+02  0.41800000000E+01 0.  1.
         -5    1    1    2    0  502  0.27099905982E+02  0.38577356543E+02 -0.90192852888E+02  0.10185696075E+03  0.41800000000E+01 0.  1.
        -11    1    1    2    0    0 -0.45344279271E+01 -0.39381754378E+02 -0.70587911077E+01  0.40265495731E+02  0.00000000000E+00 0.  1.
         11    1    1    2    0    0 -0.24577695824E+02  0.42721546843E+02  0.40906610665E+02  0.64051108443E+02  0.00000000000E+00 0. -1.
</event>
<event>
 6    1  0.1136386E-005  0.7412682E+02  0.7561462E-02  0.1346596E+00
          1   -1    0    0  501    0  0.00000000000E+00  0.00000000000E+00  0.16405764483E+03  0.16405764483E+03  0.00000000000E+00 0. -1.
         -1   -1    0    0    0  501 -0.00000000000E+00 -0.00000000000E+00 -0.98810737763E+02  0.98810737763E+02  0.00000000000E+00 0.  1.
          5    1    1    2  502    0  0.86926690679E+01 -0.11714735579E+02 -0.46954269228E+02  0.49345448868E+02  0.41800000000E+01 0.  1.
         -5    1    1    2    0  502  0.53823483949E+02  0.30730072569E+02  0.70111643638E+02  0.93671872823E+02  0.41800000000E+01 0.  1.
        -11    1    1    2    0    0 -0.28949253901E+02 -0.23246249297E+02 -0.24968082007E+02  0.44742066636E+02  0.00000000000E+00 0.  1.
         11    1    1    2    0    0 -0.33566899116E+02  0.42309123074E+01  0.67057614660E+02  0.75108994263E+02  0.00000000000E+00 0. -1.
</event>
<event>
 6    1  0.6981059E-006  0.1763173E+03  0.7561462E-02  0.1171416E+00
         -2   -1    0    0    0  501 -0.00000000000E+00  0.00000000000E+00  0.34049774884E+02  0.34049774884E+02  0.00000000000E+00 0.  1.
          2   -1    0    0  501    0  0.00000000000E+00 -0.00000000000E+00 -0.12579981233E+04  0.12579981233E+04  0.00000000000E+00 0. -1.
          5    1    1    2  502    0  0.42105171073E+01  0.41504415361E+02 -0.37418803033E+03  0.37652954651E+03  0.41800000000E+01 0. -1.
         -5    1    1    2    0  502 -0.11751563093E+02  0.13420509233E+03 -0.25158337650E+03  0.28541333847E+03  0.41800000000E+01 0. -1.
        -11    1    1    2    0    0  0.13150689226E-01 -0.44218946020E+02 -0.51936364683E+02  0.68210712770E+02  0.00000000000E+00 0.  1.
         11    1    1    2    0    0  0.75278952970E+01 -0.13149056167E+03 -0.54624057694E+03  0.56189430048E+03  0.00000000000E+00 0. -1.
</event>
<event>
 6    1  0.6981059E-006  0.1007289E+03  0.7561462E-02  0.1278771E+00
         -1   -1    0    0    0  501 -0.00000000000E+00  0.00000000000E+00  0.43375803197E+03  0.43375803197E+03  0.00000000000E+00 0.  1.
          1   -1    0    0  501    0  0.00000000000E+00 -0.00000000000E+00 -0.29050110532E+02  0.29050110532E+02  0.00000000000E+00 0. -1.
          5    1    1    2  502    0  0.22788664315E+02  0.70231552910E+02  0.11495452980E+03  0.13668873607E+03  0.41800000000E+01 0. -1.
         -5    1    1    2    0  502 -0.72494865421E+01 -0.51887560625E+02  0.10724492009E+03  0.11943123246E+03  0.41800000000E+01 0. -1.
        -11    1    1    2    0    0  0.17239178933E+02  0.18731986480E+02  0.10218380471E+02  0.27431585941E+02  0.00000000000E+00 0. -1.
         11    1    1    2    0    0 -0.32778356706E+02 -0.37075978765E+02  0.17229009108E+03  0.17925658803E+03  0.00000000000E+00 0.  1.
</event>
<event>
 6    1  0.6981059E-006  0.7268067E+02  0.7561462E-02  0.1351207E+00
         -4   -1    0    0    0  501 -0.00000000000E+00  0.00000000000E+00  0.14633954998E+03  0.14633954998E+03  0.00000000000E+00 0.  1.
          4   -1    0    0  501    0  0.00000000000E+00 -0.00000000000E+00 -0.89675716409E+02  0.89675716409E+02  0.00000000000E+00 0. -1.
          5    1    1    2  502    0  0.23441166484E+02  0.13442144506E+02  0.83494775148E+02  0.87858007103E+02  0.41800000000E+01 0. -1.
         -5    1    1    2    0  502 -0.40949593918E+01 -0.37919941930E+02 -0.32991899064E+02  0.50602653016E+02  0.41800000000E+01 0. -1.
        -11    1    1    2    0    0  0.18440041950E+02 -0.15900163361E+02 -0.24316581903E+02  0.34411429751E+02  0.00000000000E+00 0. -1.
         11    1    1    2    0    0 -0.37786249042E+02  0.40377960785E+02  0.30477539393E+02  0.63143176522E+02  0.00000000000E+00 0.  1.
</event>
<event>
 6    1  0.6981059E-006  0.1086633E+03  0.7561462E-02  0.1263066E+00
          2   -1    0    0  501    0  0.00000000000E+00  0.00000000000E+00  0.79549497147E+02  0.79549497147E+02  0.00000000000E+00 0. -1.
         -2   -1    0    0    0  501 -0.00000000000E+00 -0.00000000000E+00 -0.17856394750E+03  0.17856394750E+03  0.00000000000E+00 0.  1.
          5    1    1    2  502    0  0.61129448173E+02  0.20350544592E+02  0.16138162894E+01  0.64583518812E+02  0.41800000000E+01 0. -1.
         -5    1    1    2    0  502 -0.44358154096E+02  0.25195129145E+02 -0.68165666808E+02  0.85243597407E+02  0.41800000000E+01 0. -1.
        -11    1    1    2    0    0  0.29338420257E+02 -0.47045659008E+02 -0.27490414279E+02  0.61885053218E+02  0.00000000000E+00 0. -1.
         11    1    1    2    0    0 -0.46109714333E+02  0.14999852703E+01 -0.49721855532E+01  0.46401275207E+02  0.00000000000E+00 0.  1.
</event>
<event>
 6    1  0.6981059E-006  0.1522498E+03  0.7561462E-02  0.1197735E+00
          1   -1    0    0  501    0  0.00000000000E+00  0.00000000000E+00  0.35166925036E+02  0.35166925036E+02  0.00000000000E+00 0. -1.
         -1   -1    0    0    0  501 -0.00000000000E+00 -0.00000000000E+00 -0.88153524194E+03  0.88153524194E+03  0.00000000000E+00 0.  1.
          5    1    1    2  502    0 -0.12769881097E+03 -0.79895763606E+02 -0.54577115909E+03  0.56619250248E+03  0.41800000000E+01 0.  1.
         -5    1    1    2    0  502  0.20444884100E+02  0.64791974209E+01 -0.29534148694E+02  0.36738421634E+02  0.41800000000E+01 0.  1.
        -11    1    1    2    0    0  0.54051812277E+02  0.50701183756E+02 -0.23305343828E+03  0.24455288496E+03  0.00000000000E+00 0.  1.
         11    1    1    2    0    0  0.53202114595E+02  0.22715382429E+02 -0.38009570836E+02  0.69218357908E+02  0.00000000000E+00 0. -1.
</event>
<event>
 6    1  0.6981059E-006  0.8181291E+02  0.7561462E-02  0.1323984E+00
          3   -1    0    0  501    0  0.00000000000E+00  0.00000000000E+00  0.12970152659E+03  0.12970152659E+03  0.00000000000E+00 0. -1.
         -3   -1    0    0    0  501 -0.00000000000E+00 -0.00000000000E+00 -0.95103522176E+02  0.95103522176E+02  0.00000000000E+00 0.  1.
          5    1    1    2  502    0 -0.55986118004E+02  0.24102862810E+02  0.34156550713E+02  0.69996683931E+02  0.41800000000E+01 0. -1.
         -5    1    1    2    0  502  0.45903226700E+02 -0.72672900854E+01 -0.32103253190E+02  0.56639306069E+02  0.41800000000E+01 0. -1.
        -11    1    1    2    0    0 -0.10810701751E+02  0.14571662905E+02  0.52462486519E+02  0.55511414357E+02  0.00000000000E+00 0. -1.
         11    1    1    2    0    0  0.20893593055E+02 -0.31407235630E+02 -0.19917779632E+02  0.42657644404E+02  0.00000000000E+00 0.  1.
</event>
<event>
 6    1  0.6981059E-006  0.1642815E+03  0.7561462E-02  0.1183946E+00
          2   -1    0    0  501    0  0.00000000000E+00  0.00000000000E+00  0.79839323707E+03  0.79839323707E+03  0.00000000000E+00 0. -1.
         -2   -1    0    0    0  501 -0.00000000000E+00 -0.00000000000E+00 -0.48151299825E+02  0.48151299825E+02  0.00000000000E+00 0.  1.
          5    1    1    2  502    0  0.37475649077E+02  0.10126680502E+03  0.14242643640E+03  0.17877961925E+03  0.41800000000E+01 0. -1.
         -5    1    1    2    0  502 -0.70424246645E+02  0.36054586816E+02  0.75203166105E+02  0.10923596632E+03  0.41800000000E+01 0. -1.
        -11    1    1    2    0    0  0.26983963514E+01 -0.16859390318E+02  0.70197696208E+01  0.18460702866E+02  0.00000000000E+00 0.  1.
         11    1    1    2    0    0  0.30250201216E+02 -0.12046200152E+03  0.52559256512E+03  0.54006824845E+03  0.00000000000E+00 0. -1.
</event>
<event>
 6    1  0.6981059E-006  0.7825452E+02  0.7561462E-02  0.1334079E+00
          1   -1    0    0  501    0  0.00000000000E+00  0.00000000000E+00  0.18593325046E+02  0.18593325046E+02  0.00000000000E+00 0. -1.
         -1   -1    0    0    0  501 -0.00000000000E+00 -0.00000000000E+00 -0.42336227311E+03  0.42336227311E+03  0.00000000000E+00 0.  1.
          5    1    1    2  502    0 -0.46727608684E+01 -0.49477024303E+02 -0.51278643649E+02  0.71531687542E+02  0.41800000000E+01 0. -1.
         -5    1    1    2    0  502  0.44350832361E+02  0.41958497258E+02 -0.19958003400E+03  0.20875146513E+03  0.41800000000E+01 0.  1.
        -11    1    1    2    0    0 -0.35206759121E+02 -0.16436263285E+01 -0.14034679469E+03  0.14470466535E+03  0.00000000000E+00 0.  1.
         11    1    1    2    0    0 -0.44713123712E+01  0.91621533741E+01 -0.13563475721E+02  0.16967780126E+02  0.00000000000E+00 0. -1.
</event>
<event>
 6    1  0.6981059E-006  0.1046133E+03  0.7561462E-02  0.1270883E+00
         -2   -1    0    0    0  501 -0.00000000000E+00  0.00000000000E+00  0.22545512167E+02  0.22545512167E+02  0.00000000000E+00 0. -1.
          2   -1    0    0  501    0  0.00000000000E+00 -0.00000000000E+00 -0.52579977687E+03  0.52579977687E+03  0.00000000000E+00 0.  1.
          5    1    1    2  502    0  0.14285554346E+02  0.55330075835E+02 -0.15598008287E+03  0.16617085487E+03  0.41800000000E+01 0. -1.
         -5    1    1    2    0  502 -0.23703182738E+02 -0.61418482599E+02 -0.11705090555E+03  0.13435943498E+03  0.41800000000E+01 0. -1.
        -11    1    1    2    0    0  0.21734535223E+02 -0.36031555215E+02 -0.69846470600E+02  0.81542580582E+02  0.00000000000E+00 0. -1.
         11    1    1    2    0    0 -0.12316906831E+02  0.42119961980E+02 -0.16037680567E+03  0.16627241860E+03  0.00000000000E+00 0.  1.
</event>
<event>
 6    1  0.6981059E-006  0.1191763E+03  0.7561462E-02  0.1244462E+00
          1   -1    0    0  501    0  0.00000000000E+00  0.00000000000E+00  0.93849520993E+02  0.93849520993E+02  0.00000000000E+00 0. -1.
         -1   -1    0    0    0  501 -0.00000000000E+00 -0.00000000000E+00 -0.19995310275E+03  0.19995310275E+03  0.00000000000E+00 0.  1.
          5    1    1    2  502    0  0.10936422724E+02 -0.46747031547E+02  0.25374920115E+02  0.54463283700E+02  0.41800000000E+01 0. -1.
         -5    1    1    2    0  502 -0.73819287366E+02  0.25969147914E+02 -0.80940212372E+02  0.11266088145E+03  0.41800000000E+01 0.  1.
        -11    1    1    2    0    0  0.86074007139E+02  0.21021009303E+02 -0.53177029484E+02  0.10333641179E+03  0.00000000000E+00 0.  1.
         11    1    1    2    0    0 -0.23191142497E+02 -0.24312566953E+00  0.26387399788E+01  0.23342046806E+02  0.00000000000E+00 0. -1.
</event>
<event>
 6    1  0.6981059E-006  0.1055966E+03  0.7561462E-02  0.1268949E+00
          2   -1    0    0  501    0  0.00000000000E+00  0.00000000000E+00  0.44704226208E+03  0.44704226208E+03  0.00000000000E+00 0. -1.
         -2   -1    0    0    0  501 -0.00000000000E+00 -0.00000000000E+00 -0.51530036127E+02  0.51530036127E+02  0.00000000000E+00 0.  1.
          5    1    1    2  502    0  0.33452235670E+02  0.12712299473E+01  0.15265103411E+03  0.15633450902E+03  0.41800000000E+01 0.  1.
         -5    1    1    2    0  502  0.66053740381E+02  0.75917752898E+01  0.26026856483E+01  0.66670668535E+02  0.41800000000E+01 0.  1.
        -11    1    1    2    0    0 -0.44058912463E+02  0.19933283298E+02  0.18798309998E+03  0.19410350185E+03  0.00000000000E+00 0. -1.
         11    1    1    2    0    0 -0.55447063588E+02 -0.28796288535E+02  0.52275406220E+02  0.81463618808E+02  0.00000000000E+00 0.  1.
</event>
<event>
 6    1  0.6981059E-006  0.1334149E+03  0.7561462E-02  0.1222475E+00
         -1   -1    0    0    0  501 -0.00000000000E+00  0.00000000000E+00  0.20494798632E+02  0.20494798632E+02  0.00000000000E+00 0.  1.
          1   -1    0    0  501    0  0.00000000000E+00 -0.00000000000E+00 -0.10583489214E+04  0.10583489214E+04  0.00000000000E+00 0. -1.
          5    1    1    2  502    0 -0.18797464944E+00 -0.47766696517E+02 -0.98048746889E+02  0.10914541583E+03  0.41800000000E+01 0.  1.
         -5    1    1    2    0  502  0.97180890950E+02  0.41289020630E+02 -0.38366258513E+03  0.39794894197E+03  0.41800000000E+01 0.  1.
        -11    1    1    2    0    0 -0.13583060004E+02 -0.21328534321E+02 -0.34643467666E+02  0.42890275673E+02  0.00000000000E+00 0.  1.
         11    1    1    2    0    0 -0.83409856296E+02  0.27806210208E+02 -0.52149932311E+03  0.52885908658E+03  0.00000000000E+00 0. -1.
</event>
<event>
 6    1  0.6981059E-006  0.1525206E+03  0.7561462E-02  0.1197409E+00
          2   -1    0    0  501    0  0.00000000000E+00  0.00000000000E+00  0.37367089930E+03  0.37367089930E+03  0.00000000000E+00 0. -1.
         -2   -1    0    0    0  501 -0.00000000000E+00 -0.00000000000E+00 -0.95577385370E+02  0.95577385370E+02  0.00000000000E+00 0.  1.
          5    1    1    2  502    0  0.40507818415E+01 -0.10316623391E+03  0.24255602075E+02  0.10613899983E+03  0.41800000000E+01 0.  1.
         -5    1    1    2    0  502  0.65785503967E+02  0.88416291753E+01 -0.37240523209E+01  0.66612670749E+02  0.41800000000E+01 0.  1.
        -11    1    1    2    0    0  0.13040435018E+02  0.20024457769E+02  0.11686862913E+02  0.26601026656E+02  0.00000000000E+00 0.  1.
         11    1    1    2    0    0 -0.82876720826E+02  0.74300146969E+02  0.24587510126E+03  0.26989558743E+03  0.00000000000E+00 0. -1.
</event>
<event>
 6    1  0.6981059E-006  0.9903482E+02  0.7561462E-02  0.1282339E+00
          2   -1    0    0  501    0  0.00000000000E+00  0.00000000000E+00  0.73003163651E+03  0.73003163651E+03  0.00000000000E+00 0. -1.
         -2   -1    0    0    0  501 -0.00000000000E+00 -0.00000000000E+00 -0.18474616163E+02  0.18474616163E+02  0.00000000000E+00 0.  1.
          5    1    1    2  502    0 -0.37938584074E+02  0.11043980807E+02  0.27288579428E+03  0.27576336739E+03  0.41800000000E+01 0.  1.
         -5    1    1    2    0  502  0.34560115995E+02 -0.50993593752E+02  0.81887790222E+02  0.10255647619E+03  0.41800000000E+01 0.  1.
        -11    1    1    2    0    0  0.44502579135E+02  0.31727827343E+02  0.23869006778E+03  0.24486748056E+03  0.00000000000E+00 0.  1.
         11    1    1    2    0    0 -0.41124111056E+02  0.82217856017E+01  0.11809336807E+03  0.12531892854E+03  0.00000000000E+00 0. -1.
</event>
<event>
 6    1  0.6981059E-006  0.1039126E+03  0.7561462E-02  0.1272277E+00
          1   -1    0    0  501    0  0.00000000000E+00  0.00000000000E+00  0.59879645495E+02  0.59879645495E+02  0.00000000000E+00 0. -1.
         -1   -1    0    0    0  501 -0.00000000000E+00 -0.00000000000E+00 -0.27128182571E+03  0.27128182571E+03  0.00000000000E+00 0.  1.
          5    1    1    2  502    0 -0.15193091686E+02  0.23582092925E+02  0.88319798206E+01  0.29705578757E+02  0.41800000000E+01 0. -1.
         -5    1    1    2    0  502  0.71641312423E+02 -0.26334002189E+01 -0.16091764772E+03  0.17621400112E+03  0.41800000000E+01 0. -1.
        -11    1    1    2    0    0 -0.80221849632E+01  0.33695524835E+02 -0.67892243007E+01  0.35296422086E+02  0.00000000000E+00 0. -1.
         11    1    1    2    0    0 -0.48426035774E+02 -0.54644217541E+02 -0.52527288020E+02  0.89945469248E+02  0.00000000000E+00 0.  1.
</event>
<event>
 6    1  0.6981059E-006  0.9111132E+02  0.7561462E-02  0.1300183E+00
          2   -1    0    0  501    0  0.00000000000E+00  0.00000000000E+00  0.30397604886E+03  0.30397604886E+03  0.00000000000E+00 0. -1.
         -2   -1    0    0    0  501 -0.00000000000E+00 -0.00000000000E+00 -0.47901097072E+02  0.47901097072E+02  0.00000000000E+00 0.  1.
          5    1    1    2  502    0  0.74120031389E+02 -0.11707610225E+02  0.15712622501E+03  0.17417511354E+03  0.41800000000E+01 0.  1.
         -5    1    1    2    0  502 -0.21047439994E+02  0.87661127197E+01 -0.10767630151E+02  0.25558828643E+02  0.41800000000E+01 0.  1.
        -11    1    1    2    0    0  0.15330197042E+02  0.21480289917E+01  0.72765793994E+02  0.74394151286E+02  0.00000000000E+00 0. -1.
         11    1    1    2    0    0 -0.68402788438E+02  0.79346851381E+00  0.36950562941E+02  0.77749052470E+02  0.00000000000E+00 0.  1.
</event>
<event>
 6    1  0.6981059E-006  0.2301478E+03  0.7561462E-02  0.1126536E+00
         -2   -1    0    0    0  501 -0.00000000000E+00  0.00000000000E+00  0.44229960020E+02  0.44229960020E+02  0.00000000000E+00 0.  1.
          2   -1    0    0  501    0  0.00000000000E+00 -0.00000000000E+00 -0.13194281438E+04  0.13194281438E+04  0.00000000000E+00 0. -1.
          5    1    1    2  502    0  0.52679928447E+02 -0.62062116943E+02 -0.32152594223E+03  0.33169758086E+03  0.41800000000E+01 0.  1.
         -5    1    1    2    0  502 -0.59635330142E+02 -0.15065355088E+03 -0.44479741736E+03  0.47340794235E+03  0.41800000000E+01 0.  1.
        -11    1    1    2    0    0 -0.13431242521E+02  0.15326432483E+03 -0.43584196806E+03  0.46219971080E+03  0.00000000000E+00 0. -1.
         11    1    1    2    0    0  0.20386644217E+02  0.59451342995E+02 -0.73032856132E+02  0.96352869813E+02  0.00000000000E+00 0.  1.
</event>
<event>
 6    1  0.7065330E-006  0.8400978E+02  0.7561462E-02  0.1318043E+00
          1   -1    0    0  501    0  0.00000000000E+00  0.00000000000E+00  0.26623942754E+02  0.26623942754E+02  0.00000000000E+00 0. -1.
         -1   -1    0    0    0  501 -0.00000000000E+00 -0.00000000000E+00 -0.29851743001E+03  0.29851743001E+03  0.00000000000E+00 0.  1.
          5    1    1    2  502    0 -0.29074493022E+02  0.46151514772E+02 -0.60302652463E+02  0.81419719690E+02  0.41800000000E+01 0. -1.
         -5    1    1    2    0  502  0.43650571291E+02 -0.39763335899E+02 -0.15084631110E+03  0.16204498520E+03  0.41800000000E+01 0.  1.
        -11    1    1    2    0    0 -0.33256341006E+02 -0.10723276042E+02 -0.33886095333E+02  0.48674842815E+02  0.00000000000E+00 0. -1.
         11    1    1    2    0    0  0.18680262737E+02  0.43350971690E+01 -0.26858428368E+02  0.33001825068E+02  0.00000000000E+00 0.  1.
</event>
<event>
 6    1  0.6981059E-006  0.9681008E+02  0.7561462E-02  0.1287151E+00
         -2   -1    0    0    0  501 -0.00000000000E+00  0.00000000000E+00  0.26553985895E+03  0.26553985895E+03  0.00000000000E+00 0.  1.
          2   -1    0    0  501    0  0.00000000000E+00 -0.00000000000E+00 -0.47164759345E+02  0.47164759345E+02  0.00000000000E+00 0. -1.
          5    1    1    2  502    0  0.14068177490E+02 -0.41004684844E+02  0.11585219177E+03  0.12376793016E+03  0.41800000000E+01 0.  1.
         -5    1    1    2    0  502 -0.39635932027E+02  0.47692140617E+02  0.26493580816E+02  0.67564262807E+02  0.41800000000E+01 0.  1.
        -11    1    1    2    0    0 -0.22956942568E+02  0.21789708027E+02  0.50473734082E+02  0.59576928589E+02  0.00000000000E+00 0.  1.
         11    1    1    2    0    0  0.48524697105E+02 -0.28477163800E+02  0.25555592937E+02  0.61795496742E+02  0.00000000000E+00 0. -1.
</event>
<event>
 6    1  0.6981059E-006  0.1121025E+03  0.7561462E-02  0.1256725E+00
         -2   -1    0    0    0  501 -0.00000000000E+00  0.00000000000E+00  0.19383549409E+02  0.19383549409E+02  0.00000000000E+00 0.  1.
          2   -1    0    0  501    0  0.00000000000E+00 -0.00000000000E+00 -0.80877518972E+03  0.80877518972E+03  0.00000000000E+00 0. -1.
          5    1    1    2  502    0 -0.38869713094E+02  0.12661700740E+02 -0.14364028308E+03  0.14940273285E+03  0.41800000000E+01 0. -1.
         -5    1    1    2    0  502  0.98145851132E+02  0.11475887978E+02 -0.28367856763E+03  0.30042520905E+03  0.41800000000E+01 0. -1.
        -11    1    1    2    0    0 -0.69835528987E+02 -0.23285007833E+02 -0.36010924423E+03  0.36755660854E+03  0.00000000000E+00 0. -1.
         11    1    1    2    0    0  0.10559390949E+02 -0.85258088489E+00 -0.19635453651E+01  0.10774188683E+02  0.00000000000E+00 0.  1.
</event>
<event>
 6    1  0.6981059E-006  0.1777714E+03  0.7561462E-02  0.1169978E+00
          2   -1    0    0  501    0  0.00000000000E+00  0.00000000000E+00  0.16323100263E+03  0.16323100263E+03  0.00000000000E+00 0.  1.
         -2   -1    0    0    0  501 -0.00000000000E+00 -0.00000000000E+00 -0.21899181063E+03  0.21899181063E+03  0.00000000000E+00 0. -1.
          5    1    1    2  502    0 -0.83860124248E+02  0.12978153485E+02 -0.43817850462E+02  0.95595132334E+02  0.41800000000E+01 0.  1.
         -5    1    1    2    0  502 -0.44761485735E+02 -0.96767929763E+02  0.24260689990E+01  0.10672853904E+03  0.41800000000E+01 0.  1.
        -11    1    1    2    0    0  0.66932989774E+02  0.76680242854E+02  0.26975537859E+02  0.10529750428E+03  0.00000000000E+00 0.  1.
         11    1    1    2    0    0  0.61688620209E+02  0.71095334245E+01 -0.41344564395E+02  0.74601637609E+02  0.00000000000E+00 0. -1.
</event>
<event>
 6    1  0.6981059E-006  0.2193113E+03  0.7561462E-02  0.1134398E+00
          1   -1    0    0  501    0  0.00000000000E+00  0.00000000000E+00  0.90435924640E+03  0.90435924640E+03  0.00000000000E+00 0. -1.
         -1   -1    0    0    0  501 -0.00000000000E+00 -0.00000000000E+00 -0.63321657703E+02  0.63321657703E+02  0.00000000000E+00 0.  1.
          5    1    1    2  502    0 -0.57909334914E+02  0.98440187825E+02  0.20723098832E+03  0.23665611458E+03  0.41800000000E+01 0.  1.
         -5    1    1    2    0  502 -0.11790291441E+03  0.61220959188E+01  0.11378423093E+03  0.16402103796E+03  0.41800000000E+01 0.  1.
        -11    1    1    2    0    0  0.74533902574E+02 -0.59402205602E+02  0.12792071025E+03  0.15952314182E+03  0.00000000000E+00 0.  1.
         11    1    1    2    0    0  0.10127834675E+03 -0.45160078142E+02  0.39210165919E+03  0.40748060975E+03  0.00000000000E+00 0. -1.
</event>
<event>
 6    1  0.6981059E-006  0.1282303E+03  0.7561462E-02  0.1230106E+00
         -1   -1    0    0    0  501 -0.00000000000E+00  0.00000000000E+00  0.37784207113E+02  0.37784207113E+02  0.00000000000E+00 0.  1.
          1   -1    0    0  501    0  0.00000000000E+00 -0.00000000000E+00 -0.53795454688E+03  0.53795454688E+03  0.00000000000E+00 0. -1.
          5    1    1    2  502    0  0.45089888104E+02  0.56533775544E+02 -0.14887633263E+03  0.16556207477E+03  0.41800000000E+01 0. -1.
         -5    1    1    2    0  502  0.40286874497E+02 -0.54034486165E+02 -0.48081846830E+02  0.82898096157E+02  0.41800000000E+01 0. -1.
        -11    1    1    2    0    0 -0.12325355441E+02  0.33036833084E+02 -0.48763321541E+02  0.60176475924E+02  0.00000000000E+00 0.  1.
         11    1    1    2    0    0 -0.73051407160E+02 -0.35536122463E+02 -0.25444883877E+03  0.26710210714E+03  0.00000000000E+00 0. -1.
</event>
<event>
 6    1  0.6981059E-006  0.1591350E+03  0.7561462E-02  0.1189677E+00
          1   -1    0    0  501    0  0.00000000000E+00  0.00000000000E+00  0.52169942768E+03  0.52169942768E+03  0.00000000000E+00 0. -1.
         -1   -1    0    0    0  501 -0.00000000000E+00 -0.00000000000E+00 -0.68892444533E+02  0.68892444533E+02  0.00000000000E+00 0.  1.
          5    1    1    2  502    0  0.45805402035E+02 -0.13244463699E+03  0.14736742588E+03  0.20340685174E+03  0.41800000000E+01 0.  1.
         -5    1    1    2    0  502  0.18736878056E+02  0.99450904667E+01 -0.14085366270E+02  0.25803979667E+02  0.41800000000E+01 0.  1.
        -11    1    1    2    0    0 -0.40490177592E+02  0.10413508883E+02  0.15715126788E+03  0.16261739343E+03  0.00000000000E+00 0. -1.
         11    1    1    2    0    0 -0.24052102500E+02  0.11208603764E+03  0.16237365565E+03  0.19876364738E+03  0.00000000000E+00 0.  1.
</event>
<event>
 6    1  0.6981059E-006  0.2771975E+03  0.7561462E-02  0.1097230E+00
         -1   -1    0    0    0  501 -0.00000000000E+00  0.00000000000E+00  0.22288097596E+03  0.22288097596E+03  0.00000000000E+00 0.  1.
          1   -1    0    0  501    0  0.00000000000E+00 -0.00000000000E+00 -0.87390786966E+03  0.87390786966E+03  0.00000000000E+00 0. -1.
          5    1    1    2  502    0 -0.15344098068E+02 -0.20915444726E+02 -0.12000415003E+02  0.28885628500E+02  0.41800000000E+01 0. -1.
         -5    1    1    2    0  502 -0.24520467781E+03  0.55138226986E+02  0.10586777611E+03  0.27274716591E+03  0.41800000000E+01 0.  1.
        -11    1    1    2    0    0  0.86198739484E+01  0.17560457605E+02 -0.34839002285E+02  0.39955324781E+02  0.00000000000E+00 0.  1.
         11    1    1    2    0    0  0.25192890193E+03 -0.51783239865E+02 -0.71005525252E+03  0.75520072642E+03  0.00000000000E+00 0. -1.
</event>
<event>
 6    1  0.6981059E-006  0.2672752E+03  0.7561462E-02  0.1102849E+00
         -2   -1    0    0    0  501 -0.00000000000E+00  0.00000000000E+00  0.15021729895E+03  0.15021729895E+03  0.00000000000E+00 0.  1.
          2   -1    0    0  501    0  0.00000000000E+00 -0.00000000000E+00 -0.70607562303E+03  0.70607562303E+03  0.00000000000E+00 0. -1.
          5    1    1    2  502    0  0.26495378904E+01 -0.50063328602E+02 -0.62214476849E+02  0.80009189793E+02  0.41800000000E+01 0. -1.
         -5    1    1    2    0  502 -0.12042459523E+03 -0.17702812249E+03 -0.16756264766E+01  0.21415256107E+03  0.41800000000E+01 0.  1.
        -11    1    1    2    0    0  0.94849326551E+02  0.88839586337E+02 -0.26959950530E+03  0.29928708644E+03  0.00000000000E+00 0. -1.
         11    1    1    2    0    0  0.22925730788E+02  0.13825186475E+03 -0.22236871546E+03  0.26284408468E+03  0.00000000000E+00 0.  1.
</event>
<event>
 6    1  0.6981059E-006  0.1194458E+03  0.7561462E-02  0.1244014E+00
         -1   -1    0    0    0  501 -0.00000000000E+00  0.00000000000E+00  0.34884563742E+03  0.34884563742E+03  0.00000000000E+00 0.  1.
          1   -1    0    0  501    0  0.00000000000E+00 -0.00000000000E+00 -0.43438897818E+02  0.43438897818E+02  0.00000000000E+00 0. -1.
          5    1    1    2  502    0 -0.38657856510E+02 -0.62647140619E+02  0.71186416460E+02  0.10248937694E+03  0.41800000000E+01 0. -1.
         -5    1    1    2    0  502  0.56444836665E+02  0.10702072960E+02  0.11294517893E+03  0.12678580281E+03  0.41800000000E+01 0. -1.
        -11    1    1    2    0    0 -0.31178715327E+02 -0.18228372649E+02  0.29040489754E+02  0.46343671672E+02  0.00000000000E+00 0.  1.
         11    1    1    2    0    0  0.13391735172E+02  0.70173440308E+02  0.92234654454E+02  0.11666568381E+03  0.00000000000E+00 0. -1.
</event>
<event>
 6    1  0.6981059E-006  0.1288543E+03  0.7561462E-02  0.1229166E+00
          1   -1    0    0  501    0  0.00000000000E+00  0.00000000000E+00  0.22477301294E+03  0.22477301294E+03  0.00000000000E+00 0. -1.
         -1   -1    0    0    0  501 -0.00000000000E+00 -0.00000000000E+00 -0.10496889775E+03  0.10496889775E+03  0.00000000000E+00 0.  1.
          5    1    1    2  502    0  0.16705019906E+01  0.56857966449E+02  0.23201690182E+02  0.61574424504E+02  0.41800000000E+01 0. -1.
         -5    1    1    2    0  502  0.83812734899E+02 -0.30041443263E+02 -0.23935036943E+02  0.92289876140E+02  0.41800000000E+01 0. -1.
        -11    1    1    2    0    0 -0.13726867013E+02 -0.36628755278E+02  0.88351974157E+02  0.96623826920E+02  0.00000000000E+00 0. -1.
         11    1    1    2    0    0 -0.71756369876E+02  0.98122320913E+01  0.32185487795E+02  0.79253783133E+02  0.00000000000E+00 0.  1.
</event>
<event>
 6    1  0.6981059E-006  0.1016887E+03  0.7561462E-02  0.1276784E+00
         -1   -1    0    0    0  501 -0.00000000000E+00  0.00000000000E+00  0.28572327128E+02  0.28572327128E+02  0.00000000000E+00 0.  1.
          1   -1    0    0  501    0  0.00000000000E+00 -0.00000000000E+00 -0.42757884354E+03  0.42757884354E+03  0.00000000000E+00 0. -1.
          5    1    1    2  502    0 -0.31562854826E+02 -0.62694758767E+02 -0.15116571888E+03  0.16671950559E+03  0.41800000000E+01 0.  1.
         -5    1    1    2    0  502  0.14348556929E+02  0.48588421768E+02 -0.50654883781E+02  0.71764235289E+02  0.41800000000E+01 0.  1.
        -11    1    1    2    0    0  0.42672221107E+02  0.30047321663E+02 -0.71982623117E+02  0.88911517950E+02  0.00000000000E+00 0.  1.
         11    1    1    2    0    0 -0.25457923210E+02 -0.15940984663E+02 -0.12520329064E+03  0.12875591184E+03  0.00000000000E+00 0. -1.
</event>
<event>
 6    1  0.6981059E-006  0.1354353E+03  0.7561462E-02  0.1219606E+00
          1   -1    0    0  501    0  0.00000000000E+00  0.00000000000E+00  0.13280806593E+03  0.13280806593E+03  0.00000000000E+00 0. -1.
         -1   -1    0    0    0  501 -0.00000000000E+00 -0.00000000000E+00 -0.21915697214E+03  0.21915697214E+03  0.00000000000E+00 0.  1.
          5    1    1    2  502    0 -0.46082076411E+02  0.16224114404E+01 -0.66070870833E+02  0.80678512367E+02  0.41800000000E+01 0. -1.
         -5    1    1    2    0  502  0.49306726046E+02  0.88969470104E+02 -0.80535996729E+02  0.12980847050E+03  0.41800000000E+01 0.  1.
        -11    1    1    2    0    0  0.37795537251E+02 -0.62532853491E+02  0.15712583525E+02  0.74737846389E+02  0.00000000000E+00 0.  1.
         11    1    1    2    0    0 -0.41020186885E+02 -0.28059028053E+02  0.44545377828E+02  0.66740208819E+02  0.00000000000E+00 0. -1.
</event>
<event>
 6    1  0.6981059E-006  0.2426638E+03  0.7561462E-02  0.1118031E+00
         -2   -1    0    0    0  501 -0.00000000000E+00  0.00000000000E+00  0.80442822705E+02  0.80442822705E+02  0.00000000000E+00 0.  1.
          2   -1    0    0  501    0  0.00000000000E+00 -0.00000000000E+00 -0.11320921420E+04  0.11320921420E+04  0.00000000000E+00 0. -1.
          5    1    1    2  502    0  0.67889512829E+02  0.69093500170E+02 -0.68026302815E+02  0.11843963860E+03  0.41800000000E+01 0. -1.
         -5    1    1    2    0  502  0.15626126181E+03 -0.39237845277E+02 -0.13327259921E+03  0.20913213178E+03  0.41800000000E+01 0. -1.
        -11    1    1    2    0    0 -0.11135018478E+03 -0.36975378054E+01 -0.25227000107E+03  0.27577651981E+03  0.00000000000E+00 0.  1.
         11    1    1    2    0    0 -0.11280058985E+03 -0.26158117087E+02 -0.59808041618E+03  0.60918667449E+03  0.00000000000E+00 0. -1.
</event>
<event>
 6    1  0.6981059E-006  0.2909628E+03  0.7561462E-02  0.1089848E+00
         -2   -1    0    0    0  501 -0.00000000000E+00  0.00000000000E+00  0.25703174172E+03  0.25703174172E+03  0.00000000000E+00 0.  1.
          2   -1    0    0  501    0  0.00000000000E+00 -0.00000000000E+00 -0.34211714027E+03  0.34211714027E+03  0.00000000000E+00 0. -1.
          5    1    1    2  502    0 -0.75763247340E+01 -0.11812873896E+03  0.23428180737E+02  0.12074001705E+03  0.41800000000E+01 0. -1.
         -5    1    1    2    0  502 -0.13498268224E+03  0.22577249186E+03 -0.38544853367E+02  0.26588854941E+03  0.41800000000E+01 0.  1.
        -11    1    1    2    0    0  0.11825554519E+03 -0.12381015982E+03 -0.63613742508E+02  0.18264730460E+03  0.00000000000E+00 0.  1.
         11    1    1    2    0    0  0.24303461789E+02  0.16166406928E+02 -0.63549834130E+01  0.29873010931E+02  0.00000000000E+00 0. -1.
</event>
<event>
 6    1  0.6981059E-006  0.2456588E+03  0.7561462E-02  0.1116079E+00
         -2   -1    0    0    0  501 -0.00000000000E+00  0.00000000000E+00  0.21323411828E+03  0.21323411828E+03  0.00000000000E+00 0. -1.
          2   -1    0    0  501    0  0.00000000000E+00 -0.00000000000E+00 -0.32886453811E+03  0.32886453811E+03  0.00000000000E+00 0.  1.
          5    1    1    2  502    0 -0.17553004186E+03  0.28404331007E+02  0.39151975812E+02  0.18212070509E+03  0.41800000000E+01 0. -1.
         -5    1    1    2    0  502 -0.61941874569E+02 -0.17348175435E+02 -0.58762319926E+02  0.87225212290E+02  0.41800000000E+01 0. -1.
        -11    1    1    2    0    0  0.49537473057E+02  0.28202404336E+02 -0.48803651882E+02  0.75040877422E+02  0.00000000000E+00 0.  1.
         11    1    1    2    0    0  0.18793444337E+03 -0.39258559909E+02 -0.47216423831E+02  0.19771186158E+03  0.00000000000E+00 0. -1.
</event>
<event>
 6    1  0.6981059E-006  0.6007286E+02  0.7561462E-02  0.1397526E+00
          2   -1    0    0  501    0  0.00000000000E+00  0.00000000000E+00  0.37957207051E+03  0.37957207051E+03  0.00000000000E+00 0. -1.
         -2   -1    0    0    0  501 -0.00000000000E+00 -0.00000000000E+00 -0.23919506574E+02  0.23919506574E+02  0.00000000000E+00 0.  1.
          5    1    1    2  502    0 -0.33295978765E+02  0.21703607799E+01  0.24144756356E+03  0.24377803637E+03  0.41800000000E+01 0. -1.
         -5    1    1    2    0  502  0.10747086350E+02 -0.21936693740E+02 -0.51033941112E+01  0.25302873922E+02  0.41800000000E+01 0. -1.
        -11    1    1    2    0    0  0.18130057209E+02  0.38463998809E+02  0.77507010109E+02  0.88405400258E+02  0.00000000000E+00 0.  1.
         11    1    1    2    0    0  0.44188352064E+01 -0.18697665849E+02  0.41801384373E+02  0.46005266527E+02  0.00000000000E+00 0. -1.
</event>
<event>
 6    1  0.6981059E-006  0.1455565E+03  0.7561462E-02  0.1206042E+00
         -2   -1    0    0    0  501 -0.00000000000E+00  0.00000000000E+00  0.59953103667E+03  0.59953103667E+03  0.00000000000E+00 0.  1.
          2   -1    0    0  501    0  0.00000000000E+00 -0.00000000000E+00 -0.52860417168E+02  0.52860417168E+02  0.00000000000E+00 0. -1.
          5    1    1    2  502    0 -0.33294400927E+02  0.81807596880E+02  0.10504526755E+03  0.13730615672E+03  0.41800000000E+01 0. -1.
         -5    1    1    2    0  502  0.16147758564E+02 -0.12006551137E+03  0.37581640374E+03  0.39488215818E+03  0.41800000000E+01 0.  1.
        -11    1    1    2    0    0  0.32248456663E+02 -0.76506857460E+01 -0.59636852253E+01  0.33675829477E+02  0.00000000000E+00 0. -1.
         11    1    1    2    0    0 -0.15101814300E+02  0.45908600238E+02  0.71772633442E+02  0.86527309459E+02  0.00000000000E+00 0.  1.
</event>
<event>
 6    1  0.6981059E-006  0.1471764E+03  0.7561462E-02  0.1203986E+00
         -2   -1    0    0    0  501 -0.00000000000E+00  0.00000000000E+00  0.62392679722E+02  0.62392679722E+02  0.00000000000E+00 0.  1.
          2   -1    0    0  501    0  0.00000000000E+00 -0.00000000000E+00 -0.70592722251E+03  0.70592722251E+03  0.00000000000E+00 0. -1.
          5    1    1    2  502    0 -0.21873877820E+02 -0.57920624253E+02 -0.69911736886E+02  0.93479348517E+02  0.41800000000E+01 0. -1.
         -5    1    1    2    0  502 -0.89226284748E+02  0.19430726286E+02 -0.10061209168E+02  0.91965120257E+02  0.41800000000E+01 0.  1.
        -11    1    1    2    0    0  0.84932341904E+02 -0.10266396799E+02 -0.24411431456E+03  0.25867102694E+03  0.00000000000E+00 0.  1.
         11    1    1    2    0    0  0.26167820665E+02  0.48756294766E+02 -0.31944728217E+03  0.32420440651E+03  0.00000000000E+00 0. -1.
</event>
<event>
 6    1  0.6981059E-006  0.7268166E+02  0.7561462E-02  0.1351204E+00
         -2   -1    0    0    0  501 -0.00000000000E+00  0.00000000000E+00  0.42562165285E+02  0.42562165285E+02  0.00000000000E+00 0. -1.
          2   -1    0    0  501    0  0.00000000000E+00 -0.00000000000E+00 -0.27819209245E+03  0.27819209245E+03  0.00000000000E+00 0.  1.
          5    1    1    2  502    0  0.31141547546E+02 -0.31374947901E+02  0.23535950264E+01  0.44465662582E+02  0.41800000000E+01 0.  1.
         -5    1    1    2    0  502 -0.42833721294E+02  0.20599369070E+02 -0.11544077278E+03  0.12491239372E+03  0.41800000000E+01 0.  1.
        -11    1    1    2    0    0  0.16565026116E+02  0.29535972200E+02 -0.12704202717E+03  0.13147794649E+03  0.00000000000E+00 0.  1.
         11    1    1    2    0    0 -0.48728523680E+01 -0.18760393369E+02  0.44992777573E+01  0.19898254946E+02  0.00000000000E+00 0. -1.
</event>
<event>
 6    1  0.6981059E-006  0.1361400E+03  0.7561462E-02  0.1218619E+00
          2   -1    0    0  501    0  0.00000000000E+00  0.00000000000E+00  0.65974840394E+02  0.65974840394E+02  0.00000000000E+00 0. -1.
         -2   -1    0    0    0  501 -0.00000000000E+00 -0.00000000000E+00 -0.36444054344E+03  0.36444054344E+03  0.00000000000E+00 0.  1.
          5    1    1    2  502    0  0.84100695830E+01 -0.13582843894E+02  0.77521623752E+01  0.18242569450E+02  0.41800000000E+01 0.  1.
         -5    1    1    2    0  502  0.62312607223E+00  0.11765148678E+03 -0.21815426766E+03  0.24789315748E+03  0.41800000000E+01 0.  1.
        -11    1    1    2    0    0 -0.49684885873E+02 -0.51146398787E+02 -0.53370042254E+02  0.89066847948E+02  0.00000000000E+00 0.  1.
         11    1    1    2    0    0  0.40651690218E+02 -0.52922244097E+02 -0.34693555512E+02  0.75212808962E+02  0.00000000000E+00 0. -1.
</event>
<event>
 6    1  0.6981059E-006  0.1396110E+03  0.7561462E-02  0.1213853E+00
          4   -1    0    0  501    0  0.00000000000E+00  0.00000000000E+00  0.14013554204E+03  0.14013554204E+03  0.00000000000E+00 0. -1.
         -4   -1    0    0    0  501 -0.00000000000E+00 -0.00000000000E+00 -0.20732606236E+03  0.20732606236E+03  0.00000000000E+00 0.  1.
          5    1    1    2  502    0 -0.28732242792E+02 -0.22688776841E+02 -0.84677474758E+02  0.92347547351E+02  0.41800000000E+01 0. -1.
         -5    1    1    2    0  502  0.90315269107E+01 -0.10000615509E+03  0.61139478162E+01  0.10068590911E+03  0.41800000000E+01 0. -1.
        -11    1    1    2    0    0  0.45261650230E+02  0.70912325118E+02 -0.23014591931E+02  0.87217236123E+02  0.00000000000E+00 0.  1.
         11    1    1    2    0    0 -0.25560934349E+02  0.51782606816E+02  0.34387598556E+02  0.67210911822E+02  0.00000000000E+00 0. -1.
</event>
<event>
 6    1  0.6981059E-006  0.1327829E+03  0.7561462E-02  0.1223384E+00
          1   -1    0    0  501    0  0.00000000000E+00  0.00000000000E+00  0.11940059096E+04  0.11940059096E+04  0.00000000000E+00 0. -1.
         -1   -1    0    0    0  501 -0.00000000000E+00 -0.00000000000E+00 -0.19369635123E+02  0.19369635123E+02  0.00000000000E+00 0.  1.
          5    1    1    2  502    0  0.47454341612E+02 -0.11923385009E+02  0.72533566269E+02  0.87593791353E+02  0.41800000000E+01 0.  1.
         -5    1    1    2    0  502  0.11362699403E+02 -0.75654916643E+02  0.58497126914E+03  0.58996748679E+03  0.41800000000E+01 0.  1.
        -11    1    1    2    0    0 -0.70775740308E+02  0.23379064626E+02  0.25495781140E+03  0.26562995251E+03  0.00000000000E+00 0.  1.
         11    1    1    2    0    0  0.11958699293E+02  0.64199237025E+02  0.26217362772E+03  0.27018431411E+03  0.00000000000E+00 0. -1.
</event>
<event>
 6    1  0.6981059E-006  0.1870815E+03  0.7561462E-02  0.1161120E+00
          1   -1    0    0  501    0  0.00000000000E+00  0.00000000000E+00  0.95660661181E+03  0.95660661181E+03  0.00000000000E+00 0. -1.
         -1   -1    0    0    0  501 -0.00000000000E+00 -0.00000000000E+00 -0.53457849511E+02  0.53457849511E+02  0.00000000000E+00 0.  1.
          5    1    1    2  502    0 -0.12918672295E+03  0.93298019814E+01  0.20188158453E+03  0.23989560472E+03  0.41800000000E+01 0.  1.
         -5    1    1    2    0  502 -0.31348924929E+02 -0.56771457181E+02  0.27956657462E+02  0.70744614927E+02  0.41800000000E+01 0.  1.
        -11    1    1    2    0    0  0.83197139615E+02 -0.92281900431E+01  0.20559307122E+03  0.22198070742E+03  0.00000000000E+00 0.  1.
         11    1    1    2    0    0  0.77338508269E+02  0.56669845243E+02  0.46771744909E+03  0.47744353426E+03  0.00000000000E+00 0. -1.
</event>
<event>
 6    1  0.6981059E-006  0.1086592E+03  0.7561462E-02  0.1263073E+00
          2   -1    0    0  501    0  0.00000000000E+00  0.00000000000E+00  0.17290711668E+03  0.17290711668E+03  0.00000000000E+00 0. -1.
         -2   -1    0    0    0  501 -0.00000000000E+00 -0.00000000000E+00 -0.85704054682E+02  0.85704054682E+02  0.00000000000E+00 0.  1.
          5    1    1    2  502    0 -0.30996357131E+02  0.33103969581E+02  0.42372238112E+02  0.62205513582E+02  0.41800000000E+01 0.  1.
         -5    1    1    2    0  502  0.76062065322E+02 -0.40596951174E+01 -0.12039606460E+02  0.77229161780E+02  0.41800000000E+01 0.  1.
        -11    1    1    2    0    0 -0.21638521431E+02 -0.55847297507E+02  0.58255277746E+02  0.83551323352E+02  0.00000000000E+00 0. -1.
         11    1    1    2    0    0 -0.23427186759E+02  0.26803023044E+02 -0.13848474013E+01  0.35625172646E+02  0.00000000000E+00 0.  1.
</event>
<event>
 6    1  0.6981059E-006  0.1554211E+03  0.7561462E-02  0.1193965E+00
         -1   -1    0    0    0  501 -0.00000000000E+00  0.00000000000E+00  0.42983185638E+03  0.42983185638E+03  0.00000000000E+00 0.  1.
          1   -1    0    0  501    0  0.00000000000E+00 -0.00000000000E+00 -0.78752398466E+02  0.78752398466E+02  0.00000000000E+00 0. -1.
          5    1    1    2  502    0 -0.11227635565E+03  0.48923802888E+02  0.17779335247E+03  0.21593394154E+03  0.41800000000E+01 0.  1.
         -5    1    1    2    0  502 -0.31824857240E+02 -0.20920523496E+02 -0.10123941880E+02  0.39628984858E+02  0.41800000000E+01 0.  1.
        -11    1    1    2    0    0  0.11057156747E+03 -0.34504557291E+02  0.18562044152E+03  0.21879575937E+03  0.00000000000E+00 0.  1.
         11    1    1    2    0    0  0.33529645420E+02  0.65012778984E+01 -0.22103941953E+01  0.34225569079E+02  0.00000000000E+00 0. -1.
</event>
<event>
 6    1  0.6981059E-006  0.1201506E+03  0.7561462E-02  0.1242849E+00
         -1   -1    0    0    0  501 -0.00000000000E+00  0.00000000000E+00  0.16748564298E+03  0.16748564298E+03  0.00000000000E+00 0.  1.
          1   -1    0    0  501    0  0.00000000000E+00 -0.00000000000E+00 -0.34664569349E+03  0.34664569349E+03  0.00000000000E+00 0. -1.
          5    1    1    2  502    0 -0.39818907485E+02 -0.55386986680E+02  0.32413907025E+02  0.75639919721E+02  0.41800000000E+01 0. -1.
         -5    1    1    2    0  502  0.43565781262E+02  0.67278560060E+02  0.90557635989E+02  0.12100636255E+03  0.41800000000E+01 0.  1.
        -11    1    1    2    0    0  0.21667631021E+02  0.33370637173E+02 -0.79736771020E+02  0.89112503680E+02  0.00000000000E+00 0.  1.
         11    1    1    2    0    0 -0.25414504798E+02 -0.45262210553E+02 -0.22239482250E+03  0.22837255052E+03  0.00000000000E+00 0. -1.
</event>
<event>
 6    1  0.6981059E-006  0.2158787E+03  0.7561462E-02  0.1136993E+00
          2   -1    0    0  501    0  0.00000000000E+00  0.00000000000E+00  0.53894265980E+03  0.53894265980E+03  0.00000000000E+00 0.  1.
         -2   -1    0    0    0  501 -0.00000000000E+00 -0.00000000000E+00 -0.10344589370E+03  0.10344589370E+03  0.00000000000E+00 0. -1.
          5    1    1    2  502    0 -0.11957291291E+03  0.12282837888E+03  0.58737075550E+02  0.18125123063E+03  0.41800000000E+01 0.  1.
         -5    1    1    2    0  502 -0.44835253418E+02 -0.24172031610E+02  0.52533229672E+02  0.73291880048E+02  0.41800000000E+01 0.  1.
        -11    1    1    2    0    0  0.81002513484E+02 -0.96168959567E+02  0.22887182628E+03  0.26113634148E+03  0.00000000000E+00 0. -1.
         11    1    1    2    0    0  0.83405652845E+02 -0.24873876999E+01  0.95354634597E+02  0.12670910134E+03  0.00000000000E+00 0.  1.
</event>
<event>
 6    1  0.6981059E-006  0.1011906E+03  0.7561462E-02  0.1277812E+00
          2   -1    0    0  501    0  0.00000000000E+00  0.00000000000E+00  0.49404060957E+03  0.49404060957E+03  0.00000000000E+00 0.  1.
         -2   -1    0    0    0  501 -0.00000000000E+00 -0.00000000000E+00 -0.34924558148E+02  0.34924558148E+02  0.00000000000E+00 0. -1.
          5    1    1    2  502    0  0.25966923682E+02  0.50045143603E+01 -0.76151633022E+01  0.27835039098E+02  0.41800000000E+01 0. -1.
         -5    1    1    2    0  502 -0.36039735264E+01  0.62269601061E+02  0.21950063070E+03  0.22822903216E+03  0.41800000000E+01 0. -1.
        -11    1    1    2    0    0  0.33292375730E+02 -0.36865927903E+02  0.81433155624E+02  0.95387828137E+02  0.00000000000E+00 0.  1.
         11    1    1    2    0    0 -0.55655325885E+02 -0.30408187519E+02  0.16579742840E+03  0.17751326833E+03  0.00000000000E+00 0. -1.
</event>
<event>
 6    1  0.6981059E-006  0.1206270E+03  0.7561462E-02  0.1242066E+00
          2   -1    0    0  501    0  0.00000000000E+00  0.00000000000E+00  0.58776491505E+03  0.58776491505E+03  0.00000000000E+00 0. -1.
         -2   -1    0    0    0  501 -0.00000000000E+00 -0.00000000000E+00 -0.33999557451E+02  0.33999557451E+02  0.00000000000E+00 0.  1.
          5    1    1    2  502    0 -0.10190668699E+02 -0.92758775032E+02  0.13077691414E+03  0.16071127448E+03  0.41800000000E+01 0. -1.
         -5    1    1    2    0  502  0.23556958545E+02  0.33232476347E+02  0.24107460688E+02  0.47518100140E+02  0.41800000000E+01 0. -1.
        -11    1    1    2    0    0  0.32751122591E+02  0.50050792914E+02  0.18106260123E+03  0.19068661061E+03  0.00000000000E+00 0. -1.
         11    1    1    2    0    0 -0.46117412438E+02  0.94755057712E+01  0.21781838155E+03  0.22284848727E+03  0.00000000000E+00 0.  1.
</event>
<event>
 6    1  0.6981059E-006  0.1347091E+03  0.7561462E-02  0.1220631E+00
          2   -1    0    0  501    0  0.00000000000E+00  0.00000000000E+00  0.12812407686E+03  0.12812407686E+03  0.00000000000E+00 0.  1.
         -2   -1    0    0    0  501 -0.00000000000E+00 -0.00000000000E+00 -0.18860920819E+03  0.18860920819E+03  0.00000000000E+00 0. -1.
          5    1    1    2  502    0  0.46752201017E+01  0.34154440659E+02  0.63687227426E+01  0.35304624755E+02  0.41800000000E+01 0. -1.
         -5    1    1    2    0  502  0.90325976773E+02 -0.83630805266E+02 -0.66795639589E+02  0.14011432310E+03  0.41800000000E+01 0. -1.
        -11    1    1    2    0    0 -0.24572661602E+01  0.11050420631E+02 -0.33749591373E+02  0.35597540237E+02  0.00000000000E+00 0. -1.
         11    1    1    2    0    0 -0.92543930714E+02  0.38425943976E+02  0.33691376886E+02  0.10571679696E+03  0.00000000000E+00 0.  1.
</event>
<event>
 6    1  0.6981059E-006  0.2682044E+03  0.7561462E-02  0.1102312E+00
         -2   -1    0    0    0  501 -0.00000000000E+00  0.00000000000E+00  0.89849972853E+02  0.89849972853E+02  0.00000000000E+00 0. -1.
          2   -1    0    0  501    0  0.00000000000E+00 -0.00000000000E+00 -0.85971674524E+03  0.85971674524E+03  0.00000000000E+00 0.  1.
          5    1    1    2  502    0  0.26038214321E+03  0.12334514822E+02 -0.31557390526E+03  0.40933526948E+03  0.41800000000E+01 0.  1.
         -5    1    1    2    0  502 -0.86757318235E+01  0.19684044590E+02 -0.32563109177E+02  0.39249947941E+02  0.41800000000E+01 0.  1.
        -11    1    1    2    0    0 -0.56239138663E+02 -0.93350840394E+01 -0.18262092727E+03  0.19131227768E+03  0.00000000000E+00 0.  1.
         11    1    1    2    0    0 -0.19546727273E+03 -0.22683475373E+02 -0.23910883067E+03  0.30966922299E+03  0.00000000000E+00 0. -1.
</event>
<event>
 6    1  0.6981059E-006  0.1859636E+03  0.7561462E-02  0.1162153E+00
          2   -1    0    0  501    0  0.00000000000E+00  0.00000000000E+00  0.59249273241E+03  0.59249273241E+03  0.00000000000E+00 0. -1.
         -2   -1    0    0    0  501 -0.00000000000E+00 -0.00000000000E+00 -0.10410506616E+03  0.10410506616E+03  0.00000000000E+00 0.  1.
          5    1    1    2  502    0 -0.22572060360E+02 -0.84007951079E+02  0.28058194399E+02  0.91496275478E+02  0.41800000000E+01 0. -1.
         -5    1    1    2    0  502 -0.10732777194E+03  0.33134826299E+01 -0.39795735758E+01  0.10753389792E+03  0.41800000000E+01 0. -1.
        -11    1    1    2    0    0  0.13890778482E+03  0.53708495903E+02  0.36363298962E+03  0.39294901242E+03  0.00000000000E+00 0.  1.
         11    1    1    2    0    0 -0.90079525242E+01  0.26985972546E+02  0.10067605580E+03  0.10461861276E+03  0.00000000000E+00 0. -1.
</event>
<event>
 6    1  0.6981059E-006  0.1308276E+03  0.7561462E-02  0.1226233E+00
         -2   -1    0    0    0  501 -0.00000000000E+00  0.00000000000E+00  0.38186012673E+02  0.38186012673E+02  0.00000000000E+00 0. -1.
          2   -1    0    0  501    0  0.00000000000E+00 -0.00000000000E+00 -0.51723624262E+03  0.51723624262E+03  0.00000000000E+00 0.  1.
          5    1    1    2  502    0  0.40711989342E+02 -0.65480043147E+01 -0.39099303531E+02  0.56978683499E+02  0.41800000000E+01 0. -1.
         -5    1    1    2    0  502 -0.72918878142E+02 -0.75347707240E+02 -0.22357033157E+03  0.24697288380E+03  0.41800000000E+01 0. -1.
        -11    1    1    2    0    0 -0.14076621476E+02  0.64191833426E+02 -0.66010065872E+02  0.93145432240E+02  0.00000000000E+00 0.  1.
         11    1    1    2    0    0  0.46283510275E+02  0.17703878128E+02 -0.15037052897E+03  0.15832525575E+03  0.00000000000E+00 0. -1.
</event>
<event>
 6    1  0.6981059E-006  0.9222691E+02  0.7561462E-02  0.1297547E+00
         -1   -1    0    0    0  501 -0.00000000000E+00  0.00000000000E+00  0.55585403075E+02  0.55585403075E+02  0.00000000000E+00 0.  1.
          1   -1    0    0  501    0  0.00000000000E+00 -0.00000000000E+00 -0.23452547448E+03  0.23452547448E+03  0.00000000000E+00 0. -1.
          5    1    1    2  502    0 -0.35642899387E+02  0.23819383065E+02 -0.87835134974E+02  0.97827719089E+02  0.41800000000E+01 0.  1.
         -5    1    1    2    0  502  0.14162278423E+02 -0.49383283981E+02  0.11032707747E+02  0.52711212347E+02  0.41800000000E+01 0.  1.
        -11    1    1    2    0    0 -0.12424721490E+02  0.47735761628E+02 -0.32700261867E+02  0.59180940923E+02  0.00000000000E+00 0. -1.
         11    1    1    2    0    0  0.33905342454E+02 -0.22171860713E+02 -0.69437382307E+02  0.80391005193E+02  0.00000000000E+00 0.  1.
</event>
<event>
 6    1  0.6981059E-006  0.1168291E+03  0.7561462E-02  0.1248422E+00
         -2   -1    0    0    0  501 -0.00000000000E+00  0.00000000000E+00  0.92737655763E+02  0.92737655763E+02  0.00000000000E+00 0. -1.
          2   -1    0    0  501    0  0.00000000000E+00 -0.00000000000E+00 -0.19259193725E+03  0.19259193725E+03  0.00000000000E+00 0.  1.
          5    1    1    2  502    0 -0.41344324376E+02  0.58593418705E+01 -0.73381031086E+01  0.42602877867E+02  0.41800000000E+01 0.  1.
         -5    1    1    2    0  502  0.88328366303E+02 -0.16884487466E+02  0.18785621775E+02  0.91963896156E+02  0.41800000000E+01 0.  1.
        -11    1    1    2    0    0 -0.55511401129E+02  0.41955505886E+02 -0.74608534144E+02  0.10202065230E+03  0.00000000000E+00 0.  1.
         11    1    1    2    0    0  0.85273592023E+01 -0.30930360291E+02 -0.36693266010E+02  0.48742166685E+02  0.00000000000E+00 0. -1.
</event>
